Title
82255
    1SAPS     N    1   2.949   5.065  10.884 -0.0976  0.0235 -0.0958
    1SAPS   HN1    2   3.030   5.128  10.866 -1.5012  2.3964  1.3933
    1SAPS   HN2    3   2.912   5.038  10.791 -1.4822 -1.3676  0.8122
    1SAPS   HN3    4   2.884   5.131  10.932  0.1979 -1.1702  2.0877
    1SAPS   C12    5   2.991   4.946  10.961 -0.4543  0.0335 -0.9882
    1SAPS  H12A    6   3.068   4.897  10.904  3.2581  3.2353  0.8510
    1SAPS   C13    7   3.042   4.997  11.103  0.5894  0.3471 -0.4066
    1SAPS  O13A    8   3.062   5.120  11.134 -0.7528 -0.1591 -0.4100
    1SAPS  O13B    9   3.043   4.908  11.200  0.3178  0.1288  0.4622
    1SAPS   C11   10   2.867   4.846  10.966 -0.1052  0.1321 -0.0932
    1SAPS  H11A   11   2.781   4.898  11.014 -1.9534  0.2553 -3.2115
    1SAPS  H11B   12   2.896   4.758  11.028 -0.0511 -0.2556 -0.6619
    1SAPS     P   13   2.736   4.711  10.781  0.1251  0.3295 -0.2590
    1SAPS   O13   14   2.763   4.587  10.851 -0.6380 -0.0519  0.4488
    1SAPS   O14   15   2.596   4.759  10.791  0.0921 -0.3017  0.4267
    1SAPS   O12   16   2.838   4.821  10.834 -0.0209 -0.0565  0.3645
    1SAPS   O11   17   2.779   4.695  10.629 -0.0802  0.3276 -0.0981
    1SAPS    C1   18   2.914   4.723  10.585  0.5518 -0.6374 -0.2131
    1SAPS    HA   19   2.909   4.818  10.528 -0.9684 -0.3108  0.4085
    1SAPS    HB   20   2.988   4.737  10.666  1.0005 -0.0512 -0.7122
    1SAPS    C2   21   2.973   4.615  10.487  0.1282 -0.1992  0.7257
    1SAPS    HS   22   3.056   4.666  10.434  0.1455 -0.1301  0.8196
    1SAPS   O21   23   2.871   4.577  10.401  0.3432 -0.6293 -0.3930
    1SAPS   C21   24   2.841   4.644  10.291  0.1647 -0.2105 -0.0575
    1SAPS   O22   25   2.889   4.747  10.248 -0.1842 -0.0332  0.7919
    1SAPS   C22   26   2.737   4.551  10.231 -0.2140 -0.3669 -0.3642
    1SAPS   H2R   27   2.777   4.447  10.235  1.1205  0.1257 -0.4940
    1SAPS   H2S   28   2.638   4.563  10.280  0.2688 -1.5071  0.9608
    1SAPS    C3   29   3.036   4.487  10.557  0.8450  0.3937  0.4287
    1SAPS    HX   30   2.961   4.426  10.612  0.1952  0.1932 -0.6504
    1SAPS    HY   31   3.100   4.530  10.638 -1.5643 -3.0442  4.5853
    1SAPS   O31   32   3.109   4.401  10.468 -0.1673  0.2042 -0.1318
    1SAPS   C31   33   3.038   4.309  10.403  0.5085 -0.2296  0.3218
    1SAPS   O32   34   2.918   4.290  10.408 -0.5475  0.0617  0.1953
    1SAPS   C32   35   3.150   4.247  10.313 -0.1963  0.1102 -0.7981
    1SAPS   H2X   36   3.225   4.199  10.379 -0.3206 -1.0209 -1.4469
    1SAPS   H2Y   37   3.208   4.326  10.262 -1.0228  1.2787  0.0214
    1SAPS   C23   38   2.698   4.584  10.083 -0.8227  0.1503 -0.8600
    1SAPS   H3R   39   2.655   4.493  10.036 -0.2807  0.1521 -1.3740
    1SAPS   H3S   40   2.792   4.587  10.023 -0.5799 -2.5196 -0.7724
    1SAPS   C24   41   2.609   4.711  10.071  0.4223  1.1819 -0.3115
    1SAPS   H4R   42   2.680   4.782  10.024  0.1347  0.0059 -2.6384
    1SAPS   H4S   43   2.573   4.752  10.168 -1.3711 -2.4876  0.7691
    1SAPS   C25   44   2.484   4.682   9.989 -0.0481 -0.4791 -0.0749
    1SAPS   H5R   45   2.403   4.641  10.052  0.5486 -1.8267 -0.1572
    1SAPS   C26   46   2.471   4.684   9.857  0.9308  1.0173  0.1437
    1SAPS   H6R   47   2.369   4.665   9.821  0.8746  0.2459  0.6946
    1SAPS   C27   48   2.586   4.696   9.754  0.2267 -0.0953 -0.0410
    1SAPS   H7R   49   2.605   4.591   9.723 -2.3284 -0.2049 -1.4949
    1SAPS   H7S   50   2.677   4.731   9.807  0.2238 -0.0396 -0.0722
    1SAPS   C28   51   2.541   4.776   9.633 -0.0433 -0.4073  0.8383
    1SAPS   H8R   52   2.468   4.855   9.652 -0.3313  0.2204 -2.2311
    1SAPS   C29   53   2.582   4.744   9.510 -0.3684  0.3902 -0.0588
    1SAPS   H9R   54   2.549   4.809   9.427  2.9805 -0.5586 -2.3312
    1SAPS  C210   55   2.677   4.635   9.470 -0.2247  0.2300  0.6799
    1SAPS  H10R   56   2.672   4.545   9.536  0.6472 -2.2797 -2.4469
    1SAPS  H10S   57   2.783   4.667   9.475 -0.8614  2.8019 -0.8112
    1SAPS  C211   58   2.663   4.580   9.322 -0.3038 -0.2442 -0.0643
    1SAPS  H11R   59   2.600   4.490   9.312  2.7489 -2.4541 -0.5573
    1SAPS  C212   60   2.725   4.626   9.213 -0.0566 -0.0825  0.3148
    1SAPS  H12R   61   2.707   4.572   9.119 -3.0784 -1.3775  1.4995
    1SAPS  C213   62   2.821   4.743   9.212  0.2321  0.2651  0.6025
    1SAPS  H13R   63   2.924   4.703   9.206  0.2370  0.0609  1.8297
    1SAPS  H13S   64   2.811   4.799   9.307 -0.9319  2.5080 -0.7650
    1SAPS  C214   65   2.797   4.832   9.094  0.0825  0.9244 -0.2109
    1SAPS  H14R   66   2.757   4.927   9.131 -2.4748 -0.7043  1.5188
    1SAPS  C215   67   2.829   4.805   8.967 -0.2713  0.4539 -0.2480
    1SAPS  H15R   68   2.825   4.879   8.885 -1.3592 -1.4815 -2.0472
    1SAPS  C216   69   2.884   4.680   8.910  0.2647  0.2411 -0.3408
    1SAPS  H16R   70   2.870   4.611   8.997  1.4510  1.3278  0.7502
    1SAPS  H16S   71   2.990   4.676   8.878  0.5883 -2.2950  0.7947
    1SAPS  C217   72   2.806   4.631   8.784 -0.7531  0.0911 -0.0606
    1SAPS  H17R   73   2.787   4.719   8.720 -0.2538  1.7193  1.9114
    1SAPS  H17S   74   2.715   4.583   8.826  1.4913 -3.3104  1.3745
    1SAPS  C218   75   2.891   4.529   8.709  0.8150 -0.5085 -0.3690
    1SAPS  H18R   76   2.812   4.479   8.650  0.2461  0.6921 -0.6576
    1SAPS  H18S   77   2.922   4.461   8.791 -0.7775 -0.8659 -0.0279
    1SAPS  C219   78   3.005   4.601   8.623  0.4101 -0.0065 -0.0525
    1SAPS  H19R   79   3.067   4.668   8.686 -1.9845  2.2310  0.0639
    1SAPS  H19S   80   2.957   4.670   8.551  0.6388  1.2067  0.9208
    1SAPS  C220   81   3.093   4.504   8.547  0.1888  0.9020 -0.0829
    1SAPS  H20R   82   3.159   4.557   8.474 -0.8604  0.0653 -1.7076
    1SAPS  H20S   83   3.028   4.437   8.488  0.6063 -0.2524  0.7412
    1SAPS  H20T   84   3.148   4.440   8.619 -1.4106 -0.5550 -0.0867
    1SAPS   C33   85   3.090   4.139  10.218 -0.4065  0.3303 -0.5190
    1SAPS   H3X   86   3.022   4.070  10.272  0.5748 -1.0202 -0.9757
    1SAPS   H3Y   87   3.174   4.082  10.174 -0.2110  1.4249 -1.6319
    1SAPS   C34   88   3.006   4.196  10.101  0.2658 -0.6484 -0.0120
    1SAPS   H4X   89   2.913   4.242  10.140 -0.1816 -1.0305 -0.5924
    1SAPS   H4Y   90   2.978   4.117  10.027 -1.0169  1.2419 -1.6735
    1SAPS   C35   91   3.075   4.292  10.005 -0.3018  0.6454 -0.3835
    1SAPS   H5X   92   3.113   4.378  10.064 -1.9533  1.2164 -0.1212
    1SAPS   H5Y   93   3.003   4.326   9.928 -0.8136 -2.1284 -1.2755
    1SAPS   C36   94   3.200   4.235   9.929 -0.7223 -0.4793 -0.5881
    1SAPS   H6X   95   3.175   4.135   9.889  2.1513 -1.0937 -1.0613
    1SAPS   H6Y   96   3.286   4.222   9.998 -1.4967 -2.1769  0.1326
    1SAPS   C37   97   3.242   4.332   9.818  0.3220  0.0440 -0.5237
    1SAPS   H7X   98   3.324   4.293   9.755  1.7920 -1.7357  2.2837
    1SAPS   H7Y   99   3.275   4.433   9.851 -0.5006  0.6479 -1.4780
    1SAPS   C38  100   3.133   4.358   9.714 -0.1160  0.0864 -0.2981
    1SAPS   H8X  101   3.056   4.425   9.759 -0.5307 -1.7682  1.9213
    1SAPS   H8Y  102   3.078   4.262   9.705 -0.5419  0.2360  0.6236
    1SAPS   C39  103   3.176   4.420   9.584 -0.4425 -0.8288  0.2582
    1SAPS   H9X  104   3.247   4.348   9.537 -0.4741  0.3136 -1.6245
    1SAPS   H9Y  105   3.220   4.520   9.600 -3.2481  0.9066 -1.9155
    1SAPS  C310  106   3.062   4.437   9.488 -0.1021 -0.3008 -0.0644
    1SAPS  H10X  107   2.987   4.503   9.536  3.1212  1.9275  2.3592
    1SAPS  H10Y  108   3.017   4.336   9.487  0.3283 -0.6225  2.8917
    1SAPS  C311  109   3.091   4.495   9.353 -0.0798 -0.0766 -0.2323
    1SAPS  H11X  110   3.152   4.588   9.353  1.0892 -0.6824 -3.8098
    1SAPS  H11Y  111   2.997   4.515   9.297 -1.0102 -1.5145  0.7429
    1SAPS  C312  112   3.165   4.406   9.249 -0.2915  0.9224  0.7138
    1SAPS  H12X  113   3.120   4.305   9.237  0.5899  0.5730  0.2774
    1SAPS  H12Y  114   3.270   4.391   9.279 -1.1811 -2.6346  2.5202
    1SAPS  C313  115   3.148   4.479   9.120 -0.5832  0.7312  0.5318
    1SAPS  H13X  116   3.163   4.590   9.119 -0.4943  0.7348 -1.4316
    1SAPS  H13Y  117   3.042   4.477   9.087 -0.5478 -1.5923  0.4490
    1SAPS  C314  118   3.225   4.405   9.015  0.2758 -0.0399  0.9164
    1SAPS  H14X  119   3.166   4.420   8.922  0.0936  1.3974  1.2517
    1SAPS  H14Y  120   3.225   4.296   9.038 -2.2658 -0.1333  0.6838
    1SAPS  C315  121   3.358   4.476   8.995 -0.6120  0.4396 -0.2340
    1SAPS  H15X  122   3.446   4.409   8.988 -0.1979  1.0321 -0.6987
    1SAPS  H15Y  123   3.376   4.539   9.084  0.7814 -1.2914  0.7737
    1SAPS  C316  124   3.353   4.561   8.863  0.3204 -0.0892 -0.9779
    1SAPS  H16X  125   3.307   4.660   8.885 -0.1205 -0.8918  2.1701
    1SAPS  H16Y  126   3.288   4.511   8.788 -0.8085  0.3672 -0.3197
    1SAPS  C317  127   3.500   4.578   8.809  0.4966 -0.6836 -0.0329
    1SAPS  H17X  128   3.562   4.597   8.899  1.7518 -0.0152 -1.0218
    1SAPS  H17Y  129   3.492   4.673   8.752  2.0916 -0.3211  0.3036
    1SAPS  C318  130   3.545   4.463   8.726 -0.3169  0.2526 -0.9070
    1SAPS  H18X  131   3.655   4.469   8.708 -0.2514  2.0810 -0.0821
    1SAPS  H18Y  132   3.493   4.458   8.629 -2.6823  0.9876  0.2547
    1SAPS  H18Z  133   3.521   4.365   8.773  0.9809 -0.1102 -0.9673
    2SAPS     N  134   5.500   1.409  11.026 -0.1196  0.4819  0.3058
    2SAPS   HN1  135   5.506   1.397  10.923 -0.5409 -0.9812  0.4173
    2SAPS   HN2  136   5.413   1.359  11.055  0.4994 -1.2498 -0.6252
    2SAPS   HN3  137   5.484   1.511  11.032 -0.5250  0.3683  1.6482
    2SAPS   C12  138   5.625   1.349  11.091 -0.2126 -0.0802 -0.5564
    2SAPS  H12A  139   5.700   1.422  11.064 -0.1799  0.5613  1.1243
    2SAPS   C13  140   5.616   1.352  11.247  0.3528 -0.2118 -0.7282
    2SAPS  O13A  141   5.538   1.423  11.315  0.1679 -0.1652 -0.3010
    2SAPS  O13B  142   5.709   1.287  11.306  0.0479  0.0955 -0.0444
    2SAPS   C11  143   5.647   1.204  11.031  0.1770  0.0289 -0.1320
    2SAPS  H11A  144   5.553   1.145  11.030 -0.0220  0.3438 -1.2364
    2SAPS  H11B  145   5.712   1.149  11.102  0.0493 -0.2005 -0.1916
    2SAPS     P  146   5.626   1.212  10.761 -0.1411  0.1449  0.2162
    2SAPS   O13  147   5.711   1.293  10.671 -0.3095  0.0178 -0.1447
    2SAPS   O14  148   5.593   1.077  10.725  0.1795  0.2715 -0.3033
    2SAPS   O12  149   5.704   1.209  10.899 -0.3982  0.0541 -0.0747
    2SAPS   O11  150   5.498   1.298  10.788  0.2403 -0.5330  0.1004
    2SAPS    C1  151   5.367   1.250  10.740 -0.5730  0.0778 -0.2943
    2SAPS    HA  152   5.347   1.148  10.777  0.2470 -0.1485 -0.4521
    2SAPS    HB  153   5.296   1.329  10.774 -1.1854 -0.3611 -0.5578
    2SAPS    C2  154   5.357   1.263  10.585  0.3361  0.5933  0.4851
    2SAPS    HS  155   5.397   1.171  10.539  0.2113  0.4207  0.7192
    2SAPS   O21  156   5.434   1.380  10.538  0.5491  0.1845  0.6882
    2SAPS   C21  157   5.503   1.356  10.427  0.1375  0.3544 -0.2701
    2SAPS   O22  158   5.492   1.259  10.356 -0.1033  0.4969  0.5759
    2SAPS   C22  159   5.595   1.475  10.408 -0.0066  0.0425  0.0377
    2SAPS   H2R  160   5.538   1.570  10.411  0.5995  0.3825  1.1707
    2SAPS   H2S  161   5.670   1.464  10.489 -0.7882 -0.7945  0.6681
    2SAPS    C3  162   5.211   1.280  10.535  0.1452 -0.2951 -0.2219
    2SAPS    HX  163   5.181   1.374  10.586  0.6110 -0.9425  1.2879
    2SAPS    HY  164   5.149   1.195  10.570 -0.4772  0.8692  1.6517
    2SAPS   O31  165   5.205   1.297  10.389  0.4139  0.6052 -0.5402
    2SAPS   C31  166   5.218   1.187  10.315  0.0213  0.4739 -0.1158
    2SAPS   O32  167   5.225   1.075  10.365 -0.2059  0.1768 -0.8196
    2SAPS   C32  168   5.210   1.230  10.168  0.2329 -0.3898  0.7469
    2SAPS   H2X  169   5.300   1.292  10.148 -1.6057  1.7856 -1.5163
    2SAPS   H2Y  170   5.139   1.315  10.156  2.1421  1.2604  0.6746
    2SAPS   C23  171   5.674   1.467  10.277  0.0890 -0.7139  0.5083
    2SAPS   H3R  172   5.613   1.497  10.189 -0.9709 -1.1604  1.0775
    2SAPS   H3S  173   5.694   1.360  10.257 -1.7000 -1.6199  3.1151
    2SAPS   C24  174   5.818   1.542  10.273  0.1713 -0.1730 -0.3804
    2SAPS   H4R  175   5.886   1.503  10.352 -2.0769 -0.2031  1.6385
    2SAPS   H4S  176   5.804   1.651  10.287 -3.4068 -0.3449 -1.5356
    2SAPS   C25  177   5.874   1.509  10.138  0.2292 -0.3231 -0.1480
    2SAPS   H5R  178   5.906   1.404  10.135 -0.3036 -0.4998  0.2340
    2SAPS   C26  179   5.906   1.589  10.037  0.5675  0.4065 -0.4092
    2SAPS   H6R  180   5.943   1.544   9.944  0.5906  1.8269 -1.1273
    2SAPS   C27  181   5.882   1.737  10.034  0.3621 -0.1902 -0.3016
    2SAPS   H7R  182   5.975   1.795  10.015  0.4016 -0.5181 -1.1846
    2SAPS   H7S  183   5.849   1.770  10.134  2.4361  0.9225  0.0650
    2SAPS   C28  184   5.763   1.772   9.942  0.0112  0.3247  0.0390
    2SAPS   H8R  185   5.691   1.695   9.912 -0.2315  0.5655  0.0034
    2SAPS   C29  186   5.742   1.899   9.905 -1.1916  0.3645 -0.2908
    2SAPS   H9R  187   5.657   1.918   9.838  0.6496  2.5966 -2.1676
    2SAPS  C210  188   5.827   2.025   9.941  0.3316  0.0971 -0.0332
    2SAPS  H10R  189   5.936   2.008   9.928  0.2103  0.0361 -0.9832
    2SAPS  H10S  190   5.814   2.052  10.048 -0.6094  2.7045 -0.7439
    2SAPS  C211  191   5.786   2.152   9.877 -0.1858 -0.8060  0.3333
    2SAPS  H11R  192   5.756   2.235   9.942  0.8025 -0.8376  0.8466
    2SAPS  C212  193   5.797   2.175   9.745  0.1789 -0.0221  0.2673
    2SAPS  H12R  194   5.782   2.281   9.720 -0.0185  0.4176  2.1022
    2SAPS  C213  195   5.851   2.083   9.642  0.3389 -0.8763 -0.2560
    2SAPS  H13R  196   5.761   2.052   9.585 -1.2904  3.2226 -0.2002
    2SAPS  H13S  197   5.912   1.994   9.671  1.4064 -0.9694 -2.4971
    2SAPS  C214  198   5.939   2.154   9.542 -0.4090  0.0199 -0.6550
    2SAPS  H14R  199   6.002   2.230   9.590 -1.3589  0.5880 -0.2845
    2SAPS  C215  200   5.942   2.147   9.410  0.1277  0.6350  0.8434
    2SAPS  H15R  201   6.012   2.218   9.362 -0.3477  1.9958  2.0987
    2SAPS  C216  202   5.859   2.057   9.319  1.1004 -0.1853 -0.3308
    2SAPS  H16R  203   5.806   2.123   9.247  0.0583 -0.7151 -0.0528
    2SAPS  H16S  204   5.788   2.002   9.384  1.5004 -0.8164 -0.4263
    2SAPS  C217  205   5.959   1.963   9.249  0.1344  0.3749  0.5093
    2SAPS  H17R  206   6.017   1.896   9.316  0.0900 -1.0481 -0.8401
    2SAPS  H17S  207   6.038   2.020   9.196  0.1786 -1.4012 -1.4605
    2SAPS  C218  208   5.890   1.878   9.141  0.3682  0.3051  0.2741
    2SAPS  H18R  209   5.852   1.936   9.054 -3.8364 -3.1888 -0.6202
    2SAPS  H18S  210   5.803   1.820   9.179 -0.4050 -0.0973 -1.9542
    2SAPS  C219  211   5.975   1.775   9.083 -0.0143 -0.4496  1.2017
    2SAPS  H19R  212   6.008   1.705   9.163  1.5866  0.8425  1.7054
    2SAPS  H19S  213   6.057   1.831   9.034  1.5370  0.3318  4.3882
    2SAPS  C220  214   5.902   1.692   8.975  0.6438  0.6504  0.1342
    2SAPS  H20R  215   5.873   1.747   8.883 -2.2733 -1.7488 -0.5566
    2SAPS  H20S  216   5.804   1.668   9.023  1.2364  2.6760  2.5627
    2SAPS  H20T  217   5.949   1.595   8.949 -0.2478  0.0875  0.5773
    2SAPS   C33  218   5.190   1.109  10.080  0.2725 -0.5615  1.0898
    2SAPS   H3X  219   5.112   1.043  10.122 -1.5448  0.4069 -0.6086
    2SAPS   H3Y  220   5.288   1.061  10.059 -0.5493 -1.7679 -0.1284
    2SAPS   C34  221   5.127   1.149   9.945 -0.1599 -0.5538 -0.4637
    2SAPS   H4X  222   5.176   1.238   9.900 -0.3143  0.2334  0.8827
    2SAPS   H4Y  223   5.021   1.177   9.960  0.0407  1.2554 -2.0714
    2SAPS   C35  224   5.140   1.036   9.839  0.5328 -0.2367 -0.3433
    2SAPS   H5X  225   5.065   0.955   9.851 -1.3002  1.1354 -2.0981
    2SAPS   H5Y  226   5.243   0.995   9.841  0.5419 -0.1911  0.2437
    2SAPS   C36  227   5.129   1.099   9.701 -0.3705 -0.2988  0.5145
    2SAPS   H6X  228   5.224   1.155   9.684 -1.5349  2.0050  1.1873
    2SAPS   H6Y  229   5.051   1.177   9.698 -0.9504 -0.9011 -0.6338
    2SAPS   C37  230   5.109   1.003   9.578  0.1040 -0.0386 -0.0401
    2SAPS   H7X  231   5.010   0.953   9.584 -0.2345  0.5637 -0.4779
    2SAPS   H7Y  232   5.194   0.932   9.585  0.5233  0.2980 -1.5078
    2SAPS   C38  233   5.123   1.088   9.455 -0.2422  0.1332  0.2925
    2SAPS   H8X  234   5.202   1.165   9.466 -2.5387  2.4161  2.2832
    2SAPS   H8Y  235   5.027   1.144   9.451  0.8879  2.2190  0.5266
    2SAPS   C39  236   5.145   1.005   9.331  0.0219  0.5461 -0.2844
    2SAPS   H9X  237   5.053   0.942   9.332  0.4311 -0.1298 -1.5965
    2SAPS   H9Y  238   5.238   0.945   9.322  0.3465  1.2708 -2.7804
    2SAPS  C310  239   5.144   1.094   9.207 -0.1818  0.0186  0.3624
    2SAPS  H10X  240   5.236   1.157   9.209  0.4945 -0.9029 -0.5445
    2SAPS  H10Y  241   5.050   1.154   9.204  1.3526  2.5715 -1.8749
    2SAPS  C311  242   5.141   1.006   9.085 -0.3808 -0.2741 -0.6493
    2SAPS  H11X  243   5.038   0.966   9.083 -0.3306 -0.4051 -0.6235
    2SAPS  H11Y  244   5.218   0.926   9.095  0.6220  0.7832  0.4579
    2SAPS  C312  245   5.168   1.099   8.963  0.3972 -0.7704  0.0609
    2SAPS  H12X  246   5.273   1.131   8.980  0.4352 -1.4623  1.2070
    2SAPS  H12Y  247   5.103   1.188   8.971  2.5433  1.1571 -2.1912
    2SAPS  C313  248   5.151   1.030   8.830 -0.7378 -0.0287  0.3832
    2SAPS  H13X  249   5.043   1.003   8.825 -0.5841 -0.9230  1.4740
    2SAPS  H13Y  250   5.217   0.941   8.817 -0.1474  0.1555  1.9148
    2SAPS  C314  251   5.179   1.129   8.716 -0.3770  0.4121  0.5813
    2SAPS  H14X  252   5.277   1.181   8.723 -0.1626  0.2920 -1.1183
    2SAPS  H14Y  253   5.106   1.213   8.715  0.0736  0.8242  1.4779
    2SAPS  C315  254   5.176   1.057   8.574 -0.3259 -0.5714  0.6070
    2SAPS  H15X  255   5.072   1.020   8.562 -0.6863  0.5772 -0.0207
    2SAPS  H15Y  256   5.254   0.979   8.565  0.2873  0.1829 -0.9292
    2SAPS  C316  257   5.193   1.142   8.448  0.7502 -0.3136  0.8626
    2SAPS  H16X  258   5.297   1.181   8.434  0.5122 -0.1087 -0.4882
    2SAPS  H16Y  259   5.121   1.226   8.449  1.3572  0.2216  0.5403
    2SAPS  C317  260   5.146   1.072   8.314  0.2120 -0.1926 -0.3800
    2SAPS  H17X  261   5.046   1.032   8.341 -0.5123  1.8815  0.1972
    2SAPS  H17Y  262   5.203   0.983   8.279  0.9562  0.3239 -0.5121
    2SAPS  C318  263   5.123   1.161   8.193 -0.0048  0.1666 -0.2536
    2SAPS  H18X  264   5.222   1.188   8.150  0.0842 -1.6322 -1.3182
    2SAPS  H18Y  265   5.057   1.248   8.215 -1.5131 -1.5002  2.4531
    2SAPS  H18Z  266   5.077   1.090   8.121  0.5913 -0.9561  0.4415
    3SAPS     N  267   6.698   5.034  10.904  0.3113 -0.1797 -0.6345
    3SAPS   HN1  268   6.616   5.097  10.913  1.9861  2.4181 -2.2287
    3SAPS   HN2  269   6.694   4.988  10.811 -1.1933 -0.0092 -0.6777
    3SAPS   HN3  270   6.682   4.963  10.978 -2.2398  0.4121 -0.5294
    3SAPS   C12  271   6.829   5.095  10.925  0.6609 -0.2373  0.1879
    3SAPS  H12A  272   6.823   5.142  11.021 -2.2802  0.1798 -0.0846
    3SAPS   C13  273   6.945   4.998  10.951  0.4668 -0.4371  0.2835
    3SAPS  O13A  274   6.923   4.872  10.959 -0.0252  0.0313  0.2685
    3SAPS  O13B  275   7.063   5.042  10.935  0.9048 -0.2163  0.3540
    3SAPS   C11  276   6.864   5.189  10.808 -0.1433  0.4033 -0.3416
    3SAPS  H11A  277   6.902   5.123  10.727  1.8986 -1.0842  1.7113
    3SAPS  H11B  278   6.953   5.250  10.834 -0.0319  0.9675 -1.8882
    3SAPS     P  279   6.699   5.293  10.629 -0.3743 -0.5696  0.2717
    3SAPS   O13  280   6.639   5.163  10.598  0.3734 -0.0502 -0.0312
    3SAPS   O14  281   6.605   5.411  10.620  0.1741  0.0816  0.4767
    3SAPS   O12  282   6.767   5.284  10.767 -0.1327 -0.4231 -0.0048
    3SAPS   O11  283   6.808   5.314  10.509  0.2436 -0.0987 -0.2692
    3SAPS    C1  284   6.920   5.399  10.523 -0.3086  0.0801 -0.8314
    3SAPS    HA  285   6.891   5.504  10.547  2.8042  0.9790 -0.5800
    3SAPS    HB  286   6.982   5.368  10.609  0.5797  1.4499 -0.9424
    3SAPS    C2  287   7.014   5.393  10.399 -0.4876 -0.5861 -0.8051
    3SAPS    HS  288   7.090   5.472  10.413  2.4873 -3.6847  3.4879
    3SAPS   O21  289   6.943   5.421  10.280 -0.2941  0.0342  0.1650
    3SAPS   C21  290   6.930   5.552  10.252  0.1255 -0.1084  0.0122
    3SAPS   O22  291   6.966   5.647  10.323 -0.1464  0.4201 -0.6873
    3SAPS   C22  292   6.862   5.561  10.116 -0.1922  0.0594  0.7416
    3SAPS   H2R  293   6.941   5.592  10.044 -1.3000  0.5791 -0.2836
    3SAPS   H2S  294   6.837   5.457  10.085  2.1585 -0.2093 -0.4845
    3SAPS    C3  295   7.090   5.250  10.392 -0.4362 -0.5405 -0.3591
    3SAPS    HX  296   7.020   5.167  10.418 -0.4149 -0.0005  1.5579
    3SAPS    HY  297   7.170   5.251  10.469 -1.7613  0.8722  1.0694
    3SAPS   O31  298   7.157   5.236  10.266  0.8763  0.5130  0.1816
    3SAPS   C31  299   7.081   5.167  10.176 -0.3821  0.4754  0.0603
    3SAPS   O32  300   6.977   5.108  10.205  0.8732 -0.3377  0.0172
    3SAPS   C32  301   7.139   5.183  10.037 -0.1833 -0.3802 -0.3924
    3SAPS   H2X  302   7.247   5.165  10.059  0.2482  2.1527 -0.1209
    3SAPS   H2Y  303   7.123   5.290  10.014  1.5180  0.2024  0.8926
    3SAPS   C23  304   6.746   5.655  10.119  1.1340 -0.3984 -0.2966
    3SAPS   H3R  305   6.779   5.759  10.137 -2.6831  0.9977 -0.5075
    3SAPS   H3S  306   6.669   5.631  10.195 -2.1147 -1.5883 -3.6864
    3SAPS   C24  307   6.665   5.658   9.987  0.0765 -0.4449 -0.3960
    3SAPS   H4R  308   6.579   5.728   9.994  1.1198  1.2962 -3.2175
    3SAPS   H4S  309   6.622   5.559   9.962  2.6689 -1.8169  0.2752
    3SAPS   C25  310   6.754   5.716   9.878 -0.5395  0.7856 -0.2260
    3SAPS   H5R  311   6.814   5.802   9.910 -0.5710  0.8609 -0.3713
    3SAPS   C26  312   6.758   5.680   9.748  0.6922 -0.0181  0.7586
    3SAPS   H6R  313   6.830   5.730   9.682  0.9329 -2.4446 -0.9230
    3SAPS   C27  314   6.693   5.569   9.668 -0.3854  0.2619 -0.1865
    3SAPS   H7R  315   6.692   5.598   9.561  2.5099  2.1306  0.1920
    3SAPS   H7S  316   6.588   5.545   9.697 -0.3306  2.2533  1.9802
    3SAPS   C28  317   6.764   5.436   9.691  0.2843  1.0867  0.1270
    3SAPS   H8R  318   6.788   5.410   9.796  1.0822 -0.5515 -0.4221
    3SAPS   C29  319   6.782   5.330   9.610 -0.2994  0.6372 -0.3750
    3SAPS   H9R  320   6.823   5.241   9.658 -1.1510  2.0648  3.3522
    3SAPS  C210  321   6.738   5.318   9.462 -0.1943  0.5777 -0.1625
    3SAPS  H10R  322   6.653   5.386   9.438  0.4201  1.3602 -0.1937
    3SAPS  H10S  323   6.693   5.217   9.462 -1.0025  0.8038  3.4676
    3SAPS  C211  324   6.839   5.325   9.358 -0.5321 -0.7724  0.1037
    3SAPS  H11R  325   6.942   5.323   9.397 -1.1555 -1.1636  1.8376
    3SAPS  C212  326   6.825   5.358   9.227 -0.2862 -0.6105  0.3878
    3SAPS  H12R  327   6.917   5.361   9.167 -0.5467  1.1509  0.0313
    3SAPS  C213  328   6.695   5.400   9.159  0.3469 -0.1299 -0.4689
    3SAPS  H13R  329   6.716   5.488   9.094  0.2488 -0.9692 -1.6692
    3SAPS  H13S  330   6.617   5.423   9.234 -0.4735  1.0062 -1.6415
    3SAPS  C214  331   6.652   5.282   9.071  0.0172 -0.3715  0.2651
    3SAPS  H14R  332   6.614   5.193   9.123 -0.2732  0.0893  0.8477
    3SAPS  C215  333   6.648   5.274   8.935  0.1973 -0.6089 -0.2932
    3SAPS  H15R  334   6.617   5.178   8.890  1.0452 -1.4017  0.7539
    3SAPS  C216  335   6.686   5.392   8.849  0.2896  0.4394  0.2292
    3SAPS  H16R  336   6.696   5.349   8.747 -0.9951 -1.7589  0.9484
    3SAPS  H16S  337   6.789   5.422   8.875  0.2693 -0.6041  1.6312
    3SAPS  C217  338   6.581   5.509   8.836  0.0860  0.5262  0.4614
    3SAPS  H17R  339   6.578   5.569   8.929 -0.2009  0.1798  0.6774
    3SAPS  H17S  340   6.481   5.465   8.818  0.2868  0.4439 -0.4863
    3SAPS  C218  341   6.626   5.599   8.727 -0.7849  0.0703 -0.3229
    3SAPS  H18R  342   6.550   5.676   8.703  0.2690  1.1541 -0.2867
    3SAPS  H18S  343   6.644   5.535   8.638  1.2262 -3.8738  2.6421
    3SAPS  C219  344   6.753   5.683   8.760  0.0963  0.0019  0.3028
    3SAPS  H19R  345   6.846   5.624   8.771  0.8560  0.9171 -0.9769
    3SAPS  H19S  346   6.721   5.720   8.860  1.5782  0.7381  0.5299
    3SAPS  C220  347   6.787   5.802   8.666  0.1984  0.0066  0.2386
    3SAPS  H20R  348   6.691   5.855   8.650  0.8887  1.2199  0.0182
    3SAPS  H20S  349   6.836   5.757   8.577  1.2564  2.5027 -0.5107
    3SAPS  H20T  350   6.848   5.873   8.725 -2.6921  2.1938  0.7921
    3SAPS   C33  351   7.095   5.077   9.935  0.0251  0.4999 -0.5332
    3SAPS   H3X  352   6.985   5.083   9.921 -0.6976 -0.5893  3.5310
    3SAPS   H3Y  353   7.127   4.978   9.975 -0.0247  1.0479  0.9229
    3SAPS   C34  354   7.145   5.110   9.796  0.1570 -0.3416  0.8204
    3SAPS   H4X  355   7.254   5.091   9.806 -0.0902 -1.8457  0.8535
    3SAPS   H4Y  356   7.120   5.217   9.780 -0.8401 -0.4350  1.6591
    3SAPS   C35  357   7.079   5.020   9.695 -0.5200 -0.0168  0.2965
    3SAPS   H5X  358   6.975   5.058   9.686 -0.7011 -0.6060 -0.1132
    3SAPS   H5Y  359   7.082   4.918   9.738  0.6292 -0.7743 -1.4912
    3SAPS   C36  360   7.141   5.019   9.556  0.9123  0.8358  0.5134
    3SAPS   H6X  361   7.234   4.959   9.570 -1.1122 -2.6474  0.1113
    3SAPS   H6Y  362   7.171   5.119   9.518 -0.9344  0.5605 -1.8422
    3SAPS   C37  363   7.050   4.962   9.447  0.1239  0.0619 -0.1546
    3SAPS   H7X  364   6.951   5.011   9.455 -0.5201 -1.2222  0.1142
    3SAPS   H7Y  365   7.021   4.858   9.474  1.1864 -0.1781  0.0863
    3SAPS   C38  366   7.109   4.968   9.306  0.0998 -0.1570 -0.3537
    3SAPS   H8X  367   7.060   4.884   9.253 -2.1971  2.3505 -2.4780
    3SAPS   H8Y  368   7.216   4.943   9.319  0.3739  0.2378 -1.6915
    3SAPS   C39  369   7.101   5.102   9.240  0.8015  0.0259  0.6895
    3SAPS   H9X  370   7.165   5.177   9.290 -0.9194  1.3799  0.9422
    3SAPS   H9Y  371   6.993   5.121   9.256  0.7683  0.3134  0.1721
    3SAPS  C310  372   7.129   5.089   9.090  0.0553  0.6263 -0.4707
    3SAPS  H10X  373   7.099   4.990   9.049 -0.5370 -0.2413  1.9325
    3SAPS  H10Y  374   7.240   5.089   9.084  0.0499  1.0153 -0.6146
    3SAPS  C311  375   7.080   5.204   9.005 -0.3358 -0.5879  0.3148
    3SAPS  H11X  376   7.112   5.297   9.056  1.7601 -1.3850  0.5501
    3SAPS  H11Y  377   6.969   5.210   8.994 -0.1074  2.7490 -1.8236
    3SAPS  C312  378   7.141   5.213   8.862  0.1406  0.2735  0.2067
    3SAPS  H12X  379   7.108   5.127   8.800 -0.5133  0.5068  0.2142
    3SAPS  H12Y  380   7.251   5.222   8.849  0.1018 -1.6729 -2.2786
    3SAPS  C313  381   7.081   5.335   8.786 -0.0094 -0.2364  0.9439
    3SAPS  H13X  382   7.111   5.431   8.832 -3.2645  1.3347  0.0857
    3SAPS  H13Y  383   6.970   5.324   8.784  0.0770 -2.4862  3.1120
    3SAPS  C314  384   7.130   5.344   8.643  0.0296 -0.3697 -0.3924
    3SAPS  H14X  385   7.101   5.258   8.579 -1.0706 -0.2170 -0.1019
    3SAPS  H14Y  386   7.240   5.359   8.655 -0.0978 -0.5366  1.1063
    3SAPS  C315  387   7.075   5.454   8.560  0.1684 -0.7941  0.3149
    3SAPS  H15X  388   7.081   5.553   8.610  2.3210  0.4303 -2.1561
    3SAPS  H15Y  389   6.965   5.441   8.545 -0.1386  0.3692  1.3377
    3SAPS  C316  390   7.143   5.463   8.423  0.0569 -0.7181  0.0335
    3SAPS  H16X  391   7.140   5.360   8.382  0.0574 -0.9258  0.5452
    3SAPS  H16Y  392   7.252   5.479   8.431 -0.0006  0.2213 -0.9185
    3SAPS  C317  393   7.081   5.555   8.320 -0.2665 -0.2872 -0.1948
    3SAPS  H17X  394   6.975   5.574   8.346 -0.6752  2.5594 -3.2064
    3SAPS  H17Y  395   7.076   5.500   8.224  0.6829 -0.5620 -0.0906
    3SAPS  C318  396   7.160   5.690   8.296 -0.4423 -0.1539  0.6186
    3SAPS  H18X  397   7.242   5.681   8.222 -0.6764  0.0926  0.3249
    3SAPS  H18Y  398   7.197   5.725   8.395  0.1340  0.4784  0.1848
    3SAPS  H18Z  399   7.085   5.761   8.254  0.9106  1.0256  0.1276
    4SAPS     N  400   1.706   0.284  11.004  0.3492 -0.0938 -0.0381
    4SAPS   HN1  401   1.770   0.343  10.947 -0.0131  0.1955 -0.1527
    4SAPS   HN2  402   1.608   0.305  10.978 -0.2261 -2.2910  0.1839
    4SAPS   HN3  403   1.711   0.298  11.107 -0.3825  1.1707 -0.1472
    4SAPS   C12  404   1.710   0.134  10.964 -0.4240 -0.3641  0.8964
    4SAPS  H12A  405   1.814   0.107  10.971  0.6755  2.9591 -0.4665
    4SAPS   C13  406   1.637   0.061  11.081  0.0929  0.7008  0.3155
    4SAPS  O13A  407   1.587   0.125  11.181  0.0925  1.0670 -0.5189
    4SAPS  O13B  408   1.622  -0.065  11.071  0.0173  0.6851  0.7014
    4SAPS   C11  409   1.640   0.128  10.825 -0.7273  0.2610  0.4872
    4SAPS  H11A  410   1.616   0.020  10.812  0.6635  0.1329 -1.4927
    4SAPS  H11B  411   1.711   0.146  10.742  1.0288  0.6711  2.0075
    4SAPS     P  412   1.383   0.161  10.765 -0.1374 -0.1375 -0.2889
    4SAPS   O13  413   1.343   0.029  10.811 -0.0906 -0.3819 -0.3547
    4SAPS   O14  414   1.278   0.261  10.784  0.4042  0.2921  0.1984
    4SAPS   O12  415   1.520   0.204  10.825  0.2658 -0.0910  0.1613
    4SAPS   O11  416   1.427   0.145  10.616  0.1886 -0.1968 -0.5227
    4SAPS    C1  417   1.342   0.152  10.505  0.1337  0.0431  0.5338
    4SAPS    HA  418   1.266   0.232  10.523 -0.9834 -1.2127  1.6980
    4SAPS    HB  419   1.407   0.172  10.418 -0.2919 -2.3833 -0.4031
    4SAPS    C2  420   1.263   0.017  10.487 -0.9383 -0.0342  0.2508
    4SAPS    HS  421   1.235  -0.014  10.589 -1.8319  1.3173  0.4292
    4SAPS   O21  422   1.353  -0.077  10.420  0.6219 -0.4315 -0.9161
    4SAPS   C21  423   1.343  -0.204  10.461 -0.8872  0.3442  0.5253
    4SAPS   O22  424   1.261  -0.243  10.542 -0.3680 -0.5855  0.5999
    4SAPS   C22  425   1.461  -0.281  10.397 -0.1125  0.1607 -0.1073
    4SAPS   H2R  426   1.538  -0.227  10.338 -0.8002  0.9499 -0.2993
    4SAPS   H2S  427   1.517  -0.324  10.483  1.1651  2.3607  0.2206
    4SAPS    C3  428   1.140   0.032  10.398 -0.5613 -0.4707  0.3808
    4SAPS    HX  429   1.181   0.046  10.296 -1.5752 -2.2809 -0.3155
    4SAPS    HY  430   1.084   0.126  10.417 -2.3340 -1.1361 -1.2197
    4SAPS   O31  431   1.053  -0.085  10.393 -0.2269  0.1522 -0.5226
    4SAPS   C31  432   0.960  -0.086  10.489 -0.2153 -0.2651  0.2853
    4SAPS   O32  433   0.949   0.006  10.573  0.1785 -0.3156  0.5506
    4SAPS   C32  434   0.877  -0.214  10.484  0.8314  0.4233 -0.0422
    4SAPS   H2X  435   0.789  -0.191  10.548 -1.1883  0.7094 -2.7266
    4SAPS   H2Y  436   0.925  -0.301  10.533  1.4295  0.1365 -1.1024
    4SAPS   C23  437   1.403  -0.392  10.310  0.6853  0.3969 -0.2690
    4SAPS   H3R  438   1.337  -0.465  10.362  0.4822  1.5752  1.1706
    4SAPS   H3S  439   1.483  -0.466  10.289 -0.6453 -0.7507 -1.6164
    4SAPS   C24  440   1.337  -0.345  10.177  0.4129 -0.1179 -0.4722
    4SAPS   H4R  441   1.420  -0.295  10.121  0.8055 -0.0048  0.2081
    4SAPS   H4S  442   1.266  -0.263  10.204  0.1654 -0.3473 -0.4203
    4SAPS   C25  443   1.266  -0.455  10.106  0.1509 -0.6656  0.9396
    4SAPS   H5R  444   1.177  -0.503  10.149 -0.2532 -3.2497 -2.3960
    4SAPS   C26  445   1.297  -0.502   9.988  0.4949  0.4721  0.1558
    4SAPS   H6R  446   1.225  -0.569   9.938  0.5077  1.7510 -1.6647
    4SAPS   C27  447   1.410  -0.461   9.897 -0.4224 -0.7117 -0.3196
    4SAPS   H7R  448   1.461  -0.558   9.879  0.1694 -0.4280 -0.1762
    4SAPS   H7S  449   1.476  -0.385   9.944 -0.2379  0.1527 -1.9139
    4SAPS   C28  450   1.351  -0.391   9.781 -0.0008  0.1606  0.8810
    4SAPS   H8R  451   1.369  -0.283   9.791  2.3669 -0.3661  3.6922
    4SAPS   C29  452   1.322  -0.444   9.656 -0.0924  0.0360  0.3381
    4SAPS   H9R  453   1.284  -0.377   9.578 -1.4281 -0.7793  0.2636
    4SAPS  C210  454   1.338  -0.594   9.627 -0.4981 -0.5103 -0.3302
    4SAPS  H10R  455   1.278  -0.612   9.535 -0.1507 -0.3647 -0.5850
    4SAPS  H10S  456   1.292  -0.663   9.701  2.0732 -2.0646 -0.0667
    4SAPS  C211  457   1.485  -0.629   9.617 -0.0420  0.1336  0.0217
    4SAPS  H11R  458   1.531  -0.669   9.709  2.0518 -1.0391 -1.4610
    4SAPS  C212  459   1.561  -0.621   9.505  0.1515  0.8727  0.0476
    4SAPS  H12R  460   1.669  -0.638   9.520 -0.5578 -2.6259  2.2283
    4SAPS  C213  461   1.535  -0.564   9.370  0.1520 -0.3468  0.9406
    4SAPS  H13R  462   1.623  -0.515   9.324 -1.0693 -1.2612 -2.7668
    4SAPS  H13S  463   1.469  -0.475   9.384  0.7989  0.3522 -0.2603
    4SAPS  C214  464   1.472  -0.661   9.267  0.2289  0.3408 -0.2070
    4SAPS  H14R  465   1.451  -0.759   9.312  1.5793 -0.4469 -1.2209
    4SAPS  C215  466   1.449  -0.651   9.139 -0.3035 -0.3447  0.0081
    4SAPS  H15R  467   1.400  -0.733   9.083 -3.0027  1.1042  0.1164
    4SAPS  C216  468   1.487  -0.523   9.061 -0.1170 -0.3572 -0.2684
    4SAPS  H16R  469   1.572  -0.542   8.993  1.2030 -6.1822  2.4352
    4SAPS  H16S  470   1.532  -0.450   9.132 -0.0291  1.0767 -1.7370
    4SAPS  C217  471   1.379  -0.437   8.992 -0.0788  0.1299 -0.3453
    4SAPS  H17R  472   1.429  -0.341   8.967 -1.1240  1.1611  1.3159
    4SAPS  H17S  473   1.314  -0.398   9.073  0.8075 -0.0189  0.4649
    4SAPS  C218  474   1.321  -0.524   8.880  0.2829 -0.3639  0.4369
    4SAPS  H18R  475   1.263  -0.605   8.929  1.5281 -0.7751  1.2969
    4SAPS  H18S  476   1.407  -0.564   8.822 -0.4522 -0.2928 -0.7442
    4SAPS  C219  477   1.226  -0.447   8.789  0.2421 -0.4337 -1.0578
    4SAPS  H19R  478   1.277  -0.356   8.751  2.0361 -1.9027 -2.2905
    4SAPS  H19S  479   1.144  -0.406   8.853 -0.0448 -0.9660 -1.0779
    4SAPS  C220  480   1.162  -0.530   8.676  0.0306  0.1564 -0.1436
    4SAPS  H20R  481   1.122  -0.462   8.598  0.0679 -0.0519 -0.3451
    4SAPS  H20S  482   1.077  -0.586   8.720  0.6953  0.6275  1.8471
    4SAPS  H20T  483   1.245  -0.593   8.637 -1.3477 -1.1941 -1.0039
    4SAPS   C33  484   0.804  -0.250  10.350 -1.0554 -0.6962 -0.3866
    4SAPS   H3X  485   0.752  -0.161  10.308  1.1486  1.3051  0.8739
    4SAPS   H3Y  486   0.733  -0.328  10.386  0.5594 -0.6382  3.4428
    4SAPS   C34  487   0.898  -0.308  10.237 -0.3237  0.5680 -0.1244
    4SAPS   H4X  488   0.925  -0.414  10.260  0.0130  0.7842  0.4871
    4SAPS   H4Y  489   0.994  -0.255  10.249  0.5205 -1.0626  0.7958
    4SAPS   C35  490   0.847  -0.283  10.104  0.6366  0.1002 -0.5175
    4SAPS   H5X  491   0.824  -0.176  10.086 -3.8264 -0.7651 -1.1335
    4SAPS   H5Y  492   0.751  -0.337  10.088 -0.4121  2.1770 -1.6974
    4SAPS   C36  493   0.937  -0.336   9.996 -0.4722  0.0805 -0.3413
    4SAPS   H6X  494   0.962  -0.442  10.020 -2.5580 -0.3790  0.0005
    4SAPS   H6Y  495   1.032  -0.279   9.994 -0.2887 -0.0790  1.4323
    4SAPS   C37  496   0.869  -0.353   9.863  0.7181  0.1161  0.4363
    4SAPS   H7X  497   0.829  -0.251   9.840 -2.3772 -0.8943  0.8066
    4SAPS   H7Y  498   0.781  -0.419   9.878  0.7988  0.0192  0.4786
    4SAPS   C38  499   0.963  -0.421   9.764 -0.2039  0.1257 -0.3698
    4SAPS   H8X  500   1.009  -0.507   9.816 -0.0930 -0.2034 -0.9933
    4SAPS   H8Y  501   1.042  -0.343   9.759 -0.0411 -0.0278 -0.2088
    4SAPS   C39  502   0.916  -0.457   9.621 -0.1149  0.4515 -0.5992
    4SAPS   H9X  503   0.820  -0.511   9.633 -0.3892  0.8937 -0.7574
    4SAPS   H9Y  504   0.991  -0.515   9.562  0.8326 -0.4680  1.4291
    4SAPS  C310  505   0.884  -0.330   9.531 -0.4904  0.3831 -0.2018
    4SAPS  H10X  506   0.984  -0.291   9.503 -0.7422 -0.5022 -2.5136
    4SAPS  H10Y  507   0.827  -0.253   9.587 -0.1717  0.2648  0.2936
    4SAPS  C311  508   0.802  -0.365   9.409  0.4263 -0.3297  0.6706
    4SAPS  H11X  509   0.733  -0.280   9.388  0.7415 -0.7038 -2.3503
    4SAPS  H11Y  510   0.741  -0.456   9.426 -1.2649  0.4243 -0.9413
    4SAPS  C312  511   0.893  -0.399   9.292  0.4064 -0.0536 -0.0737
    4SAPS  H12X  512   0.952  -0.491   9.313 -1.8193 -1.3553  0.8038
    4SAPS  H12Y  513   0.961  -0.314   9.272  0.1823  0.0335 -0.4628
    4SAPS  C313  514   0.818  -0.418   9.162  0.3634  0.2003  0.2057
    4SAPS  H13X  515   0.768  -0.325   9.127 -2.4002 -1.1676  0.1831
    4SAPS  H13Y  516   0.731  -0.485   9.179 -0.1499  1.2718  2.0711
    4SAPS  C314  517   0.900  -0.489   9.046 -0.1607  0.0496 -0.0639
    4SAPS  H14X  518   0.916  -0.590   9.089  1.5172  0.8134  1.2609
    4SAPS  H14Y  519   1.000  -0.447   9.020  0.0486 -0.0752  0.5100
    4SAPS  C315  520   0.824  -0.523   8.920 -0.0023  0.3562  0.0697
    4SAPS  H15X  521   0.744  -0.593   8.952 -0.7130  0.8897 -0.5085
    4SAPS  H15Y  522   0.881  -0.590   8.852  0.7523 -0.3897  1.4009
    4SAPS  C316  523   0.784  -0.403   8.837 -0.4737  0.6548  0.3540
    4SAPS  H16X  524   0.873  -0.336   8.844  0.2161 -0.3136  1.1924
    4SAPS  H16Y  525   0.708  -0.341   8.889  1.5931  1.5393  2.5479
    4SAPS  C317  526   0.747  -0.438   8.697  0.1905 -0.5815 -0.2946
    4SAPS  H17X  527   0.636  -0.437   8.696  0.0971  0.6182  2.2362
    4SAPS  H17Y  528   0.778  -0.541   8.670 -0.2242 -0.3916 -1.5533
    4SAPS  C318  529   0.812  -0.354   8.586 -0.4417 -0.2328 -0.0782
    4SAPS  H18X  530   0.746  -0.276   8.542  1.1284  2.4361  1.9665
    4SAPS  H18Y  531   0.818  -0.413   8.492 -0.4821  1.7413 -1.3710
    4SAPS  H18Z  532   0.915  -0.316   8.603 -0.5069  0.1709 -0.5494
    5SAPS     N  533   0.100   4.681  10.767 -0.4672 -0.1171 -0.6643
    5SAPS   HN1  534   0.076   4.762  10.827 -0.8291  0.9901 -2.2482
    5SAPS   HN2  535   0.141   4.604  10.824 -1.8183 -0.2454  0.1825
    5SAPS   HN3  536   0.164   4.719  10.695  0.9994  1.4817  1.3549
    5SAPS   C12  537  -0.028   4.629  10.705  0.1531 -0.0927 -0.1403
    5SAPS  H12A  538  -0.085   4.575  10.779 -4.1990  2.2504 -1.4360
    5SAPS   C13  539  -0.126   4.748  10.664  0.0862  0.9858  0.1106
    5SAPS  O13A  540  -0.100   4.864  10.691  0.2553 -0.2203 -0.0864
    5SAPS  O13B  541  -0.232   4.713  10.606  0.3946 -0.4560  0.5542
    5SAPS   C11  542  -0.004   4.542  10.582 -0.3628  0.1061  0.2973
    5SAPS  H11A  543   0.014   4.604  10.491 -1.1468  3.0656  2.0166
    5SAPS  H11B  544  -0.099   4.487  10.567 -0.7542  0.2505  2.0298
    5SAPS     P  545   0.090   4.301  10.551  0.0275  0.0402 -0.2780
    5SAPS   O13  546   0.207   4.227  10.598 -0.1432  0.7145  0.0985
    5SAPS   O14  547  -0.042   4.247  10.596  0.1633  0.0817 -0.8929
    5SAPS   O12  548   0.106   4.450  10.600  0.1081 -0.4511 -0.0946
    5SAPS   O11  549   0.102   4.308  10.394  0.2331 -0.0421  0.5631
    5SAPS    C1  550   0.212   4.390  10.335 -0.1707  0.4861  0.5126
    5SAPS    HA  551   0.217   4.490  10.383 -0.5051  0.4986  0.5194
    5SAPS    HB  552   0.311   4.339  10.347 -1.2979 -2.1049 -0.4040
    5SAPS    C2  553   0.210   4.403  10.175  0.4124  0.2785  0.5781
    5SAPS    HS  554   0.308   4.442  10.139  0.7650 -0.4708  0.7201
    5SAPS   O21  555   0.098   4.494  10.141  0.0803  0.2598 -0.0132
    5SAPS   C21  556   0.114   4.624  10.175  0.2480  0.0585 -0.9750
    5SAPS   O22  557   0.216   4.671  10.224 -0.1699  0.1939 -0.2617
    5SAPS   C22  558  -0.009   4.697  10.143  0.2559 -0.3029 -0.3052
    5SAPS   H2R  559  -0.090   4.621  10.136 -1.8539  1.8924 -1.5285
    5SAPS   H2S  560  -0.029   4.767  10.228 -0.0340 -0.4092 -0.2833
    5SAPS    C3  561   0.180   4.265  10.104  0.0731 -0.0172 -0.1418
    5SAPS    HX  562   0.109   4.209  10.167  0.7762 -0.3114  0.4054
    5SAPS    HY  563   0.278   4.215  10.119  1.2125  2.0605 -0.1844
    5SAPS   O31  564   0.147   4.277   9.966  0.8415 -0.6046 -0.0302
    5SAPS   C31  565   0.018   4.298   9.944 -0.2141  0.2549  0.3897
    5SAPS   O32  566  -0.069   4.289  10.024  0.9664  0.0736 -0.1727
    5SAPS   C32  567  -0.008   4.343   9.800 -0.3175  0.5464 -0.7732
    5SAPS   H2X  568   0.063   4.292   9.731 -0.6629  2.1853 -2.4056
    5SAPS   H2Y  569   0.013   4.452   9.797 -0.2006  0.5262 -0.7123
    5SAPS   C23  570  -0.006   4.797  10.024 -0.4248  0.7343 -0.1963
    5SAPS   H3R  571   0.022   4.734   9.937  0.6559 -1.2098  1.4712
    5SAPS   H3S  572   0.070   4.876  10.043 -0.9877  1.2822 -0.1912
    5SAPS   C24  573  -0.136   4.881  10.007 -0.2597 -0.0413  0.4495
    5SAPS   H4R  574  -0.152   4.944  10.097 -1.2880 -1.9610  1.6759
    5SAPS   H4S  575  -0.217   4.806   9.994 -1.9864  1.7711  0.3133
    5SAPS   C25  576  -0.137   4.971   9.882  0.3264  0.0049  0.2266
    5SAPS   H5R  577  -0.142   5.080   9.894  1.0580 -0.1662  2.4855
    5SAPS   C26  578  -0.143   4.934   9.755  0.3143 -0.2918 -0.3328
    5SAPS   H6R  579  -0.161   5.016   9.683 -0.0899 -0.0813  0.0065
    5SAPS   C27  580  -0.151   4.799   9.691 -0.6237  0.2073 -0.6069
    5SAPS   H7R  581  -0.178   4.727   9.772 -0.1418 -0.3723 -0.9532
    5SAPS   H7S  582  -0.046   4.768   9.675 -0.3940  0.0368  1.0879
    5SAPS   C28  583  -0.242   4.793   9.574  0.4561  0.7677  0.7485
    5SAPS   H8R  584  -0.347   4.794   9.604  0.2728  2.4476  0.1350
    5SAPS   C29  585  -0.214   4.786   9.444 -0.0839  0.1075 -0.4123
    5SAPS   H9R  586  -0.306   4.759   9.389 -0.3710 -2.4385  1.1367
    5SAPS  C210  587  -0.077   4.792   9.378  0.1760 -0.3896 -0.0533
    5SAPS  H10R  588  -0.064   4.700   9.315 -1.5409  0.3273 -1.5598
    5SAPS  H10S  589  -0.008   4.794   9.464 -2.0442 -0.7850  1.8452
    5SAPS  C211  590  -0.083   4.917   9.302  0.0270 -0.2112  0.2205
    5SAPS  H11R  591  -0.071   5.007   9.365 -1.5602  0.5597 -0.5180
    5SAPS  C212  592  -0.088   4.935   9.169 -0.1898  0.2680  0.2564
    5SAPS  H12R  593  -0.076   5.038   9.134 -0.4186 -0.1079 -0.9903
    5SAPS  C213  594  -0.099   4.831   9.060 -0.2695  0.5427 -0.0857
    5SAPS  H13R  595  -0.149   4.877   8.972 -1.2827  0.1501  0.2633
    5SAPS  H13S  596  -0.169   4.752   9.095  0.2561  0.9604  2.0730
    5SAPS  C214  597   0.042   4.773   9.038  0.1983  0.2635 -0.7718
    5SAPS  H14R  598   0.084   4.709   9.117  0.0786  1.1713  0.0507
    5SAPS  C215  599   0.128   4.782   8.934  0.2127  0.7617  0.1673
    5SAPS  H15R  600   0.230   4.741   8.934  0.0101  0.1397  2.1496
    5SAPS  C216  601   0.079   4.846   8.807  0.8515 -0.1294 -0.3774
    5SAPS  H16R  602   0.172   4.870   8.751  1.5952 -1.4192  0.2709
    5SAPS  H16S  603   0.017   4.937   8.822  1.2961  0.0927  0.1858
    5SAPS  C217  604   0.002   4.754   8.714  0.5299 -0.0257  0.0510
    5SAPS  H17R  605  -0.073   4.697   8.774  1.9274 -0.0542  1.8687
    5SAPS  H17S  606   0.068   4.679   8.668 -1.1645 -1.4683 -0.1378
    5SAPS  C218  607  -0.087   4.834   8.620 -0.2015  0.1956  0.7371
    5SAPS  H18R  608  -0.139   4.915   8.676 -0.4563  0.5883 -0.0430
    5SAPS  H18S  609  -0.009   4.883   8.558 -0.7242 -0.1201 -0.2040
    5SAPS  C219  610  -0.203   4.766   8.543  0.1911 -0.3267  0.3088
    5SAPS  H19R  611  -0.240   4.822   8.454  3.0750  0.9576 -0.1935
    5SAPS  H19S  612  -0.279   4.765   8.623  3.1418  1.3665  3.3748
    5SAPS  C220  613  -0.191   4.621   8.494  0.7942 -0.2832 -0.4549
    5SAPS  H20R  614  -0.282   4.570   8.457  0.0283 -1.0992  2.3400
    5SAPS  H20S  615  -0.152   4.560   8.578 -0.2989 -0.4459 -0.0525
    5SAPS  H20T  616  -0.115   4.625   8.413  1.3481  2.2542  0.0990
    5SAPS   C33  617  -0.155   4.320   9.744 -0.5190  0.0258  0.4169
    5SAPS   H3X  618  -0.238   4.340   9.815 -0.3826  1.0652  0.2970
    5SAPS   H3Y  619  -0.164   4.211   9.723 -1.8456  0.3782 -1.1090
    5SAPS   C34  620  -0.179   4.384   9.599  0.3963 -0.3399  0.3000
    5SAPS   H4X  621  -0.153   4.492   9.593 -0.1346 -0.2627 -0.8929
    5SAPS   H4Y  622  -0.287   4.369   9.575 -0.1281 -0.1290  2.3346
    5SAPS   C35  623  -0.084   4.321   9.489  0.6840 -0.0830  0.4532
    5SAPS   H5X  624  -0.106   4.212   9.488 -0.4575  0.1313 -0.7142
    5SAPS   H5Y  625   0.020   4.337   9.527  0.5524  0.9041  0.4094
    5SAPS   C36  626  -0.103   4.378   9.349 -0.0451 -0.5511 -0.7000
    5SAPS   H6X  627  -0.103   4.489   9.354 -2.9312 -0.3577 -2.5604
    5SAPS   H6Y  628  -0.206   4.358   9.312 -1.0413  2.4720  0.1628
    5SAPS   C37  629   0.000   4.322   9.249 -0.0311  0.0148  0.4344
    5SAPS   H7X  630   0.000   4.211   9.246  0.9501  0.0200 -2.2141
    5SAPS   H7Y  631   0.104   4.345   9.283  0.6062 -2.3858  0.2581
    5SAPS   C38  632  -0.031   4.375   9.114 -0.1697  0.2569 -0.0459
    5SAPS   H8X  633  -0.025   4.486   9.125 -1.0171  0.1457  2.0405
    5SAPS   H8Y  634  -0.135   4.348   9.087  0.0544  0.0904 -0.7787
    5SAPS   C39  635   0.067   4.322   9.005 -0.2278  0.1136 -0.5640
    5SAPS   H9X  636   0.077   4.212   9.014 -0.8292 -0.1016 -2.2581
    5SAPS   H9Y  637   0.166   4.370   9.018 -0.1812  0.2561 -1.3821
    5SAPS  C310  638   0.032   4.358   8.861 -0.0732 -0.1631  0.1454
    5SAPS  H10X  639   0.131   4.360   8.811  0.6171 -0.0621  1.4639
    5SAPS  H10Y  640  -0.027   4.451   8.876  0.9749  0.2723  1.9680
    5SAPS  C311  641  -0.046   4.249   8.786 -0.3782 -0.2284 -0.4423
    5SAPS  H11X  642  -0.128   4.213   8.852 -0.4659 -0.2809 -0.5774
    5SAPS  H11Y  643   0.026   4.167   8.767 -0.3170 -0.5827  1.2535
    5SAPS  C312  644  -0.093   4.302   8.648  0.0949  0.0909 -0.9403
    5SAPS  H12X  645  -0.002   4.346   8.601  2.3243 -0.4361  2.5369
    5SAPS  H12Y  646  -0.172   4.377   8.668  0.3168  0.5591 -1.7652
    5SAPS  C313  647  -0.147   4.185   8.560  0.0644  0.2156  0.1023
    5SAPS  H13X  648  -0.077   4.100   8.547  0.7573  1.0402 -2.0828
    5SAPS  H13Y  649  -0.181   4.226   8.462 -0.1009 -1.0817 -0.4069
    5SAPS  C314  650  -0.267   4.116   8.617  0.2771 -0.2241  0.4246
    5SAPS  H14X  651  -0.357   4.178   8.600 -0.0665 -0.8385 -0.0551
    5SAPS  H14Y  652  -0.255   4.121   8.727 -0.8642 -0.4337  0.5644
    5SAPS  C315  653  -0.295   3.976   8.552  0.3127 -0.4940 -0.3372
    5SAPS  H15X  654  -0.219   3.901   8.580  0.8124  1.0712  3.1730
    5SAPS  H15Y  655  -0.308   3.987   8.443 -2.9304 -1.0877 -0.1164
    5SAPS  C316  656  -0.426   3.927   8.591  0.3640 -0.0775 -0.6749
    5SAPS  H16X  657  -0.502   3.999   8.554 -0.3536  0.0246  0.8921
    5SAPS  H16Y  658  -0.440   3.945   8.700 -0.2456 -1.6234 -0.4663
    5SAPS  C317  659  -0.446   3.782   8.554  0.4489 -0.9615 -0.4846
    5SAPS  H17X  660  -0.557   3.771   8.554  0.4059 -0.5895 -1.3273
    5SAPS  H17Y  661  -0.407   3.714   8.632 -1.4358 -2.7758 -1.0256
    5SAPS  C318  662  -0.389   3.731   8.426 -0.5940  0.6556 -0.7811
    5SAPS  H18X  663  -0.279   3.727   8.443 -0.6942 -0.6295 -0.3220
    5SAPS  H18Y  664  -0.411   3.800   8.342  3.0613  0.9581 -1.6578
    5SAPS  H18Z  665  -0.414   3.627   8.396  1.4520  0.1087 -0.7187
    6SAPS     N  666   4.599   2.981  10.648 -0.6230  0.6351 -0.2871
    6SAPS   HN1  667   4.633   2.995  10.551  0.8832 -2.7368 -0.4071
    6SAPS   HN2  668   4.591   2.878  10.664  1.3185  0.4010 -0.6096
    6SAPS   HN3  669   4.510   3.033  10.661 -1.9872 -1.3473 -1.1193
    6SAPS   C12  670   4.695   3.054  10.741 -0.9346 -0.2321 -0.6496
    6SAPS  H12A  671   4.659   3.155  10.725  1.0357  0.8485  1.2146
    6SAPS   C13  672   4.691   3.025  10.893  0.6166  0.6360  0.2986
    6SAPS  O13A  673   4.619   2.928  10.936  0.1669  0.3000  0.2044
    6SAPS  O13B  674   4.768   3.082  10.971  0.4370 -0.7329  0.2858
    6SAPS   C11  675   4.837   3.030  10.698 -0.8857  0.4354  0.2321
    6SAPS  H11A  676   4.865   2.923  10.710  0.2552  0.9010  2.0007
    6SAPS  H11B  677   4.910   3.089  10.756 -0.6244  0.1040  0.2405
    6SAPS     P  678   4.990   3.093  10.496  0.0799 -0.3405 -0.5219
    6SAPS   O13  679   5.024   3.235  10.521  0.1850  0.2780  0.2612
    6SAPS   O14  680   5.071   2.988  10.558 -0.4514  0.6254 -0.2103
    6SAPS   O12  681   4.849   3.073  10.560  0.2122  0.2799 -0.4867
    6SAPS   O11  682   4.972   3.064  10.346 -0.2127 -0.1702 -0.3712
    6SAPS    C1  683   4.871   2.990  10.291 -0.1357 -1.2089 -0.0533
    6SAPS    HA  684   4.908   2.922  10.211  1.1386 -1.3264  0.6094
    6SAPS    HB  685   4.820   2.929  10.368  1.9943  0.4800  2.8803
    6SAPS    C2  686   4.757   3.084  10.235 -1.0613 -0.2843  0.4659
    6SAPS    HS  687   4.725   3.138  10.327 -1.2825 -4.1769  2.8992
    6SAPS   O21  688   4.654   3.000  10.185  1.0349  0.0983 -0.6999
    6SAPS   C21  689   4.559   2.961  10.266 -0.2271  0.2722 -0.2009
    6SAPS   O22  690   4.564   2.974  10.387  0.6547 -0.2462  0.3324
    6SAPS   C22  691   4.446   2.889  10.198  0.1610 -0.4105  0.4062
    6SAPS   H2R  692   4.485   2.817  10.122 -0.3941 -1.4461  1.0698
    6SAPS   H2S  693   4.395   2.819  10.267  1.8952 -1.3864  0.7708
    6SAPS    C3  694   4.810   3.176  10.124  0.0202  0.0280 -0.2591
    6SAPS    HX  695   4.846   3.119  10.036 -1.2335  0.2689 -0.9482
    6SAPS    HY  696   4.892   3.232  10.175 -0.9095  0.2910  0.9936
    6SAPS   O31  697   4.708   3.269  10.080  0.0020 -0.6078  0.5209
    6SAPS   C31  698   4.728   3.391  10.088 -0.6872 -0.2772 -0.2475
    6SAPS   O32  699   4.829   3.437  10.139  0.8628  0.4769 -0.1887
    6SAPS   C32  700   4.627   3.476  10.010  0.9738 -0.2949 -0.2461
    6SAPS   H2X  701   4.610   3.568  10.069 -0.8434  0.7035 -2.2049
    6SAPS   H2Y  702   4.539   3.411   9.992  1.0437  0.3149 -3.3594
    6SAPS   C23  703   4.336   2.993  10.154 -0.0608 -0.5041 -0.2545
    6SAPS   H3R  704   4.297   3.045  10.245  1.5830 -1.0656  0.8193
    6SAPS   H3S  705   4.252   2.943  10.102  0.6568  0.6668 -2.6718
    6SAPS   C24  706   4.394   3.097  10.041 -0.2359  0.0511 -0.4441
    6SAPS   H4R  707   4.470   3.034   9.991  0.2276  0.8949 -0.8336
    6SAPS   H4S  708   4.465   3.168  10.089  0.5065 -0.2753 -1.0403
    6SAPS   C25  709   4.295   3.153   9.943 -0.3477  0.3780 -0.1942
    6SAPS   H5R  710   4.194   3.164   9.985 -1.0259 -1.2322 -1.2739
    6SAPS   C26  711   4.306   3.145   9.805  0.0469 -0.6249 -0.8287
    6SAPS   H6R  712   4.228   3.181   9.736 -0.9176 -4.0081 -1.7315
    6SAPS   C27  713   4.417   3.073   9.736  0.2969 -0.8287  0.1423
    6SAPS   H7R  714   4.375   3.049   9.636  0.3158  0.4071 -0.1704
    6SAPS   H7S  715   4.442   2.977   9.786  1.2008  0.1062  1.5468
    6SAPS   C28  716   4.547   3.148   9.727  0.5135 -0.7160  0.1559
    6SAPS   H8R  717   4.609   3.148   9.818 -2.5252 -0.6630  2.3813
    6SAPS   C29  718   4.590   3.228   9.627 -0.3511  0.6629  0.0714
    6SAPS   H9R  719   4.693   3.265   9.641 -1.4179  3.2231  1.8873
    6SAPS  C210  720   4.520   3.256   9.498  0.0133 -0.8550 -0.1016
    6SAPS  H10R  721   4.452   3.173   9.469 -0.6694 -0.6131  0.7383
    6SAPS  H10S  722   4.590   3.259   9.412  1.1412  0.0608  0.8144
    6SAPS  C211  723   4.429   3.377   9.499  0.1610 -0.2297  0.4444
    6SAPS  H11R  724   4.380   3.402   9.595 -1.5906 -0.6980 -0.2740
    6SAPS  C212  725   4.386   3.429   9.383  0.7095  0.1027  0.1973
    6SAPS  H12R  726   4.345   3.531   9.390  1.5778  0.4272  0.6540
    6SAPS  C213  727   4.421   3.376   9.245  0.0841  0.1649 -0.3323
    6SAPS  H13R  728   4.435   3.265   9.250 -1.0408 -0.0306 -1.0820
    6SAPS  H13S  729   4.526   3.404   9.225 -0.0799 -0.1262 -1.6566
    6SAPS  C214  730   4.336   3.416   9.128  1.0863  0.6580 -0.7004
    6SAPS  H14R  731   4.230   3.440   9.146  0.9341 -0.2799 -0.2854
    6SAPS  C215  732   4.379   3.435   8.999  0.0679  0.0251 -0.4110
    6SAPS  H15R  733   4.303   3.456   8.922 -1.4603 -0.5118  0.8769
    6SAPS  C216  734   4.520   3.417   8.944 -0.2429  0.0460 -0.0636
    6SAPS  H16R  735   4.515   3.356   8.852 -1.0883  0.7093 -0.4827
    6SAPS  H16S  736   4.583   3.353   9.009 -0.7300 -0.7196 -0.3415
    6SAPS  C217  737   4.592   3.555   8.914  0.4969 -0.8272 -0.5128
    6SAPS  H17R  738   4.550   3.617   8.832 -0.3318 -0.2765  0.3057
    6SAPS  H17S  739   4.693   3.522   8.883  0.6777  0.0412 -0.8477
    6SAPS  C218  740   4.598   3.648   9.033  0.5782  0.6394 -0.0596
    6SAPS  H18R  741   4.603   3.583   9.123 -0.5891 -1.3775 -1.3810
    6SAPS  H18S  742   4.504   3.707   9.044  0.4364  0.2963  0.6537
    6SAPS  C219  743   4.715   3.744   9.024 -0.5066  0.2622 -0.3009
    6SAPS  H19R  744   4.801   3.677   9.004 -0.4741 -0.3761  1.7940
    6SAPS  H19S  745   4.741   3.781   9.126 -0.9140 -3.4675  1.2923
    6SAPS  C220  746   4.710   3.862   8.920 -0.0364  0.1995 -0.1408
    6SAPS  H20R  747   4.713   3.822   8.816  1.5231  0.6566 -0.2913
    6SAPS  H20S  748   4.811   3.909   8.922  0.1520 -0.1883 -0.4679
    6SAPS  H20T  749   4.628   3.936   8.932 -0.3365 -0.3051  1.0176
    6SAPS   C33  750   4.690   3.525   9.874  0.0010  0.2213 -0.3023
    6SAPS   H3X  751   4.731   3.437   9.819 -1.0820 -0.1453 -0.5416
    6SAPS   H3Y  752   4.769   3.599   9.900 -1.0923  1.3928 -0.2265
    6SAPS   C34  753   4.586   3.595   9.791  0.1503  0.3733  0.7459
    6SAPS   H4X  754   4.534   3.677   9.846  1.1716  1.4694  0.1395
    6SAPS   H4Y  755   4.490   3.540   9.785 -0.4680  1.3812  1.1447
    6SAPS   C35  756   4.635   3.647   9.656  0.6284  0.5694  0.3525
    6SAPS   H5X  757   4.547   3.672   9.593 -1.6778 -0.7578  2.8232
    6SAPS   H5Y  758   4.701   3.574   9.604  0.4344  1.1651 -0.7566
    6SAPS   C36  759   4.714   3.773   9.665 -1.0282 -0.8253 -0.1465
    6SAPS   H6X  760   4.810   3.754   9.718 -1.7407  0.6514  1.8028
    6SAPS   H6Y  761   4.659   3.857   9.714  0.0273 -1.5666  2.5081
    6SAPS   C37  762   4.751   3.828   9.526  0.1680  0.4362 -0.4156
    6SAPS   H7X  763   4.657   3.857   9.473  1.1659  2.2421 -1.2608
    6SAPS   H7Y  764   4.802   3.744   9.473 -1.9368 -1.3919  0.2698
    6SAPS   C38  765   4.839   3.951   9.541  0.1672  0.6248 -0.4910
    6SAPS   H8X  766   4.931   3.931   9.598 -0.6330  0.4010  0.7585
    6SAPS   H8Y  767   4.784   4.028   9.598  1.0915  1.5899 -0.8778
    6SAPS   C39  768   4.871   4.003   9.397 -0.1827 -0.4130 -0.3148
    6SAPS   H9X  769   4.908   4.106   9.418 -3.4636  0.8669 -0.2336
    6SAPS   H9Y  770   4.780   4.025   9.337 -2.1120 -2.4981  1.6615
    6SAPS  C310  771   4.981   3.936   9.308  0.0965 -0.3289  0.0867
    6SAPS  H10X  772   4.959   3.830   9.284 -0.4270 -0.3172  0.4972
    6SAPS  H10Y  773   5.077   3.944   9.362  0.4287  0.2411 -0.5688
    6SAPS  C311  774   4.986   4.009   9.171 -0.2355  0.6355  0.2635
    6SAPS  H11X  775   4.979   4.118   9.190  0.5155  0.7662 -0.1692
    6SAPS  H11Y  776   4.895   3.972   9.120  1.0740 -2.8328  0.1503
    6SAPS  C312  777   5.120   3.973   9.095  0.0094 -0.3525 -0.7462
    6SAPS  H12X  778   5.210   4.018   9.142 -1.8676  0.9880  1.7762
    6SAPS  H12Y  779   5.112   4.009   8.989  1.1241  2.3292 -0.0162
    6SAPS  C313  780   5.144   3.827   9.095 -0.0308 -0.4047  0.0410
    6SAPS  H13X  781   5.047   3.783   9.065 -1.8419  2.0653  1.7886
    6SAPS  H13Y  782   5.184   3.797   9.194 -0.3837  1.2547  0.7192
    6SAPS  C314  783   5.246   3.793   8.989  0.0735 -0.2071 -0.4052
    6SAPS  H14X  784   5.339   3.852   8.982 -1.2335  1.8279 -1.4682
    6SAPS  H14Y  785   5.201   3.790   8.888 -1.3184  1.3956  0.1350
    6SAPS  C315  786   5.309   3.650   9.001 -0.0578  0.1339 -0.3646
    6SAPS  H15X  787   5.362   3.641   9.099 -2.5639  0.0974  1.0555
    6SAPS  H15Y  788   5.386   3.645   8.920 -0.1960 -1.9234 -0.4196
    6SAPS  C316  789   5.223   3.526   8.993  0.1462  0.0253 -0.4827
    6SAPS  H16X  790   5.135   3.535   9.060  1.7657  1.9653  1.5403
    6SAPS  H16Y  791   5.272   3.430   9.017  0.2853 -0.0310 -0.9685
    6SAPS  C317  792   5.158   3.520   8.851 -0.5224 -0.6968 -0.2735
    6SAPS  H17X  793   5.098   3.606   8.817 -0.1427 -0.9164 -1.5749
    6SAPS  H17Y  794   5.085   3.437   8.859 -2.0873  0.8209  2.3809
    6SAPS  C318  795   5.270   3.485   8.748 -0.7255 -0.1773  0.3792
    6SAPS  H18X  796   5.342   3.408   8.782  0.8487  1.0412 -0.0531
    6SAPS  H18Y  797   5.326   3.577   8.720 -0.6580 -0.6844 -1.2792
    6SAPS  H18Z  798   5.211   3.452   8.659 -0.7854  1.2006 -0.1187
    7SAPS     N  799   0.482   4.966  10.522  0.2788 -0.5570  0.5977
    7SAPS   HN1  800   0.436   5.031  10.589 -1.2474 -0.0776 -0.8457
    7SAPS   HN2  801   0.564   5.009  10.473  1.3999 -3.7234 -0.5488
    7SAPS   HN3  802   0.407   4.948  10.453  0.9483 -1.2378  0.0270
    7SAPS   C12  803   0.510   4.840  10.591  0.1126  0.3320 -0.3774
    7SAPS  H12A  804   0.552   4.865  10.687 -0.7653  1.3821 -0.2464
    7SAPS   C13  805   0.385   4.757  10.624  0.0696  0.0870 -0.1170
    7SAPS  O13A  806   0.274   4.782  10.570 -0.1795 -0.1063  0.0397
    7SAPS  O13B  807   0.392   4.673  10.721  0.1936  0.0294  0.3363
    7SAPS   C11  808   0.616   4.763  10.508 -0.0074 -0.8365  0.4357
    7SAPS  H11A  809   0.551   4.730  10.424 -1.4612 -1.3370  1.7115
    7SAPS  H11B  810   0.670   4.675  10.550  4.3214  1.6884  0.7033
    7SAPS     P  811   0.866   4.858  10.510 -0.0830 -0.2488 -0.4580
    7SAPS   O13  812   0.896   4.991  10.564 -0.6881  0.0604 -0.5701
    7SAPS   O14  813   0.905   4.739  10.595 -0.2826 -0.4739 -0.0511
    7SAPS   O12  814   0.716   4.852  10.457 -0.6524 -0.2585  0.3734
    7SAPS   O11  815   0.945   4.853  10.375 -0.6417 -0.3532 -0.3252
    7SAPS    C1  816   0.920   4.923  10.258  0.0837 -0.8466 -1.1385
    7SAPS    HA  817   0.871   5.020  10.283  1.6407 -0.5401  1.0941
    7SAPS    HB  818   1.017   4.968  10.228  0.9336  0.4889  2.9267
    7SAPS    C2  819   0.831   4.850  10.163  0.0244  0.0635  0.2003
    7SAPS    HS  820   0.745   4.819  10.226 -1.5655  0.0335 -1.8677
    7SAPS   O21  821   0.920   4.746  10.120  0.6404 -0.2633 -0.1087
    7SAPS   C21  822   0.881   4.619  10.136  0.2645  0.2448 -0.2124
    7SAPS   O22  823   0.765   4.585  10.171 -0.1935 -0.1186  0.0644
    7SAPS   C22  824   1.004   4.532  10.096 -0.8928  0.0806  0.0234
    7SAPS   H2R  825   1.032   4.557   9.991 -2.4699  0.5700 -0.3177
    7SAPS   H2S  826   1.096   4.568  10.145 -0.5851 -0.8833  0.1783
    7SAPS    C3  827   0.780   4.935  10.047 -0.2503  0.0293  0.2863
    7SAPS    HX  828   0.865   4.987   9.998 -0.7594  0.4103 -0.2042
    7SAPS    HY  829   0.720   5.024  10.075  0.2551  0.7578 -0.8772
    7SAPS   O31  830   0.702   4.848   9.957 -0.3243  0.6715  0.0583
    7SAPS   C31  831   0.576   4.825   9.996  0.1756 -0.3009  0.4122
    7SAPS   O32  832   0.528   4.851  10.104  0.6435  0.1263 -0.0337
    7SAPS   C32  833   0.510   4.742   9.884 -0.3823  0.1570  0.2826
    7SAPS   H2X  834   0.586   4.661   9.873 -1.0618 -0.6783  1.4811
    7SAPS   H2Y  835   0.507   4.796   9.787  2.8475 -1.2342 -0.7223
    7SAPS   C23  836   0.982   4.375  10.111  0.1420 -0.2908 -0.2143
    7SAPS   H3R  837   0.877   4.341  10.096  1.2436 -4.1367 -0.2293
    7SAPS   H3S  838   0.997   4.329  10.211  0.4980  1.9636  0.8309
    7SAPS   C24  839   1.061   4.304  10.003  0.4059 -0.4698  0.3733
    7SAPS   H4R  840   1.016   4.321   9.903  1.1609  0.5201  0.1738
    7SAPS   H4S  841   1.037   4.197  10.020 -1.0256 -0.3799 -0.8624
    7SAPS   C25  842   1.206   4.337  10.028  0.2604 -0.0988 -0.1076
    7SAPS   H5R  843   1.241   4.334  10.133 -0.5403  1.6279  0.2289
    7SAPS   C26  844   1.300   4.370   9.935  0.3070  0.1988 -0.6486
    7SAPS   H6R  845   1.393   4.405   9.980  0.3765 -1.7561  0.8838
    7SAPS   C27  846   1.272   4.371   9.785 -0.3863  0.0651  0.5754
    7SAPS   H7R  847   1.364   4.390   9.726 -0.9635 -0.7921 -0.6350
    7SAPS   H7S  848   1.203   4.455   9.761  1.1723  0.7721 -1.7679
    7SAPS   C28  849   1.232   4.236   9.723 -0.0915  0.4423 -0.4140
    7SAPS   H8R  850   1.241   4.147   9.786 -0.9187 -0.3134 -1.3320
    7SAPS   C29  851   1.197   4.217   9.592 -0.1909  0.0326 -0.3539
    7SAPS   H9R  852   1.189   4.111   9.562  1.4554  0.1539 -1.3397
    7SAPS  C210  853   1.193   4.324   9.481 -0.2682 -0.4766 -0.1245
    7SAPS  H10R  854   1.293   4.371   9.473 -0.8131  0.9077  0.8540
    7SAPS  H10S  855   1.124   4.407   9.506 -1.5919 -0.7422 -2.6255
    7SAPS  C211  856   1.139   4.259   9.355  0.1580  0.5665  0.5410
    7SAPS  H11R  857   1.034   4.229   9.364  0.6092 -0.8618  1.4365
    7SAPS  C212  858   1.205   4.227   9.240 -0.8623  0.3813 -0.0634
    7SAPS  H12R  859   1.145   4.183   9.159 -4.3061 -1.1092  2.9844
    7SAPS  C213  860   1.350   4.251   9.217  0.5044 -0.5874  0.1084
    7SAPS  H13R  861   1.408   4.156   9.220 -1.0267 -1.5303  1.5309
    7SAPS  H13S  862   1.393   4.327   9.286 -0.5452  1.4621 -1.3770
    7SAPS  C214  863   1.369   4.309   9.075  0.6981 -0.1389  0.4585
    7SAPS  H14R  864   1.351   4.416   9.057 -0.6498 -0.6316 -1.3785
    7SAPS  C215  865   1.370   4.230   8.963 -0.6617  0.1674  0.0733
    7SAPS  H15R  866   1.367   4.282   8.866 -0.8008  2.9870  1.4951
    7SAPS  C216  867   1.375   4.080   8.954 -0.4660  0.1959 -0.4948
    7SAPS  H16R  868   1.338   4.031   9.047  2.4401 -1.5036 -0.1257
    7SAPS  H16S  869   1.483   4.052   8.952 -0.3862 -0.0853  2.4552
    7SAPS  C217  870   1.293   4.024   8.837 -0.5429  0.3977  0.2052
    7SAPS  H17R  871   1.330   3.924   8.807 -2.2684 -0.0130 -0.7274
    7SAPS  H17S  872   1.295   4.085   8.744  0.1422 -0.5562 -0.4275
    7SAPS  C218  873   1.154   3.994   8.885  0.4145  0.6433 -0.5475
    7SAPS  H18R  874   1.127   4.083   8.947 -0.7478 -1.1267  1.6012
    7SAPS  H18S  875   1.159   3.912   8.959 -0.1756  1.7637  0.7756
    7SAPS  C219  876   1.049   3.969   8.776 -0.4428 -0.1018  0.0403
    7SAPS  H19R  877   1.061   4.051   8.702 -1.1841  1.4810  1.5987
    7SAPS  H19S  878   0.947   3.979   8.819 -0.4041 -0.7956  0.3144
    7SAPS  C220  879   1.054   3.826   8.708 -0.6133  0.0200 -0.2747
    7SAPS  H20R  880   0.981   3.829   8.624 -2.5800 -0.9814  1.2993
    7SAPS  H20S  881   1.017   3.744   8.772 -1.3432  0.4504 -0.1229
    7SAPS  H20T  882   1.154   3.806   8.665  1.2197  1.1287  3.1258
    7SAPS   C33  883   0.374   4.673   9.921  0.2035 -0.4423  0.7984
    7SAPS   H3X  884   0.293   4.750   9.926  0.5623  0.0204 -0.2615
    7SAPS   H3Y  885   0.375   4.632  10.024 -3.2529  1.6578  1.8525
    7SAPS   C34  886   0.335   4.551   9.837 -0.7362 -0.4191  0.0958
    7SAPS   H4X  887   0.248   4.499   9.883  0.1770 -2.3601 -0.2885
    7SAPS   H4Y  888   0.416   4.475   9.844  0.6266  0.7740 -1.9007
    7SAPS   C35  889   0.312   4.581   9.688  0.1359  0.5150 -0.1618
    7SAPS   H5X  890   0.381   4.663   9.656  0.6076  0.3369  0.3885
    7SAPS   H5Y  891   0.205   4.608   9.678 -0.5646 -0.2340  3.9075
    7SAPS   C36  892   0.309   4.452   9.601 -0.1189 -0.7357  0.1692
    7SAPS   H6X  893   0.214   4.404   9.632  0.4221 -0.6032  2.1514
    7SAPS   H6Y  894   0.396   4.383   9.611 -0.0253 -0.8412 -1.1506
    7SAPS   C37  895   0.289   4.491   9.459  0.3515 -0.8007 -0.2827
    7SAPS   H7X  896   0.199   4.556   9.457  0.2883 -0.3667  4.8605
    7SAPS   H7Y  897   0.285   4.400   9.394  0.2496 -0.8046 -0.2718
    7SAPS   C38  898   0.394   4.585   9.396  0.2489 -0.0899 -0.5378
    7SAPS   H8X  899   0.492   4.532   9.398  0.5280  0.3653 -1.6950
    7SAPS   H8Y  900   0.398   4.676   9.460  0.7194 -0.1951 -0.4069
    7SAPS   C39  901   0.354   4.614   9.250  0.0051 -0.2370 -0.6634
    7SAPS   H9X  902   0.383   4.710   9.202  0.2313  0.0218 -0.0275
    7SAPS   H9Y  903   0.244   4.628   9.256  0.0659 -0.1886  0.8888
    7SAPS  C310  904   0.389   4.497   9.153  0.3474 -0.3339 -0.0064
    7SAPS  H10X  905   0.314   4.417   9.170  1.0721 -0.6893  1.7522
    7SAPS  H10Y  906   0.480   4.451   9.197  0.8838 -0.2074 -0.9456
    7SAPS  C311  907   0.396   4.527   9.004 -0.8696 -1.0188  0.5282
    7SAPS  H11X  908   0.464   4.614   8.999  1.0135 -2.5156 -1.3522
    7SAPS  H11Y  909   0.292   4.544   8.967  0.1345  0.9304 -1.6074
    7SAPS  C312  910   0.451   4.418   8.916 -0.0672  0.0990  0.1591
    7SAPS  H12X  911   0.380   4.336   8.939 -0.1564 -0.0018 -0.4607
    7SAPS  H12Y  912   0.556   4.391   8.943  0.3973 -0.0169 -1.6379
    7SAPS  C313  913   0.457   4.461   8.766 -0.0269 -0.4643 -0.2681
    7SAPS  H13X  914   0.357   4.487   8.727  1.1883  2.1816 -1.8719
    7SAPS  H13Y  915   0.496   4.378   8.703  0.9941  1.1465 -1.8482
    7SAPS  C314  916   0.553   4.581   8.731  0.6264  0.0400  0.3262
    7SAPS  H14X  917   0.605   4.563   8.634  0.2039  0.0614  0.0963
    7SAPS  H14Y  918   0.628   4.587   8.813  1.5353 -0.2020 -0.4617
    7SAPS  C315  919   0.486   4.724   8.725 -0.1520  1.1009  0.6417
    7SAPS  H15X  920   0.445   4.764   8.820 -0.4066  1.3721  0.4212
    7SAPS  H15Y  921   0.396   4.721   8.660 -1.3351  2.9891  2.0846
    7SAPS  C316  922   0.582   4.830   8.666  0.6522  0.3826 -0.4789
    7SAPS  H16X  923   0.625   4.793   8.570  0.3365 -0.2681 -0.3774
    7SAPS  H16Y  924   0.665   4.830   8.739  0.9850 -0.7929 -0.8247
    7SAPS  C317  925   0.522   4.972   8.657  0.0907  0.9252  0.6053
    7SAPS  H17X  926   0.506   5.019   8.757 -1.8473  2.0315 -0.1738
    7SAPS  H17Y  927   0.420   4.959   8.617 -0.3742 -0.9267  2.2466
    7SAPS  C318  928   0.600   5.063   8.567  0.9554  0.2047  0.1627
    7SAPS  H18X  929   0.611   5.014   8.468 -0.8765  2.1773 -1.1243
    7SAPS  H18Y  930   0.699   5.088   8.612  0.4383  1.6874  0.5482
    7SAPS  H18Z  931   0.543   5.158   8.560 -1.0020 -0.6761  2.6377
    8SAPS     N  932   5.508   2.921  10.886 -0.2469  0.3067  0.0920
    8SAPS   HN1  933   5.475   2.914  10.788  0.2875  0.7118 -0.1241
    8SAPS   HN2  934   5.441   2.929  10.965 -0.4695 -1.0388  0.0654
    8SAPS   HN3  935   5.569   3.005  10.889  3.9536 -2.3724 -1.0489
    8SAPS   C12  936   5.605   2.806  10.908 -0.0471  0.4042 -1.3019
    8SAPS  H12A  937   5.672   2.805  10.823  0.6073  1.0694 -0.8075
    8SAPS   C13  938   5.688   2.812  11.038 -0.2711 -0.0019  0.0752
    8SAPS  O13A  939   5.689   2.928  11.100 -0.6576  0.4812 -0.1544
    8SAPS  O13B  940   5.793   2.740  11.026  0.0448 -0.2295 -0.7751
    8SAPS   C11  941   5.526   2.676  10.905  0.3556  0.7933 -0.3256
    8SAPS  H11A  942   5.482   2.654  11.005  1.6726  0.4032  0.1952
    8SAPS  H11B  943   5.593   2.588  10.896 -1.0077 -0.7151  2.6374
    8SAPS     P  944   5.350   2.549  10.751 -0.1671 -0.2761  0.2619
    8SAPS   O13  945   5.351   2.443  10.859 -0.1368 -0.5468  0.1760
    8SAPS   O14  946   5.218   2.593  10.709 -0.2626 -0.2978 -0.0789
    8SAPS   O12  947   5.421   2.680  10.807 -0.7229  0.0456 -0.1047
    8SAPS   O11  948   5.438   2.498  10.628  0.1952 -0.0030  0.2892
    8SAPS    C1  949   5.467   2.591  10.517  0.0270 -0.1808  0.1225
    8SAPS    HA  950   5.382   2.657  10.489  0.0515  0.2115  0.9235
    8SAPS    HB  951   5.552   2.654  10.551  0.4619 -0.0698 -1.1230
    8SAPS    C2  952   5.512   2.525  10.384  0.5621  0.4011 -0.2190
    8SAPS    HS  953   5.422   2.463  10.362 -0.5071  1.7527  0.1940
    8SAPS   O21  954   5.625   2.441  10.404  0.2444  0.1069  0.3381
    8SAPS   C21  955   5.644   2.338  10.321  0.6634  0.1932  0.6693
    8SAPS   O22  956   5.566   2.302  10.233  0.6158  0.6232 -0.4013
    8SAPS   C22  957   5.776   2.261  10.351  0.6091  0.1740  0.2480
    8SAPS   H2R  958   5.777   2.222  10.455  0.7925  1.2853  0.6752
    8SAPS   H2S  959   5.781   2.173  10.283  1.5216  0.1903  0.2808
    8SAPS    C3  960   5.538   2.629  10.271  0.0262  0.2564  0.0766
    8SAPS    HX  961   5.625   2.688  10.307 -0.1871  1.2619 -1.0163
    8SAPS    HY  962   5.451   2.695  10.254  0.6784  1.5005  1.3453
    8SAPS   O31  963   5.582   2.570  10.147 -0.3898 -0.3713 -0.2868
    8SAPS   C31  964   5.488   2.521  10.061  0.1347  0.3639 -0.9706
    8SAPS   O32  965   5.368   2.527  10.090 -0.9823 -0.2219 -0.8899
    8SAPS   C32  966   5.547   2.459   9.936 -0.2065 -0.4059  0.4707
    8SAPS   H2X  967   5.509   2.355   9.938 -2.3869  0.3200  0.1926
    8SAPS   H2Y  968   5.657   2.453   9.942 -0.1261  0.2460 -0.1226
    8SAPS   C23  969   5.911   2.344  10.327  0.5425 -0.0692 -0.1763
    8SAPS   H3R  970   5.917   2.437  10.387  0.7600 -0.1400 -0.0868
    8SAPS   H3S  971   5.896   2.377  10.222 -0.5040  0.8197  0.2315
    8SAPS   C24  972   6.032   2.260  10.349 -0.7258 -0.5862 -0.3276
    8SAPS   H4R  973   6.024   2.164  10.294 -0.9162  0.0238 -1.3684
    8SAPS   H4S  974   6.033   2.241  10.459 -0.7705  0.2629 -0.1730
    8SAPS   C25  975   6.163   2.336  10.313 -0.5973  0.0857  0.0793
    8SAPS   H5R  976   6.209   2.400  10.389 -1.3528  1.3385 -0.4925
    8SAPS   C26  977   6.227   2.328  10.192  1.1322  1.0903  0.0954
    8SAPS   H6R  978   6.325   2.376  10.181  0.9412  1.3513 -0.5012
    8SAPS   C27  979   6.188   2.224  10.080  0.3756 -0.1887  0.2929
    8SAPS   H7R  980   6.232   2.260   9.985 -1.0109  1.3286  0.1746
    8SAPS   H7S  981   6.080   2.241  10.059  0.8735  2.9046 -0.2367
    8SAPS   C28  982   6.232   2.079  10.110  0.0116 -0.5520 -0.0872
    8SAPS   H8R  983   6.253   2.062  10.217  1.0581  1.2692  0.0300
    8SAPS   C29  984   6.242   1.970  10.030  0.2235 -0.5592 -0.0675
    8SAPS   H9R  985   6.273   1.869  10.063 -3.6371 -2.4777 -1.5703
    8SAPS  C210  986   6.220   1.976   9.883 -0.5739  0.0741 -0.3691
    8SAPS  H10R  987   6.307   2.036   9.849  0.9693 -1.6572  0.4119
    8SAPS  H10S  988   6.131   2.039   9.860  0.1231  1.5620  0.8066
    8SAPS  C211  989   6.219   1.851   9.804 -0.1702  0.5308 -0.6063
    8SAPS  H11R  990   6.220   1.759   9.865  0.5520  1.7770  1.3601
    8SAPS  C212  991   6.230   1.840   9.672 -0.1763  0.4213  0.6260
    8SAPS  H12R  992   6.240   1.737   9.633  0.9738  1.1958 -1.2209
    8SAPS  C213  993   6.237   1.945   9.566  0.2786  0.0602 -0.0647
    8SAPS  H13R  994   6.230   2.038   9.627 -0.7289 -1.6140  2.5606
    8SAPS  H13S  995   6.146   1.943   9.502 -0.9552  0.8055  1.5719
    8SAPS  C214  996   6.365   1.935   9.492  0.0099  0.6080 -0.1436
    8SAPS  H14R  997   6.442   2.013   9.505  1.8504 -0.9833 -1.0983
    8SAPS  C215  998   6.390   1.849   9.389 -0.1694  0.2701  0.6506
    8SAPS  H15R  999   6.493   1.846   9.353 -0.2209 -1.0269  0.5582
    8SAPS  C216 1000   6.298   1.740   9.340  0.4106 -0.0268 -0.6407
    8SAPS  H16R 1001   6.238   1.778   9.255  0.8338  2.4141  0.0742
    8SAPS  H16S 1002   6.227   1.720   9.423 -0.6578  2.2104 -0.9713
    8SAPS  C217 1003   6.373   1.611   9.303  0.6402 -0.5711  0.1444
    8SAPS  H17R 1004   6.291   1.539   9.280  1.2757 -0.6722 -2.0324
    8SAPS  H17S 1005   6.422   1.566   9.393 -0.2880  2.9107  2.5908
    8SAPS  C218 1006   6.479   1.631   9.196 -0.1532  0.7602 -0.3047
    8SAPS  H18R 1007   6.516   1.527   9.179 -1.2679  0.2249  0.4734
    8SAPS  H18S 1008   6.562   1.689   9.242 -0.0604  1.1995 -1.0099
    8SAPS  C219 1009   6.442   1.698   9.061 -0.2390 -0.0666  0.4221
    8SAPS  H19R 1010   6.418   1.804   9.081 -2.2635 -0.8153  2.3947
    8SAPS  H19S 1011   6.350   1.659   9.012 -0.0725 -1.6868  1.3235
    8SAPS  C220 1012   6.550   1.682   8.951  0.7996 -0.4928  0.1730
    8SAPS  H20R 1013   6.504   1.705   8.852  1.0665 -2.5780 -0.4745
    8SAPS  H20S 1014   6.603   1.585   8.941  1.2891 -0.0794 -1.5626
    8SAPS  H20T 1015   6.631   1.755   8.969  1.8117 -1.2687 -1.0677
    8SAPS   C33 1016   5.494   2.508   9.798 -0.1103  0.4305 -1.3377
    8SAPS   H3X 1017   5.545   2.601   9.766 -0.7439  1.1492 -0.3128
    8SAPS   H3Y 1018   5.385   2.531   9.798 -0.1710  0.1806  0.0130
    8SAPS   C34 1019   5.529   2.410   9.683 -0.4877  0.1404 -0.6870
    8SAPS   H4X 1020   5.487   2.308   9.694  0.7767 -0.4305 -0.9373
    8SAPS   H4Y 1021   5.639   2.412   9.669 -0.1301  1.4855  1.7318
    8SAPS   C35 1022   5.487   2.475   9.545 -0.5744 -0.0739 -0.0459
    8SAPS   H5X 1023   5.525   2.579   9.551  2.7119 -1.2381  2.6171
    8SAPS   H5Y 1024   5.377   2.484   9.546 -0.5912 -0.1806  1.4547
    8SAPS   C36 1025   5.556   2.404   9.424 -0.2959  0.0738  0.5989
    8SAPS   H6X 1026   5.586   2.302   9.455  0.7785 -0.3167 -1.5514
    8SAPS   H6Y 1027   5.652   2.456   9.403  0.6327 -1.2210  1.5010
    8SAPS   C37 1028   5.461   2.405   9.305  0.7907 -0.1358 -0.0961
    8SAPS   H7X 1029   5.440   2.514   9.297 -1.1749 -0.4080  0.8164
    8SAPS   H7Y 1030   5.361   2.361   9.326 -0.5988  2.6837 -0.2367
    8SAPS   C38 1031   5.521   2.368   9.171 -0.2053  0.0852 -0.5070
    8SAPS   H8X 1032   5.550   2.262   9.178 -1.9771 -0.4545 -0.7618
    8SAPS   H8Y 1033   5.612   2.431   9.162 -0.4631  0.4873 -0.3593
    8SAPS   C39 1034   5.434   2.404   9.049  0.4634  0.5459 -0.0048
    8SAPS   H9X 1035   5.395   2.506   9.072  0.5892  0.2773  1.5031
    8SAPS   H9Y 1036   5.355   2.326   9.056  1.6805 -0.8313 -0.8647
    8SAPS  C310 1037   5.503   2.399   8.912  0.2300  0.0455  0.9686
    8SAPS  H10X 1038   5.551   2.300   8.894  1.7423  1.1096 -1.4742
    8SAPS  H10Y 1039   5.577   2.478   8.885  0.3708 -0.6518 -0.8100
    8SAPS  C311 1040   5.384   2.414   8.814 -0.1237  0.0829  0.4392
    8SAPS  H11X 1041   5.330   2.508   8.838 -1.0171 -0.2131 -0.3932
    8SAPS  H11Y 1042   5.313   2.329   8.816  1.3544 -1.2613 -1.0275
    8SAPS  C312 1043   5.442   2.422   8.678 -0.6817 -0.1149  0.0944
    8SAPS  H12X 1044   5.516   2.339   8.672  0.0839  0.4133  1.6357
    8SAPS  H12Y 1045   5.497   2.516   8.659  2.0716 -1.0269  2.7936
    8SAPS  C313 1046   5.330   2.403   8.577  0.2299  0.1790  0.1799
    8SAPS  H13X 1047   5.264   2.492   8.574  0.8847  0.6437 -1.2975
    8SAPS  H13Y 1048   5.269   2.318   8.615  1.0745 -0.0417  1.0738
    8SAPS  C314 1049   5.360   2.379   8.424  0.2783  0.1596 -0.6533
    8SAPS  H14X 1050   5.422   2.461   8.381 -0.7951  0.1830 -2.2538
    8SAPS  H14Y 1051   5.269   2.380   8.361 -0.1534 -0.4722 -0.0451
    8SAPS  C315 1052   5.440   2.244   8.414 -0.5875 -1.2173 -0.7336
    8SAPS  H15X 1053   5.390   2.163   8.470  1.3891 -0.4025  2.4899
    8SAPS  H15Y 1054   5.542   2.258   8.457  0.2831  0.8800 -3.1522
    8SAPS  C316 1055   5.459   2.194   8.271 -0.0676 -0.0697  0.3054
    8SAPS  H16X 1056   5.538   2.261   8.233 -1.8827  1.6943 -0.5666
    8SAPS  H16Y 1057   5.362   2.216   8.221  0.5455  0.0756 -0.8432
    8SAPS  C317 1058   5.501   2.052   8.253 -0.0656  0.4112  0.2555
    8SAPS  H17X 1059   5.589   2.028   8.316 -1.0711 -0.1359  1.4706
    8SAPS  H17Y 1060   5.542   2.045   8.149 -1.6015  2.3132 -0.5568
    8SAPS  C318 1061   5.383   1.952   8.274  0.2621 -0.1048  0.0061
    8SAPS  H18X 1062   5.368   1.947   8.384 -1.4964 -1.1082 -0.2558
    8SAPS  H18Y 1063   5.407   1.848   8.244 -0.3286 -1.1334  2.7984
    8SAPS  H18Z 1064   5.289   1.993   8.231 -0.3147 -1.3457  0.0438
    9SAPS     N 1065   2.440   3.981   6.503 -0.2699 -0.0384 -0.3415
    9SAPS   HN1 1066   2.543   3.972   6.510 -0.3454 -1.4830 -0.8329
    9SAPS   HN2 1067   2.430   4.063   6.439  0.5000 -0.3526 -0.8733
    9SAPS   HN3 1068   2.386   3.996   6.591  1.8115 -0.0342  1.0063
    9SAPS   C12 1069   2.411   3.851   6.430  0.1047 -0.5370 -0.1713
    9SAPS  H12A 1070   2.343   3.865   6.348  0.8646  1.1784 -0.5543
    9SAPS   C13 1071   2.539   3.803   6.371 -0.2962  0.0051  0.3338
    9SAPS  O13A 1072   2.646   3.865   6.399  0.1335  0.3691 -0.0534
    9SAPS  O13B 1073   2.535   3.716   6.276 -0.2940  0.6576  0.0030
    9SAPS   C11 1074   2.357   3.742   6.529 -0.6515 -0.1526  0.1079
    9SAPS  H11A 1075   2.272   3.787   6.585 -0.9120  3.0871 -2.5931
    9SAPS  H11B 1076   2.437   3.719   6.602 -1.3161 -1.5595  0.4227
    9SAPS     P 1077   2.166   3.605   6.421  0.1737  0.0988 -0.2348
    9SAPS   O13 1078   2.116   3.740   6.379 -0.3090 -0.1042 -0.0171
    9SAPS   O14 1079   2.138   3.489   6.333 -0.4082 -0.1878  0.1367
    9SAPS   O12 1080   2.316   3.622   6.464 -0.6288  0.8837 -0.3141
    9SAPS   O11 1081   2.105   3.577   6.567 -0.0500  0.2871 -0.1629
    9SAPS    C1 1082   2.137   3.458   6.645  0.5436 -0.3929  0.6474
    9SAPS    HA 1083   2.229   3.400   6.618  0.8585  0.6327 -0.6060
    9SAPS    HB 1084   2.158   3.502   6.745 -0.0983  2.7584 -0.4859
    9SAPS    C2 1085   2.020   3.347   6.645 -0.0381  0.8728 -0.8096
    9SAPS    HS 1086   2.001   3.321   6.539 -0.5214  0.9002 -0.7305
    9SAPS   O21 1087   1.904   3.398   6.717 -0.1622  0.5351 -0.2141
    9SAPS   C21 1088   1.785   3.362   6.664 -0.1469  0.3236  0.0834
    9SAPS   O22 1089   1.774   3.278   6.574 -0.0650  0.1633 -0.3884
    9SAPS   C22 1090   1.673   3.427   6.750  0.1210 -0.9629  0.9445
    9SAPS   H2R 1091   1.669   3.530   6.708  0.6780 -1.0187  0.7524
    9SAPS   H2S 1092   1.572   3.385   6.731  0.5228 -1.3642 -0.3937
    9SAPS    C3 1093   2.053   3.210   6.715 -0.4079  0.7286 -0.5037
    9SAPS    HX 1094   2.144   3.173   6.662 -0.6218  2.0187 -1.8306
    9SAPS    HY 1095   1.967   3.143   6.694  0.2851  0.0541 -1.2559
    9SAPS   O31 1096   2.087   3.227   6.855 -0.2931  0.1376  0.3076
    9SAPS   C31 1097   1.992   3.174   6.945  0.1438 -0.4138  0.4073
    9SAPS   O32 1098   1.906   3.096   6.910  0.5391  0.0741 -0.1576
    9SAPS   C32 1099   2.001   3.234   7.084 -0.0440  0.2002 -0.8793
    9SAPS   H2X 1100   1.908   3.290   7.107 -0.4723 -0.4000 -1.1271
    9SAPS   H2Y 1101   2.087   3.303   7.098 -0.1804  0.2349 -0.1276
    9SAPS   C23 1102   1.709   3.431   6.894 -0.5841 -0.1391  0.0441
    9SAPS   H3R 1103   1.790   3.501   6.923 -1.5176  1.7991 -1.7637
    9SAPS   H3S 1104   1.735   3.333   6.939 -1.6087 -0.4753 -0.0775
    9SAPS   C24 1105   1.593   3.486   6.974 -0.4420  0.2147 -0.3257
    9SAPS   H4R 1106   1.506   3.424   6.944 -0.1881  0.5185 -1.7542
    9SAPS   H4S 1107   1.572   3.592   6.952 -0.3728  1.1225  3.3479
    9SAPS   C25 1108   1.620   3.469   7.125  0.3824 -0.8052 -0.2012
    9SAPS   H5R 1109   1.676   3.556   7.163 -2.1988  0.4949  0.8707
    9SAPS   C26 1110   1.580   3.366   7.209  0.6251 -0.2901 -0.1397
    9SAPS   H6R 1111   1.606   3.366   7.316  0.8634  1.0557 -0.1701
    9SAPS   C27 1112   1.489   3.252   7.173 -0.4680  0.1980 -0.2953
    9SAPS   H7R 1113   1.440   3.279   7.076 -0.1424  0.1302 -0.4779
    9SAPS   H7S 1114   1.401   3.241   7.241  0.1636 -0.2765  0.4585
    9SAPS   C28 1115   1.583   3.137   7.153 -0.2608 -0.4506 -0.1842
    9SAPS   H8R 1116   1.653   3.142   7.069 -3.7893 -1.1516 -3.4735
    9SAPS   C29 1117   1.602   3.034   7.232  0.3031  0.7085 -0.1774
    9SAPS   H9R 1118   1.681   2.960   7.216 -0.2739 -0.9513  3.6146
    9SAPS  C210 1119   1.541   3.002   7.363 -0.2587  0.7959 -0.8192
    9SAPS  H10R 1120   1.530   2.893   7.378 -0.8592  0.8968 -0.4875
    9SAPS  H10S 1121   1.438   3.042   7.365 -0.4190  0.5720  3.2554
    9SAPS  C211 1122   1.610   3.066   7.474  0.2033 -0.1401 -0.3086
    9SAPS  H11R 1123   1.689   3.140   7.454  1.2245 -1.5007 -1.5381
    9SAPS  C212 1124   1.596   3.042   7.606 -0.2591  0.3320 -0.2880
    9SAPS  H12R 1125   1.650   3.100   7.683 -1.3594  1.8682 -0.6307
    9SAPS  C213 1126   1.498   2.953   7.674  0.2740  0.5373  0.0242
    9SAPS  H13R 1127   1.395   2.975   7.638  0.4722 -1.6563 -2.1072
    9SAPS  H13S 1128   1.497   2.981   7.782 -1.8413 -1.3485  0.5693
    9SAPS  C214 1129   1.546   2.812   7.652 -0.2326 -0.4502  0.0037
    9SAPS  H14R 1130   1.491   2.761   7.570  0.8856  1.3813 -1.9737
    9SAPS  C215 1131   1.642   2.744   7.719  0.5690  0.2577  0.3861
    9SAPS  H15R 1132   1.665   2.644   7.681  0.5555  0.8173 -1.1639
    9SAPS  C216 1133   1.715   2.815   7.828 -0.2877 -0.3086 -0.2399
    9SAPS  H16R 1134   1.649   2.893   7.871  2.1546  0.8737  1.6065
    9SAPS  H16S 1135   1.803   2.867   7.785 -0.0803 -0.3971  0.0755
    9SAPS  C217 1136   1.755   2.709   7.935 -0.0350  0.6155  0.0802
    9SAPS  H17R 1137   1.836   2.643   7.896  0.3693  0.5663  0.9739
    9SAPS  H17S 1138   1.672   2.640   7.957  1.5064 -1.4968 -0.3918
    9SAPS  C218 1139   1.806   2.769   8.064 -0.0638  0.3524 -1.3410
    9SAPS  H18R 1140   1.735   2.843   8.106  0.6128  0.1229  0.2655
    9SAPS  H18S 1141   1.896   2.822   8.026  0.9322 -1.3333 -1.4468
    9SAPS  C219 1142   1.824   2.662   8.175  0.1722 -0.5081 -0.0125
    9SAPS  H19R 1143   1.883   2.581   8.129  1.1457  0.0599  0.2195
    9SAPS  H19S 1144   1.730   2.619   8.217  0.2870 -1.9280 -1.1352
    9SAPS  C220 1145   1.910   2.711   8.290  0.1877  0.8901  0.1887
    9SAPS  H20R 1146   1.914   2.631   8.367  0.3774  2.2166  1.6008
    9SAPS  H20S 1147   1.859   2.798   8.338  0.3581  0.5441  1.0112
    9SAPS  H20T 1148   2.011   2.743   8.259 -0.1523  2.0274  0.1930
    9SAPS   C33 1149   1.999   3.125   7.192 -0.7098 -0.0810  0.0430
    9SAPS   H3X 1150   2.091   3.072   7.163 -1.8879 -1.6260 -1.0449
    9SAPS   H3Y 1151   1.914   3.053   7.190  1.8383 -3.2992  0.6134
    9SAPS   C34 1152   2.016   3.195   7.330  0.2819 -0.0575  0.3202
    9SAPS   H4X 1153   1.915   3.238   7.348  0.3240 -0.1097  0.6799
    9SAPS   H4Y 1154   2.093   3.275   7.335 -1.7223  1.9497  0.4234
    9SAPS   C35 1155   2.033   3.105   7.455  0.0681 -0.3133 -1.1256
    9SAPS   H5X 1156   2.120   3.038   7.435  0.1603 -1.0521  1.4155
    9SAPS   H5Y 1157   1.947   3.043   7.485  0.4388 -0.5389 -0.5071
    9SAPS   C36 1158   2.069   3.192   7.581 -0.0349 -0.1018 -0.8787
    9SAPS   H6X 1159   1.998   3.277   7.578 -1.1103 -0.8797  0.8630
    9SAPS   H6Y 1160   2.176   3.222   7.591 -0.2742  0.3777  0.6031
    9SAPS   C37 1161   2.050   3.120   7.714  0.3053  0.2311  0.4127
    9SAPS   H7X 1162   2.111   3.028   7.717 -0.9260 -0.6121  0.2751
    9SAPS   H7Y 1163   1.947   3.080   7.721 -0.2573  1.1465 -1.9341
    9SAPS   C38 1164   2.071   3.207   7.836  0.0690  0.2957  0.1850
    9SAPS   H8X 1165   2.008   3.299   7.834 -1.4766 -0.7166  0.8711
    9SAPS   H8Y 1166   2.174   3.245   7.853  0.7656 -1.8695  1.2218
    9SAPS   C39 1167   2.041   3.129   7.967 -0.0477 -0.0451  0.4294
    9SAPS   H9X 1168   2.123   3.065   8.007  0.3906  0.7160  0.7752
    9SAPS   H9Y 1169   1.958   3.061   7.939  0.4873 -0.4773 -0.1411
    9SAPS  C310 1170   1.984   3.219   8.079 -0.5126 -0.5266  0.6069
    9SAPS  H10X 1171   1.902   3.281   8.037  0.0729  0.4277  0.8371
    9SAPS  H10Y 1172   2.069   3.281   8.115 -1.3007  0.0429  1.5172
    9SAPS  C311 1173   1.937   3.133   8.202 -1.1408 -0.7999 -0.4404
    9SAPS  H11X 1174   1.843   3.076   8.183 -0.7437 -1.3090 -0.9253
    9SAPS  H11Y 1175   1.909   3.220   8.265 -1.0933 -0.1571 -1.2805
    9SAPS  C312 1176   2.049   3.054   8.270 -0.2997  0.6529 -0.1922
    9SAPS  H12X 1177   2.091   2.991   8.189 -0.6529 -0.4586  0.4692
    9SAPS  H12Y 1178   1.990   2.990   8.338 -0.4402 -0.2494 -1.1535
    9SAPS  C313 1179   2.170   3.129   8.327 -0.4247 -0.1733  0.2863
    9SAPS  H13X 1180   2.127   3.196   8.405 -2.1853  0.8305 -1.4595
    9SAPS  H13Y 1181   2.217   3.196   8.251 -1.5624  0.8028  0.4101
    9SAPS  C314 1182   2.274   3.037   8.384  1.1599  0.2415  0.1059
    9SAPS  H14X 1183   2.339   2.984   8.312  2.4581  1.7659  0.0974
    9SAPS  H14Y 1184   2.221   2.973   8.458 -0.9034 -2.1853 -3.1916
    9SAPS  C315 1185   2.366   3.126   8.473  0.1240  0.2373 -0.2777
    9SAPS  H15X 1186   2.317   3.142   8.572 -1.3873 -3.9321 -0.1508
    9SAPS  H15Y 1187   2.381   3.224   8.423 -0.5670 -0.0768 -1.1209
    9SAPS  C316 1188   2.500   3.060   8.492  0.5261 -0.7330  0.0173
    9SAPS  H16X 1189   2.552   3.045   8.395  1.9388  0.1136  0.6115
    9SAPS  H16Y 1190   2.490   2.962   8.542 -0.8188  0.4023  2.1164
    9SAPS  C317 1191   2.592   3.146   8.580  0.0842 -0.1468  0.2084
    9SAPS  H17X 1192   2.533   3.207   8.652  0.6975 -0.4786  1.0041
    9SAPS  H17Y 1193   2.642   3.221   8.514 -0.4020  0.8728  0.9715
    9SAPS  C318 1194   2.699   3.066   8.654  0.6142  0.5649 -0.7570
    9SAPS  H18X 1195   2.747   3.003   8.577  0.7872 -1.3896  0.8768
    9SAPS  H18Y 1196   2.651   2.995   8.725  0.0951 -1.3346 -2.9268
    9SAPS  H18Z 1197   2.776   3.126   8.707  0.4014 -0.6113  0.9628
   10SAPS     N 1198   1.715   2.018   6.135  0.5805 -0.3070  0.5777
   10SAPS   HN1 1199   1.711   2.035   6.238  0.2813 -0.4814  0.5949
   10SAPS   HN2 1200   1.706   1.917   6.116 -0.1081 -0.5275  1.9225
   10SAPS   HN3 1201   1.807   2.045   6.096  0.9295  0.4439  1.8369
   10SAPS   C12 1202   1.598   2.080   6.062  0.0137  0.4885 -0.0649
   10SAPS  H12A 1203   1.597   2.185   6.089  1.0871  0.7073 -0.8109
   10SAPS   C13 1204   1.620   2.066   5.908 -0.7573  0.3077  0.2024
   10SAPS  O13A 1205   1.726   2.021   5.858  0.4477 -0.3307  0.1777
   10SAPS  O13B 1206   1.515   2.078   5.830  0.0986 -0.1874  0.3322
   10SAPS   C11 1207   1.464   1.998   6.098 -0.1110 -0.5224  0.4079
   10SAPS  H11A 1208   1.464   1.897   6.052  1.6868 -0.4291  0.1396
   10SAPS  H11B 1209   1.382   2.056   6.051 -0.0450 -1.3694 -0.7895
   10SAPS     P 1210   1.364   1.900   6.322 -0.0858 -0.1015 -0.1102
   10SAPS   O13 1211   1.249   1.846   6.247  0.2136  0.2858 -0.2303
   10SAPS   O14 1212   1.452   1.799   6.391 -0.3710 -0.2182 -0.0546
   10SAPS   O12 1213   1.450   2.004   6.236  0.0098 -0.8013  0.4092
   10SAPS   O11 1214   1.306   2.004   6.433 -0.6042  0.1007 -0.1180
   10SAPS    C1 1215   1.376   2.125   6.452 -0.4722  0.0121 -0.2386
   10SAPS    HA 1216   1.485   2.103   6.459 -0.7855 -1.4049  0.4004
   10SAPS    HB 1217   1.354   2.194   6.367  0.0229 -2.5073 -2.5395
   10SAPS    C2 1218   1.316   2.198   6.580 -1.0238  0.0098  0.5164
   10SAPS    HS 1219   1.382   2.286   6.593 -0.5592  0.0940 -2.0763
   10SAPS   O21 1220   1.318   2.112   6.697  0.2071 -0.0634  0.6634
   10SAPS   C21 1221   1.423   2.116   6.770  0.0887 -0.5794 -0.5922
   10SAPS   O22 1222   1.532   2.156   6.742 -0.0417  0.6327  0.2565
   10SAPS   C22 1223   1.390   2.045   6.901  0.0705  0.9105 -0.7217
   10SAPS   H2R 1224   1.287   2.005   6.892  0.9055 -1.5419 -0.0620
   10SAPS   H2S 1225   1.456   1.957   6.915  0.2891  1.2733  0.6646
   10SAPS    C3 1226   1.170   2.237   6.560  0.1083  0.0941  0.2207
   10SAPS    HX 1227   1.116   2.145   6.527 -1.3470  1.7383 -2.3787
   10SAPS    HY 1228   1.169   2.296   6.466  3.5215  0.5978  0.3822
   10SAPS   O31 1229   1.113   2.299   6.673  0.1363 -0.3010  0.3043
   10SAPS   C31 1230   0.997   2.254   6.716  0.6805  0.1054  0.1296
   10SAPS   O32 1231   0.934   2.170   6.654  0.0753  0.7800 -0.2121
   10SAPS   C32 1232   0.962   2.311   6.851 -0.0030  0.2334 -0.1260
   10SAPS   H2X 1233   0.909   2.407   6.831 -1.0519 -0.5823 -1.4582
   10SAPS   H2Y 1234   1.054   2.323   6.912 -0.9556 -3.5365  2.3382
   10SAPS   C23 1235   1.403   2.138   7.024  0.1091 -0.1493  0.1186
   10SAPS   H3R 1236   1.353   2.236   7.006 -0.4959 -0.7176 -1.4888
   10SAPS   H3S 1237   1.508   2.169   7.045 -0.3782  1.6385  0.0587
   10SAPS   C24 1238   1.342   2.091   7.156  0.1664  0.3025 -0.5711
   10SAPS   H4R 1239   1.373   2.162   7.235  1.0240  1.6982 -2.0944
   10SAPS   H4S 1240   1.388   1.992   7.175 -0.2677 -0.1339 -1.7215
   10SAPS   C25 1241   1.190   2.082   7.158  0.3027  0.0098  0.8277
   10SAPS   H5R 1242   1.135   2.041   7.071  0.6640 -0.6533  0.9114
   10SAPS   C26 1243   1.114   2.126   7.259 -0.2000  0.3986 -0.1532
   10SAPS   H6R 1244   1.005   2.127   7.245  0.0978  0.7825 -2.9658
   10SAPS   C27 1245   1.159   2.179   7.393 -0.1278 -0.4907  0.2748
   10SAPS   H7R 1246   1.228   2.265   7.380 -1.3654  0.2354 -1.9796
   10SAPS   H7S 1247   1.212   2.092   7.439 -0.8818  0.1210  2.4183
   10SAPS   C28 1248   1.057   2.239   7.485 -0.4765 -0.0104 -1.1006
   10SAPS   H8R 1249   1.017   2.337   7.456 -1.2792  0.0356  0.0695
   10SAPS   C29 1250   1.008   2.191   7.601 -0.4030  0.0191  0.0292
   10SAPS   H9R 1251   0.938   2.246   7.665  0.0447 -0.4884  0.9647
   10SAPS  C210 1252   1.047   2.055   7.653  0.8131  0.3676 -0.3422
   10SAPS  H10R 1253   1.147   2.057   7.702  1.2117 -2.2864 -0.8835
   10SAPS  H10S 1254   1.086   1.989   7.573 -0.3084 -1.0388  0.2417
   10SAPS  C211 1255   0.946   1.986   7.742 -0.2489 -0.4204  0.1000
   10SAPS  H11R 1256   0.897   1.895   7.706 -2.6643  0.3892  1.1244
   10SAPS  C212 1257   0.904   2.027   7.867 -0.1374  0.7593  0.6499
   10SAPS  H12R 1258   0.843   1.958   7.929  1.1477 -0.0865  1.0046
   10SAPS  C213 1259   0.960   2.149   7.938 -0.4165  0.2418  0.2959
   10SAPS  H13R 1260   0.874   2.212   7.970 -0.8625 -0.2350  0.0566
   10SAPS  H13S 1261   1.016   2.210   7.864  0.2588 -1.1503 -0.3888
   10SAPS  C214 1262   1.043   2.104   8.058 -0.3395  0.0642 -0.6037
   10SAPS  H14R 1263   1.124   2.035   8.031 -2.2035 -1.4361 -2.7476
   10SAPS  C215 1264   1.023   2.145   8.188  0.3099  0.5794  0.3924
   10SAPS  H15R 1265   1.095   2.121   8.267 -0.5360  3.5634  2.2300
   10SAPS  C216 1266   0.905   2.231   8.242 -0.0439 -0.4924 -0.4747
   10SAPS  H16R 1267   0.838   2.272   8.163 -1.5586 -1.6404  0.1753
   10SAPS  H16S 1268   0.951   2.324   8.282  1.1748 -0.0529 -2.6972
   10SAPS  C217 1269   0.830   2.149   8.347 -0.7297  0.0400  0.6922
   10SAPS  H17R 1270   0.900   2.094   8.414 -0.9067  0.2126  1.0213
   10SAPS  H17S 1271   0.774   2.064   8.301 -1.0916  0.3828  0.4922
   10SAPS  C218 1272   0.734   2.236   8.421  0.4127 -0.3746 -0.2862
   10SAPS  H18R 1273   0.653   2.177   8.468 -0.8975  1.4752 -0.1334
   10SAPS  H18S 1274   0.684   2.300   8.345 -0.2022  0.2807  0.6503
   10SAPS  C219 1275   0.794   2.331   8.526 -0.4561  0.6362 -0.0172
   10SAPS  H19R 1276   0.863   2.407   8.482 -1.9496  0.2065 -3.3797
   10SAPS  H19S 1277   0.854   2.273   8.599 -2.9255 -0.0717  1.5415
   10SAPS  C220 1278   0.694   2.406   8.618 -0.3605 -0.1538 -0.3468
   10SAPS  H20R 1279   0.737   2.495   8.670  0.6593 -0.3067 -0.9039
   10SAPS  H20S 1280   0.668   2.330   8.695 -2.4872  0.1737 -0.6702
   10SAPS  H20T 1281   0.607   2.441   8.558 -1.0541  0.0419  0.7374
   10SAPS   C33 1282   0.878   2.213   6.931 -0.8246  0.2207  0.7521
   10SAPS   H3X 1283   0.954   2.134   6.945  1.1161  2.2348  2.1952
   10SAPS   H3Y 1284   0.791   2.176   6.872 -0.1327 -2.2097  1.1586
   10SAPS   C34 1285   0.839   2.270   7.064  0.2671  0.5587 -0.7372
   10SAPS   H4X 1286   0.765   2.352   7.048 -1.2888 -0.5067  0.6957
   10SAPS   H4Y 1287   0.928   2.305   7.120 -1.1030  0.3529  1.7290
   10SAPS   C35 1288   0.759   2.175   7.157 -0.1285  0.5560 -0.1343
   10SAPS   H5X 1289   0.821   2.083   7.154  0.2349  0.7720  0.5514
   10SAPS   H5Y 1290   0.657   2.153   7.119  0.2901 -2.0512  0.0472
   10SAPS   C36 1291   0.741   2.233   7.301  0.3412 -0.1028  0.2073
   10SAPS   H6X 1292   0.689   2.330   7.286 -0.5027 -0.6250 -0.3982
   10SAPS   H6Y 1293   0.842   2.264   7.334  0.2083 -2.2194  2.9702
   10SAPS   C37 1294   0.682   2.135   7.398  0.3767  0.1879 -0.0390
   10SAPS   H7X 1295   0.717   2.155   7.502 -2.2390 -2.7190  1.5738
   10SAPS   H7Y 1296   0.722   2.032   7.390 -0.6352 -0.2328  0.0945
   10SAPS   C38 1297   0.529   2.135   7.390 -0.5350  0.2452  0.5475
   10SAPS   H8X 1298   0.512   2.114   7.283  0.7144 -2.6478  0.8078
   10SAPS   H8Y 1299   0.493   2.238   7.411 -1.3561  0.4118 -1.4980
   10SAPS   C39 1300   0.465   2.031   7.487 -0.3639  0.5399  0.3391
   10SAPS   H9X 1301   0.499   1.929   7.460 -0.9375  0.4127  0.0851
   10SAPS   H9Y 1302   0.355   2.036   7.476 -0.3936  0.7919  0.7252
   10SAPS  C310 1303   0.500   2.050   7.633  0.6152  0.8003  0.3117
   10SAPS  H10X 1304   0.608   2.030   7.649  0.4849 -0.7980 -0.5902
   10SAPS  H10Y 1305   0.457   1.966   7.691  1.8918  0.0048  0.1416
   10SAPS  C311 1306   0.457   2.182   7.706  0.2267 -0.4730  0.3700
   10SAPS  H11X 1307   0.358   2.210   7.665  1.4345 -0.0061 -2.5047
   10SAPS  H11Y 1308   0.531   2.252   7.660  0.8353 -1.3077  0.0490
   10SAPS  C312 1309   0.471   2.167   7.860  0.3027 -1.0611 -0.1988
   10SAPS  H12X 1310   0.567   2.119   7.888  0.1939 -0.6854  0.9067
   10SAPS  H12Y 1311   0.391   2.101   7.901 -0.4923  0.4945  0.8470
   10SAPS  C313 1312   0.441   2.307   7.927  0.1417  0.0009  0.0978
   10SAPS  H13X 1313   0.357   2.355   7.873 -0.4683 -0.5631  0.5214
   10SAPS  H13Y 1314   0.523   2.378   7.905 -1.0794  0.7930 -2.1204
   10SAPS  C314 1315   0.412   2.307   8.077 -0.8615 -0.1069  0.4816
   10SAPS  H14X 1316   0.497   2.258   8.130 -0.5172 -1.7366 -1.4725
   10SAPS  H14Y 1317   0.323   2.249   8.107 -1.2909  0.4747  0.3591
   10SAPS  C315 1318   0.396   2.445   8.134  0.6702  0.0694 -0.0286
   10SAPS  H15X 1319   0.295   2.479   8.100  1.3367  0.4888 -1.6695
   10SAPS  H15Y 1320   0.478   2.510   8.097  1.4849 -0.5551  0.6347
   10SAPS  C316 1321   0.405   2.444   8.292 -0.0492 -0.2410 -0.2311
   10SAPS  H16X 1322   0.395   2.550   8.323 -0.0012 -0.8186  1.8923
   10SAPS  H16Y 1323   0.508   2.413   8.318 -0.0313 -1.2887 -1.4627
   10SAPS  C317 1324   0.300   2.356   8.363 -0.2219  0.3289  1.0012
   10SAPS  H17X 1325   0.320   2.250   8.338  1.8028  0.7698  0.6342
   10SAPS  H17Y 1326   0.195   2.381   8.334 -0.2696  0.8415  1.5875
   10SAPS  C318 1327   0.301   2.358   8.518  0.1637  0.3154 -0.3857
   10SAPS  H18X 1328   0.408   2.335   8.540  0.1590 -0.0068 -0.6904
   10SAPS  H18Y 1329   0.231   2.283   8.560  0.0805  0.6235  0.0338
   10SAPS  H18Z 1330   0.271   2.454   8.564  3.7122  0.1886  2.7281
   11SAPS     N 1331   3.423   4.877   5.894 -0.2398 -0.0816 -0.1457
   11SAPS   HN1 1332   3.376   4.969   5.905  1.4740  0.8480 -0.1902
   11SAPS   HN2 1333   3.382   4.815   5.967 -1.1657  1.0986  0.3722
   11SAPS   HN3 1334   3.525   4.895   5.912 -0.3512 -0.0908  0.5352
   11SAPS   C12 1335   3.411   4.808   5.760  0.6422 -0.3832 -0.1484
   11SAPS  H12A 1336   3.312   4.817   5.719  0.6067 -1.2171 -0.2478
   11SAPS   C13 1337   3.508   4.864   5.653 -0.2635 -0.6199  0.1830
   11SAPS  O13A 1338   3.601   4.940   5.691  0.1527 -0.1245  0.2524
   11SAPS  O13B 1339   3.488   4.840   5.533  0.3271  0.6460 -0.0457
   11SAPS   C11 1340   3.457   4.661   5.778  0.0774 -0.5362 -0.6452
   11SAPS  H11A 1341   3.553   4.655   5.834 -1.2127 -0.0207  1.7839
   11SAPS  H11B 1342   3.477   4.619   5.677  0.4202  0.7090 -1.1177
   11SAPS     P 1343   3.359   4.536   5.997 -0.6470  0.0844  0.0647
   11SAPS   O13 1344   3.401   4.664   6.064 -0.4072  0.7341 -0.1833
   11SAPS   O14 1345   3.226   4.479   6.031  0.1505  0.1035 -0.7591
   11SAPS   O12 1346   3.353   4.583   5.845 -0.0555  0.1176 -0.6597
   11SAPS   O11 1347   3.476   4.433   5.999 -0.4197  0.0185  0.0769
   11SAPS    C1 1348   3.582   4.440   6.100  0.5233  0.0764  0.0678
   11SAPS    HA 1349   3.675   4.405   6.050  1.0652  1.3143  0.1858
   11SAPS    HB 1350   3.597   4.544   6.133 -0.8199  0.0986  0.6792
   11SAPS    C2 1351   3.538   4.357   6.223 -0.0487  0.7663  1.0893
   11SAPS    HS 1352   3.477   4.269   6.193  2.1655 -0.3816 -0.2841
   11SAPS   O21 1353   3.464   4.451   6.300 -0.3918  0.3174  0.1346
   11SAPS   C21 1354   3.365   4.400   6.378  0.1250  0.3170  0.0482
   11SAPS   O22 1355   3.341   4.283   6.383 -0.2777  0.1178  0.1858
   11SAPS   C22 1356   3.290   4.513   6.456  0.4014  0.4943  0.8306
   11SAPS   H2R 1357   3.349   4.606   6.445  0.2844  0.4165 -0.6655
   11SAPS   H2S 1358   3.187   4.524   6.414  0.1205  0.2973  1.4613
   11SAPS    C3 1359   3.667   4.302   6.299  0.5411  0.0773  1.1933
   11SAPS    HX 1360   3.726   4.391   6.327  0.9175 -0.0543  0.8160
   11SAPS    HY 1361   3.729   4.243   6.228  0.2169  1.0015  0.1221
   11SAPS   O31 1362   3.633   4.224   6.415 -0.1103  0.2184  0.0419
   11SAPS   C31 1363   3.685   4.259   6.523 -0.1648  0.0133 -0.4089
   11SAPS   O32 1364   3.784   4.332   6.544  0.9208 -0.2401 -0.1886
   11SAPS   C32 1365   3.596   4.184   6.629  0.6234  0.5523 -0.8359
   11SAPS   H2X 1366   3.578   4.083   6.587  0.4213 -0.1270  0.8286
   11SAPS   H2Y 1367   3.504   4.242   6.653  1.9534  2.0217  1.0288
   11SAPS   C23 1368   3.265   4.478   6.605 -0.1056 -0.3962  0.4947
   11SAPS   H3R 1369   3.272   4.571   6.665 -1.1148  0.6955 -1.0232
   11SAPS   H3S 1370   3.354   4.419   6.637  0.5418 -0.1536 -0.8175
   11SAPS   C24 1371   3.137   4.402   6.645 -0.0698 -0.1943  0.5468
   11SAPS   H4R 1372   3.144   4.365   6.749 -0.4671 -0.0340  0.6316
   11SAPS   H4S 1373   3.145   4.308   6.585 -1.8757 -0.0928  0.0875
   11SAPS   C25 1374   3.020   4.491   6.622 -0.2700 -0.8625  0.4307
   11SAPS   H5R 1375   3.018   4.518   6.515  1.5441  0.1213  0.6130
   11SAPS   C26 1376   2.926   4.526   6.716 -0.5950  0.0746 -0.3005
   11SAPS   H6R 1377   2.847   4.590   6.674  0.5438  2.1355  0.5192
   11SAPS   C27 1378   2.924   4.486   6.858  0.2000  0.8358 -0.8693
   11SAPS   H7R 1379   2.993   4.552   6.915  0.0830 -1.2886  1.9747
   11SAPS   H7S 1380   2.965   4.384   6.876  0.5139  0.9827 -0.7389
   11SAPS   C28 1381   2.785   4.491   6.921  0.6197  0.2028 -0.2942
   11SAPS   H8R 1382   2.705   4.520   6.851 -0.0279  0.1011  0.3982
   11SAPS   C29 1383   2.760   4.491   7.049 -0.6289 -0.2209 -0.4281
   11SAPS   H9R 1384   2.654   4.503   7.076 -1.3045  0.7429 -3.1908
   11SAPS  C210 1385   2.860   4.479   7.169 -0.5841 -0.1822  0.9068
   11SAPS  H10R 1386   2.957   4.446   7.125 -1.4016  0.0639 -1.2135
   11SAPS  H10S 1387   2.828   4.413   7.253 -2.1406 -0.9921 -0.2641
   11SAPS  C211 1388   2.874   4.617   7.236 -0.2037 -0.2117  0.0839
   11SAPS  H11R 1389   2.905   4.700   7.170 -0.4019 -0.4755 -0.3509
   11SAPS  C212 1390   2.850   4.645   7.370  0.1392 -0.4501  0.1571
   11SAPS  H12R 1391   2.867   4.751   7.396  1.2581 -0.5582 -0.0861
   11SAPS  C213 1392   2.814   4.552   7.480 -0.2593 -0.2043 -0.2796
   11SAPS  H13R 1393   2.863   4.585   7.574  0.2718  0.6162 -0.8334
   11SAPS  H13S 1394   2.855   4.450   7.463  0.7477  0.4377 -2.0486
   11SAPS  C214 1395   2.661   4.541   7.486  0.4290 -0.6859 -0.2787
   11SAPS  H14R 1396   2.607   4.588   7.403  0.2366 -1.0894 -0.3869
   11SAPS  C215 1397   2.593   4.497   7.593 -0.1226  0.7234 -0.3605
   11SAPS  H15R 1398   2.484   4.514   7.590  0.0831  2.1573 -0.3187
   11SAPS  C216 1399   2.645   4.444   7.717 -0.3204 -0.2883 -0.2569
   11SAPS  H16R 1400   2.756   4.435   7.721 -0.4213 -1.0899  1.7929
   11SAPS  H16S 1401   2.610   4.341   7.736  0.9350 -1.1099 -2.1407
   11SAPS  C217 1402   2.603   4.523   7.847 -0.0245 -0.8712 -0.1756
   11SAPS  H17R 1403   2.496   4.518   7.875  0.2265  0.4089  1.1428
   11SAPS  H17S 1404   2.632   4.630   7.836  2.0104 -0.9591  3.0062
   11SAPS  C218 1405   2.678   4.477   7.968 -0.0595  0.1712  0.4596
   11SAPS  H18R 1406   2.787   4.492   7.954  0.2066 -0.2506  1.9200
   11SAPS  H18S 1407   2.664   4.370   7.993  1.4552 -0.2333 -0.2808
   11SAPS  C219 1408   2.626   4.560   8.088 -0.5789 -0.0113 -0.0889
   11SAPS  H19R 1409   2.515   4.565   8.093 -0.5697  3.1003 -1.0261
   11SAPS  H19S 1410   2.664   4.662   8.069 -0.0012  0.4167  2.8711
   11SAPS  C220 1411   2.685   4.500   8.223  0.3681 -0.5765 -0.1577
   11SAPS  H20R 1412   2.657   4.553   8.316 -1.2706 -0.9708 -0.3936
   11SAPS  H20S 1413   2.795   4.484   8.212  0.9588  1.2801  2.1920
   11SAPS  H20T 1414   2.647   4.397   8.237 -1.8493  0.0389 -1.2803
   11SAPS   C33 1415   3.675   4.170   6.764  0.0313 -1.0289  0.3064
   11SAPS   H3X 1416   3.695   4.274   6.795  1.7845 -0.9182 -1.0566
   11SAPS   H3Y 1417   3.771   4.115   6.754 -0.1766 -1.3672  0.1332
   11SAPS   C34 1418   3.589   4.115   6.873 -0.3424 -0.3027 -0.5201
   11SAPS   H4X 1419   3.560   4.011   6.850 -1.6582 -0.7218  2.5682
   11SAPS   H4Y 1420   3.490   4.165   6.880 -0.9329 -1.4531 -0.4599
   11SAPS   C35 1421   3.648   4.115   7.019 -0.0960 -0.8365  0.8052
   11SAPS   H5X 1422   3.711   4.205   7.034 -0.2041 -0.2349 -1.8093
   11SAPS   H5Y 1423   3.714   4.026   7.027 -2.7542 -3.1533 -0.9751
   11SAPS   C36 1424   3.531   4.095   7.109  0.0902  1.0043 -0.0391
   11SAPS   H6X 1425   3.492   3.997   7.072  1.3727 -0.0778  1.3706
   11SAPS   H6Y 1426   3.454   4.174   7.104 -0.3938  0.4694 -1.7569
   11SAPS   C37 1427   3.558   4.085   7.260 -0.3617  1.0943 -0.1446
   11SAPS   H7X 1428   3.571   4.183   7.310  0.2758  0.1073  1.7358
   11SAPS   H7Y 1429   3.660   4.043   7.260 -0.6893  0.2023 -1.6082
   11SAPS   C38 1430   3.473   3.997   7.350  0.0170 -0.2020  0.5609
   11SAPS   H8X 1431   3.492   3.890   7.327 -0.0058  0.1686 -1.4327
   11SAPS   H8Y 1432   3.367   4.018   7.325  0.0612  0.2428  0.7469
   11SAPS   C39 1433   3.499   4.024   7.499  0.2006 -0.1983 -0.3454
   11SAPS   H9X 1434   3.465   4.128   7.519  1.3922  0.2977 -0.8373
   11SAPS   H9Y 1435   3.610   4.021   7.503  0.1721 -2.2143 -0.0637
   11SAPS  C310 1436   3.439   3.911   7.575 -0.3923 -0.4442 -0.2670
   11SAPS  H10X 1437   3.498   3.819   7.552  0.2419 -0.1507  0.1413
   11SAPS  H10Y 1438   3.334   3.883   7.552 -0.2231 -1.7663  0.4520
   11SAPS  C311 1439   3.431   3.935   7.726  0.3774 -0.6279  0.1730
   11SAPS  H11X 1440   3.375   4.030   7.734 -1.3738 -1.6967  1.1630
   11SAPS  H11Y 1441   3.531   3.959   7.769 -0.0243  1.5246  0.0020
   11SAPS  C312 1442   3.346   3.843   7.807  0.5427 -0.4788 -0.1104
   11SAPS  H12X 1443   3.385   3.739   7.795  0.2301 -0.6703  0.5022
   11SAPS  H12Y 1444   3.236   3.838   7.790  0.1618  2.4004  1.0196
   11SAPS  C313 1445   3.362   3.880   7.962  0.3134  0.4500 -0.1059
   11SAPS  H13X 1446   3.367   3.990   7.975  0.9130  0.3874  0.2635
   11SAPS  H13Y 1447   3.464   3.843   7.987 -0.5120 -0.6787  1.8426
   11SAPS  C314 1448   3.261   3.815   8.058 -0.4632 -0.5609 -0.8155
   11SAPS  H14X 1449   3.250   3.704   8.052 -1.0866 -0.6311  0.9937
   11SAPS  H14Y 1450   3.159   3.850   8.033 -1.1064 -1.2862  0.6997
   11SAPS  C315 1451   3.291   3.855   8.202  0.2707 -0.6037  1.0050
   11SAPS  H15X 1452   3.294   3.965   8.217  1.2789 -0.5183  0.3155
   11SAPS  H15Y 1453   3.385   3.813   8.244  0.0387 -0.3657  1.7876
   11SAPS  C316 1454   3.170   3.823   8.285  0.5048  0.9652 -0.3176
   11SAPS  H16X 1455   3.151   3.714   8.290 -0.3264  1.1460  0.6206
   11SAPS  H16Y 1456   3.079   3.859   8.233 -0.4910 -0.2893  0.5192
   11SAPS  C317 1457   3.184   3.861   8.436 -0.1967  0.3458  0.3434
   11SAPS  H17X 1458   3.191   3.971   8.437  1.1655  0.2777 -0.1273
   11SAPS  H17Y 1459   3.280   3.816   8.470 -1.7988 -2.5366  1.4378
   11SAPS  C318 1460   3.064   3.803   8.513  0.2484 -0.3696 -0.3909
   11SAPS  H18X 1461   3.078   3.817   8.623 -1.2440  0.6162 -0.3020
   11SAPS  H18Y 1462   3.064   3.694   8.489 -2.8377 -0.8532  1.3486
   11SAPS  H18Z 1463   2.965   3.834   8.476  0.5036 -0.2724 -1.0023
   12SAPS     N 1464   1.935   6.377   6.017  0.4215 -0.3888 -0.1337
   12SAPS   HN1 1465   1.863   6.311   6.051  0.1349 -0.4650 -0.8618
   12SAPS   HN2 1466   2.029   6.333   6.014  1.1886  0.7819  3.1973
   12SAPS   HN3 1467   1.939   6.464   6.075 -0.8960 -0.9112  0.7775
   12SAPS   C12 1468   1.906   6.426   5.876  1.0467 -0.6256  0.4875
   12SAPS  H12A 1469   1.877   6.339   5.819 -1.4365  0.3030  0.1849
   12SAPS   C13 1470   1.781   6.515   5.866 -0.7450 -0.7684 -0.3033
   12SAPS  O13A 1471   1.698   6.515   5.958 -0.2762  0.0859 -0.1199
   12SAPS  O13B 1472   1.740   6.556   5.750 -0.4350  0.5061 -0.6100
   12SAPS   C11 1473   2.026   6.518   5.825 -0.2627  0.4331 -0.0843
   12SAPS  H11A 1474   1.998   6.567   5.730 -0.0993  0.1710 -0.2687
   12SAPS  H11B 1475   2.102   6.440   5.800 -0.6346 -0.2055  0.7070
   12SAPS     P 1476   2.172   6.723   5.904 -0.3481  0.1082 -0.0722
   12SAPS   O13 1477   2.230   6.706   5.773 -0.4289 -0.6086 -0.4715
   12SAPS   O14 1478   2.105   6.849   5.941  0.3411 -0.3464 -0.1738
   12SAPS   O12 1479   2.077   6.595   5.936 -0.0992 -0.6201  0.0084
   12SAPS   O11 1480   2.282   6.715   6.008 -0.0864 -0.3574  0.0846
   12SAPS    C1 1481   2.386   6.615   5.992 -0.3788  0.0387 -0.1141
   12SAPS    HA 1482   2.371   6.548   5.904 -0.6879 -0.2825  0.1786
   12SAPS    HB 1483   2.488   6.658   5.992 -0.2388 -0.0662  2.8312
   12SAPS    C2 1484   2.375   6.518   6.107  0.6351 -0.1164  0.5795
   12SAPS    HS 1485   2.278   6.465   6.095 -0.0420  1.3579 -0.9719
   12SAPS   O21 1486   2.378   6.597   6.226  0.1533 -0.0407 -0.5224
   12SAPS   C21 1487   2.317   6.553   6.326 -0.5572  0.7642  0.5011
   12SAPS   O22 1488   2.241   6.457   6.335 -0.3302  0.2808 -0.1028
   12SAPS   C22 1489   2.350   6.646   6.442 -0.0763 -0.1339  0.5503
   12SAPS   H2R 1490   2.461   6.653   6.435 -0.1994  0.4316 -1.2089
   12SAPS   H2S 1491   2.301   6.742   6.415  0.9152  0.0532 -0.6995
   12SAPS    C3 1492   2.479   6.405   6.113  0.8022  0.5666 -0.7061
   12SAPS    HX 1493   2.573   6.446   6.156  1.3299  0.3969 -1.6590
   12SAPS    HY 1494   2.499   6.377   6.007 -1.5746  3.3446 -2.0690
   12SAPS   O31 1495   2.418   6.285   6.180 -0.2179  0.6175  0.1349
   12SAPS   C31 1496   2.505   6.188   6.194 -0.3411 -0.6754 -0.0836
   12SAPS   O32 1497   2.624   6.195   6.169  0.2974 -0.0003 -0.5032
   12SAPS   C32 1498   2.435   6.060   6.244 -0.4241 -0.3621  0.0191
   12SAPS   H2X 1499   2.520   5.990   6.259 -0.5581 -0.4818  0.2271
   12SAPS   H2Y 1500   2.384   6.015   6.157 -0.0290 -0.9820  0.0982
   12SAPS   C23 1501   2.310   6.614   6.583 -0.1559  0.6941  0.2621
   12SAPS   H3R 1502   2.392   6.556   6.630 -2.0141 -1.6437  0.8550
   12SAPS   H3S 1503   2.229   6.538   6.588  1.1053 -0.6536  0.9727
   12SAPS   C24 1504   2.274   6.740   6.670 -1.1006 -0.9369 -0.6325
   12SAPS   H4R 1505   2.243   6.725   6.776 -0.7331  1.3674 -0.1611
   12SAPS   H4S 1506   2.193   6.797   6.620  0.7291  1.7183 -0.7747
   12SAPS   C25 1507   2.395   6.839   6.689 -0.2782 -0.0789 -0.2362
   12SAPS   H5R 1508   2.459   6.847   6.599  0.3161  0.5624  0.2330
   12SAPS   C26 1509   2.420   6.912   6.799 -0.0773  0.0666  0.3271
   12SAPS   H6R 1510   2.509   6.977   6.800  0.5558 -0.7868  1.2609
   12SAPS   C27 1511   2.340   6.924   6.929 -0.8304 -0.6148 -0.0124
   12SAPS   H7R 1512   2.237   6.883   6.917 -0.5620 -0.7067 -2.3129
   12SAPS   H7S 1513   2.336   7.031   6.960 -0.3276 -0.4324 -0.5651
   12SAPS   C28 1514   2.386   6.826   7.035  1.2464 -0.0094  0.0793
   12SAPS   H8R 1515   2.356   6.723   7.012  0.4034  0.0363  0.9104
   12SAPS   C29 1516   2.440   6.843   7.158 -0.0596  1.0954  0.4646
   12SAPS   H9R 1517   2.471   6.753   7.214  0.2987 -0.1580 -1.6097
   12SAPS  C210 1518   2.461   6.972   7.224  0.7390  0.7589 -0.4291
   12SAPS  H10R 1519   2.392   7.050   7.184 -0.5656 -0.7604 -1.2368
   12SAPS  H10S 1520   2.558   7.019   7.195  0.8150  1.5042  0.9178
   12SAPS  C211 1521   2.451   6.970   7.379  0.2765  0.7148  0.7138
   12SAPS  H11R 1522   2.531   6.912   7.427  0.4270 -1.1270 -1.5933
   12SAPS  C212 1523   2.349   7.004   7.456  0.3720 -0.7184  0.6191
   12SAPS  H12R 1524   2.358   6.996   7.566 -2.3396 -1.4552  0.8486
   12SAPS  C213 1525   2.207   7.058   7.415 -0.0245 -0.4093  1.0385
   12SAPS  H13R 1526   2.206   7.114   7.319 -3.1391 -0.4986  0.9421
   12SAPS  H13S 1527   2.178   7.134   7.490 -2.8292  0.2858 -0.6197
   12SAPS  C214 1528   2.109   6.938   7.425  0.0297 -0.9201 -0.5507
   12SAPS  H14R 1529   2.126   6.855   7.355  1.3576 -1.0194 -0.1333
   12SAPS  C215 1530   1.999   6.921   7.499  0.4726  0.3547 -0.3849
   12SAPS  H15R 1531   1.956   6.820   7.491  0.6001  0.3111 -0.5217
   12SAPS  C216 1532   1.939   7.021   7.599  0.1099  0.1560  0.0504
   12SAPS  H16R 1533   1.839   7.047   7.560  0.4972  1.0632 -0.3757
   12SAPS  H16S 1534   2.009   7.108   7.606 -0.6534  0.8784 -0.9987
   12SAPS  C217 1535   1.935   6.952   7.739 -0.3448  0.4185 -0.0647
   12SAPS  H17R 1536   1.884   6.854   7.732 -0.6354  0.6140 -0.9292
   12SAPS  H17S 1537   1.880   7.029   7.797 -1.5311 -0.2103 -0.3350
   12SAPS  C218 1538   2.075   6.934   7.797  0.5972  0.3572 -0.1132
   12SAPS  H18R 1539   2.132   7.030   7.800  0.7260  0.2691  0.6191
   12SAPS  H18S 1540   2.131   6.867   7.729  0.3731 -1.2382  1.1964
   12SAPS  C219 1541   2.063   6.879   7.936  0.7263 -0.3382 -0.3190
   12SAPS  H19R 1542   2.149   6.812   7.958 -0.3654 -1.4988  0.5518
   12SAPS  H19S 1543   1.976   6.812   7.951  0.0618  0.7138  0.7063
   12SAPS  C220 1544   2.052   6.991   8.039  0.4183 -0.8829 -0.3110
   12SAPS  H20R 1545   2.017   6.951   8.137  2.8487  1.3059  1.5627
   12SAPS  H20S 1546   1.982   7.070   8.005  0.0728 -0.8814  0.3753
   12SAPS  H20T 1547   2.151   7.034   8.061 -0.3666  1.9790 -1.9314
   12SAPS   C33 1548   2.369   6.074   6.380  0.1549 -0.0396  0.3601
   12SAPS   H3X 1549   2.298   5.989   6.387 -1.0201  0.4767 -3.4511
   12SAPS   H3Y 1550   2.303   6.163   6.371  0.2684  0.0438  0.3555
   12SAPS   C34 1551   2.451   6.067   6.504  0.0056  0.1135 -0.4795
   12SAPS   H4X 1552   2.513   5.976   6.505  1.1102  0.8468  0.8562
   12SAPS   H4Y 1553   2.383   6.067   6.592 -1.9196  0.4275 -1.8848
   12SAPS   C35 1554   2.540   6.195   6.518  0.3272  0.5648 -0.0084
   12SAPS   H5X 1555   2.499   6.293   6.485 -0.6415  0.1231 -0.1460
   12SAPS   H5Y 1556   2.629   6.179   6.453 -0.0573 -0.6820 -0.2546
   12SAPS   C36 1557   2.576   6.223   6.662 -0.5311 -0.1113 -0.5178
   12SAPS   H6X 1558   2.493   6.210   6.735 -0.6524 -0.5532 -0.7342
   12SAPS   H6Y 1559   2.602   6.330   6.643 -0.6496  0.2336  1.0811
   12SAPS   C37 1560   2.695   6.134   6.705 -0.1197 -0.0713  0.9217
   12SAPS   H7X 1561   2.776   6.136   6.628  0.3840 -0.2489  1.4378
   12SAPS   H7Y 1562   2.677   6.025   6.707  1.9332 -0.4791  0.1622
   12SAPS   C38 1563   2.760   6.186   6.829  0.2655 -0.5898 -0.1170
   12SAPS   H8X 1564   2.758   6.297   6.832 -0.5360 -0.5934 -0.4581
   12SAPS   H8Y 1565   2.861   6.139   6.835 -0.3833 -1.9987 -0.0429
   12SAPS   C39 1566   2.684   6.126   6.947 -0.1409  0.4435  0.0584
   12SAPS   H9X 1567   2.688   6.015   6.943  1.1150  0.5197 -2.8159
   12SAPS   H9Y 1568   2.578   6.152   6.925 -0.0543  0.2414 -0.6270
   12SAPS  C310 1569   2.735   6.164   7.090  0.5173  0.1820  0.6580
   12SAPS  H10X 1570   2.730   6.275   7.100 -4.3906  0.1976  0.5679
   12SAPS  H10Y 1571   2.837   6.123   7.105 -0.1029 -1.9209 -0.4932
   12SAPS  C311 1572   2.639   6.094   7.191  0.1959  0.2178 -0.0478
   12SAPS  H11X 1573   2.646   5.983   7.186 -1.4215  0.0545  0.6932
   12SAPS  H11Y 1574   2.536   6.133   7.174 -0.0077 -0.6084 -0.8117
   12SAPS  C312 1575   2.682   6.132   7.332  0.6721 -0.3594 -0.6066
   12SAPS  H12X 1576   2.659   6.240   7.345  0.0144 -0.3694 -1.6098
   12SAPS  H12Y 1577   2.792   6.135   7.344  0.5561 -0.2881  0.6096
   12SAPS  C313 1578   2.618   6.049   7.442 -0.3010  0.8328  0.0381
   12SAPS  H13X 1579   2.677   5.955   7.452 -1.0763  0.3226 -0.0926
   12SAPS  H13Y 1580   2.513   6.033   7.412 -0.0323 -0.4016 -0.3174
   12SAPS  C314 1581   2.617   6.121   7.575 -0.0096  0.7354  0.0391
   12SAPS  H14X 1582   2.542   6.201   7.562 -0.2865  0.3261 -0.9519
   12SAPS  H14Y 1583   2.716   6.168   7.597 -0.1333  0.7343  0.6117
   12SAPS  C315 1584   2.591   6.021   7.696  0.1934  0.3553  0.5715
   12SAPS  H15X 1585   2.663   5.937   7.687 -0.6718 -0.3222 -0.2827
   12SAPS  H15Y 1586   2.488   5.983   7.684 -0.6055  2.5315 -0.1173
   12SAPS  C316 1587   2.596   6.095   7.823  0.3771  0.0619 -0.4340
   12SAPS  H16X 1588   2.526   6.181   7.823 -0.5928 -0.7111 -0.2823
   12SAPS  H16Y 1589   2.699   6.138   7.830  0.7383 -0.5937 -1.5225
   12SAPS  C317 1590   2.549   6.006   7.933 -1.4372 -0.0686  0.4663
   12SAPS  H17X 1591   2.599   5.909   7.912 -0.2621  0.8141 -1.0462
   12SAPS  H17Y 1592   2.438   6.004   7.925 -1.5122  2.0414  0.5092
   12SAPS  C318 1593   2.578   6.065   8.073  0.2686 -0.8792  0.2058
   12SAPS  H18X 1594   2.531   5.999   8.149 -0.4885 -0.5355  0.0442
   12SAPS  H18Y 1595   2.532   6.165   8.088  3.0486  0.4922  0.1891
   12SAPS  H18Z 1596   2.688   6.077   8.086  0.0337 -0.7507  2.4298
   13SAPS     N 1597   3.853   2.409   5.957 -0.3289 -0.2436 -1.1713
   13SAPS   HN1 1598   3.905   2.342   5.896  1.7326  0.4797 -0.2913
   13SAPS   HN2 1599   3.785   2.470   5.907 -0.7297  0.9953  0.7910
   13SAPS   HN3 1600   3.930   2.457   6.008 -0.7901 -1.6103  0.9339
   13SAPS   C12 1601   3.777   2.325   6.058  0.1662  1.0562  0.0703
   13SAPS  H12A 1602   3.749   2.398   6.132  1.0920 -0.9810  2.5882
   13SAPS   C13 1603   3.645   2.255   6.003 -0.0598 -0.3286  0.0769
   13SAPS  O13A 1604   3.615   2.276   5.881  0.0870  0.9186  0.2189
   13SAPS  O13B 1605   3.570   2.198   6.085  0.7198  0.1585 -0.3901
   13SAPS   C11 1606   3.872   2.213   6.102 -0.4529 -0.4204  0.8763
   13SAPS  H11A 1607   3.910   2.165   6.009  0.9748  0.5989  0.9053
   13SAPS  H11B 1608   3.822   2.140   6.169 -2.6000  0.9364  0.8684
   13SAPS     P 1609   4.063   2.207   6.278  0.1346  0.1196 -0.2350
   13SAPS   O13 1610   4.099   2.067   6.239  0.6656 -0.0902  0.0342
   13SAPS   O14 1611   4.165   2.300   6.317 -0.3587 -0.1983  0.0654
   13SAPS   O12 1612   3.991   2.272   6.157  0.4169  0.2350 -0.8055
   13SAPS   O11 1613   3.954   2.200   6.391  0.0025  0.2111 -0.2687
   13SAPS    C1 1614   3.899   2.313   6.450 -0.1145 -0.4695  0.0249
   13SAPS    HA 1615   3.919   2.407   6.394 -0.3836 -0.1587  0.4512
   13SAPS    HB 1616   3.790   2.300   6.461 -0.2722  0.5957 -0.2008
   13SAPS    C2 1617   3.952   2.336   6.600 -0.8827 -0.5232  0.9597
   13SAPS    HS 1618   4.051   2.290   6.618 -1.2588 -0.5296  3.3401
   13SAPS   O21 1619   3.850   2.282   6.693  0.2552  0.5840 -0.3532
   13SAPS   C21 1620   3.861   2.152   6.697  0.1626  0.9262  0.7221
   13SAPS   O22 1621   3.958   2.086   6.655  0.1278  0.4495 -0.2797
   13SAPS   C22 1622   3.735   2.104   6.773  0.4051 -0.5158 -0.0672
   13SAPS   H2R 1623   3.760   1.998   6.798  1.9737 -0.1574  0.0101
   13SAPS   H2S 1624   3.737   2.166   6.865 -2.6063 -0.5503  0.1063
   13SAPS    C3 1625   3.975   2.486   6.648  0.1045  0.3101  0.0663
   13SAPS    HX 1626   3.878   2.539   6.638  0.2096  1.3951  3.5487
   13SAPS    HY 1627   4.051   2.530   6.579 -0.3896  0.1228 -0.6137
   13SAPS   O31 1628   4.019   2.490   6.787 -0.2610 -0.4918 -0.5023
   13SAPS   C31 1629   4.061   2.616   6.825 -0.2266  0.2765 -0.6471
   13SAPS   O32 1630   4.064   2.708   6.749 -0.4627 -0.3801  0.5353
   13SAPS   C32 1631   4.115   2.624   6.969  0.3963  0.3093 -0.5283
   13SAPS   H2X 1632   4.224   2.602   6.961  0.1095 -1.7940  0.4510
   13SAPS   H2Y 1633   4.061   2.545   7.025 -0.4900  1.0933 -0.2561
   13SAPS   C23 1634   3.605   2.120   6.688 -0.0999 -0.2617 -0.1463
   13SAPS   H3R 1635   3.632   2.106   6.581  2.8873 -0.4996  0.5448
   13SAPS   H3S 1636   3.555   2.218   6.704 -0.9311 -0.5237 -1.0840
   13SAPS   C24 1637   3.494   2.014   6.710  0.2494  0.3665 -0.6745
   13SAPS   H4R 1638   3.412   2.039   6.639  0.8121 -0.8040 -1.7748
   13SAPS   H4S 1639   3.438   2.031   6.805  0.9499  0.6814 -0.3060
   13SAPS   C25 1640   3.537   1.872   6.712 -0.6965 -0.3090  0.3078
   13SAPS   H5R 1641   3.582   1.855   6.613 -1.8238 -0.4859 -0.1881
   13SAPS   C26 1642   3.534   1.775   6.808  0.0643 -0.1026  0.3142
   13SAPS   H6R 1643   3.567   1.676   6.773  1.8248 -0.2326  2.1896
   13SAPS   C27 1644   3.483   1.761   6.953 -0.4474  0.0356  0.4914
   13SAPS   H7R 1645   3.445   1.856   6.997  0.2877 -0.2956  1.8934
   13SAPS   H7S 1646   3.577   1.737   7.007 -0.0362  0.2046 -0.1314
   13SAPS   C28 1647   3.390   1.644   6.982 -0.1213 -0.3139  0.9206
   13SAPS   H8R 1648   3.321   1.612   6.903  0.9003 -1.0759  0.3045
   13SAPS   C29 1649   3.383   1.574   7.097  0.6006 -0.2327 -0.3290
   13SAPS   H9R 1650   3.306   1.495   7.095  0.7108 -0.3334 -0.7903
   13SAPS  C210 1651   3.460   1.610   7.223  0.0802 -0.0141  0.3550
   13SAPS  H10R 1652   3.391   1.671   7.286 -2.5074 -0.2989 -1.9876
   13SAPS  H10S 1653   3.531   1.694   7.213 -0.7721  0.6009 -0.7778
   13SAPS  C211 1654   3.526   1.494   7.298  0.0210 -0.3626 -0.0164
   13SAPS  H11R 1655   3.635   1.480   7.289  0.1718 -0.0017  1.1742
   13SAPS  C212 1656   3.454   1.403   7.364  0.1099  0.5624  0.0214
   13SAPS  H12R 1657   3.497   1.317   7.418 -1.6638 -0.8498 -0.6868
   13SAPS  C213 1658   3.311   1.396   7.384 -0.0560 -0.3613 -0.7606
   13SAPS  H13R 1659   3.283   1.315   7.313 -2.6995 -0.7025  0.5796
   13SAPS  H13S 1660   3.261   1.494   7.367  1.4179  0.5863  0.1111
   13SAPS  C214 1661   3.261   1.376   7.525  0.2065 -0.0080 -0.8687
   13SAPS  H14R 1662   3.184   1.299   7.535  1.9483 -1.7270  0.1488
   13SAPS  C215 1663   3.295   1.437   7.638 -0.0573 -0.2723  0.5203
   13SAPS  H15R 1664   3.250   1.411   7.735 -1.0193 -0.2573  0.0916
   13SAPS  C216 1665   3.407   1.537   7.644  0.7157 -0.6641 -0.5040
   13SAPS  H16R 1666   3.368   1.641   7.635  0.1328 -0.8254  0.1421
   13SAPS  H16S 1667   3.484   1.527   7.564  0.3750  0.1014 -0.9392
   13SAPS  C217 1668   3.483   1.533   7.776 -0.5215  0.7023 -0.4422
   13SAPS  H17R 1669   3.566   1.606   7.770  0.7549 -0.6226  0.5480
   13SAPS  H17S 1670   3.525   1.435   7.805 -1.2730  0.8023  1.0784
   13SAPS  C218 1671   3.400   1.580   7.899 -0.3614 -0.2538  0.4575
   13SAPS  H18R 1672   3.330   1.499   7.927  0.1145 -1.1669 -0.8811
   13SAPS  H18S 1673   3.332   1.659   7.860 -2.4224 -1.6408  1.0679
   13SAPS  C219 1674   3.471   1.620   8.027  0.4529 -0.1329 -0.3376
   13SAPS  H19R 1675   3.526   1.536   8.075 -0.5697 -0.4141  0.3825
   13SAPS  H19S 1676   3.392   1.645   8.101  1.6197  0.0695  0.8636
   13SAPS  C220 1677   3.556   1.749   8.017  0.6039 -0.3711 -0.5381
   13SAPS  H20R 1678   3.583   1.791   8.116  0.4065  0.1970 -0.7198
   13SAPS  H20S 1679   3.499   1.828   7.965  1.4074  2.1597  2.1557
   13SAPS  H20T 1680   3.645   1.731   7.953 -0.2023  0.4279 -1.9433
   13SAPS   C33 1681   4.073   2.753   7.037  0.2060 -0.0886 -0.3961
   13SAPS   H3X 1682   3.962   2.750   7.049  0.1500  0.1016 -0.8547
   13SAPS   H3Y 1683   4.093   2.836   6.966  1.0951  0.8445  0.9090
   13SAPS   C34 1684   4.132   2.766   7.185 -0.2309  0.2015  0.2590
   13SAPS   H4X 1685   4.242   2.752   7.184 -0.0889  1.1949  0.6089
   13SAPS   H4Y 1686   4.088   2.685   7.248 -1.5224  0.3431 -0.4228
   13SAPS   C35 1687   4.108   2.902   7.249 -0.0877  0.6035 -0.2323
   13SAPS   H5X 1688   4.001   2.920   7.227 -0.3199 -1.7190 -1.2799
   13SAPS   H5Y 1689   4.165   2.974   7.186 -0.6171  0.1176 -1.2889
   13SAPS   C36 1690   4.146   2.906   7.395 -0.0438  0.1257 -0.1538
   13SAPS   H6X 1691   4.250   2.873   7.415  0.0308 -0.1286 -0.9244
   13SAPS   H6Y 1692   4.081   2.838   7.453 -0.0356  0.2793  0.0365
   13SAPS   C37 1693   4.117   3.041   7.463  0.4197 -0.8479  0.4704
   13SAPS   H7X 1694   4.010   3.070   7.467  0.8131  0.7421  0.1982
   13SAPS   H7Y 1695   4.158   3.127   7.405  0.9603 -0.1068  1.9184
   13SAPS   C38 1696   4.171   3.037   7.603  0.5304 -0.5349 -0.0969
   13SAPS   H8X 1697   4.279   3.013   7.603  0.9658  1.3119  0.0104
   13SAPS   H8Y 1698   4.122   2.953   7.658  0.2541 -1.0849 -1.1634
   13SAPS   C39 1699   4.143   3.175   7.663  0.0775 -0.5963 -0.1639
   13SAPS   H9X 1700   4.034   3.191   7.651  0.1800  1.8583  1.5431
   13SAPS   H9Y 1701   4.198   3.264   7.626 -0.0716  0.4450  1.9472
   13SAPS  C310 1702   4.164   3.175   7.813  0.0792  0.3464 -0.2603
   13SAPS  H10X 1703   4.271   3.183   7.843 -0.5106 -0.5945  2.2891
   13SAPS  H10Y 1704   4.146   3.071   7.847  2.2507  0.6326  2.0434
   13SAPS  C311 1705   4.083   3.277   7.890  0.3494 -0.8731  0.7765
   13SAPS  H11X 1706   3.978   3.297   7.858  0.5530  1.8369  1.4991
   13SAPS  H11Y 1707   4.119   3.381   7.873 -3.2124  0.3226 -0.3685
   13SAPS  C312 1708   4.075   3.237   8.032 -0.3731 -0.9730 -0.0188
   13SAPS  H12X 1709   4.171   3.223   8.086 -0.8343  1.8528  1.7573
   13SAPS  H12Y 1710   4.023   3.140   8.045 -0.7067 -0.6928  0.7749
   13SAPS  C313 1711   4.014   3.342   8.121 -0.3774 -0.1180  0.1694
   13SAPS  H13X 1712   3.904   3.346   8.103 -0.2368  0.1319 -0.6546
   13SAPS  H13Y 1713   4.055   3.441   8.093 -0.1820  0.0480  1.0092
   13SAPS  C314 1714   4.049   3.313   8.265  0.3968 -0.7096 -0.1610
   13SAPS  H14X 1715   4.157   3.335   8.282  0.4489 -0.6824 -0.5186
   13SAPS  H14Y 1716   4.033   3.204   8.273  0.4449 -0.5687  2.8163
   13SAPS  C315 1717   3.957   3.378   8.369  0.4048  0.3705  0.5272
   13SAPS  H15X 1718   3.854   3.359   8.332  0.4811  2.1945 -0.7350
   13SAPS  H15Y 1719   3.968   3.488   8.361 -0.3193  0.3640 -0.7593
   13SAPS  C316 1720   3.985   3.331   8.513  0.1153  0.4855 -0.6463
   13SAPS  H16X 1721   3.950   3.227   8.526 -0.1336  0.7566  1.0645
   13SAPS  H16Y 1722   3.917   3.391   8.577 -0.2641  0.1627 -0.7435
   13SAPS  C317 1723   4.123   3.358   8.559  0.2084 -0.4033 -0.3583
   13SAPS  H17X 1724   4.165   3.447   8.507 -2.0320  1.3565  0.6396
   13SAPS  H17Y 1725   4.185   3.271   8.527  1.0195 -1.7989  4.2865
   13SAPS  C318 1726   4.138   3.370   8.709 -0.0145 -0.2576 -0.2425
   13SAPS  H18X 1727   4.122   3.477   8.735 -0.5217 -0.3535 -0.1284
   13SAPS  H18Y 1728   4.243   3.352   8.738 -0.4137  0.7934  2.0785
   13SAPS  H18Z 1729   4.068   3.300   8.761 -0.5216  0.0709 -0.4693
   14SAPS     N 1730   3.789   6.763   6.035  0.3734 -0.4253  0.3973
   14SAPS   HN1 1731   3.767   6.662   6.030  1.0360 -0.5220 -1.7483
   14SAPS   HN2 1732   3.878   6.766   6.089  0.4631  0.5870  0.2202
   14SAPS   HN3 1733   3.706   6.815   6.070  0.5908  0.9558 -1.0074
   14SAPS   C12 1734   3.816   6.815   5.894  0.1926  0.0917  0.3272
   14SAPS  H12A 1735   3.911   6.777   5.859 -0.1080  0.9179 -1.4907
   14SAPS   C13 1736   3.719   6.776   5.778  0.0484 -0.2377  0.1451
   14SAPS  O13A 1737   3.623   6.706   5.819  0.3297 -0.3242 -0.5390
   14SAPS  O13B 1738   3.761   6.768   5.658  0.2796 -0.3008 -0.0550
   14SAPS   C11 1739   3.800   6.973   5.897  0.0114  0.7019  0.2170
   14SAPS  H11A 1740   3.700   7.006   5.933  0.5856  0.5386  2.0546
   14SAPS  H11B 1741   3.809   7.014   5.794 -4.3214  2.4427  0.3328
   14SAPS     P 1742   3.933   7.182   5.961 -0.1989  0.0371 -0.2687
   14SAPS   O13 1743   4.082   7.177   5.967 -0.4621 -0.1382 -0.1916
   14SAPS   O14 1744   3.868   7.242   5.839  0.2330  0.3299 -0.1307
   14SAPS   O12 1745   3.894   7.032   5.981  0.4461 -0.0521 -0.6543
   14SAPS   O11 1746   3.869   7.247   6.087 -0.3550 -0.1357 -0.2449
   14SAPS    C1 1747   3.789   7.185   6.188  0.0578 -0.4765  0.4589
   14SAPS    HA 1748   3.687   7.227   6.172  0.6214 -0.2915 -3.8906
   14SAPS    HB 1749   3.794   7.074   6.182  1.2742 -0.4164  0.1395
   14SAPS    C2 1750   3.845   7.217   6.332  0.0148 -0.7902 -0.7168
   14SAPS    HS 1751   3.865   7.118   6.378 -1.6414 -0.7188  0.2352
   14SAPS   O21 1752   3.741   7.287   6.403  0.2037 -0.1397  0.3589
   14SAPS   C21 1753   3.626   7.220   6.428 -0.9640 -0.4045  0.7531
   14SAPS   O22 1754   3.591   7.118   6.374 -0.1883 -0.3130  1.0426
   14SAPS   C22 1755   3.539   7.306   6.515 -0.5520 -0.2968  0.3881
   14SAPS   H2R 1756   3.544   7.414   6.487  1.3208 -0.4292  0.0339
   14SAPS   H2S 1757   3.436   7.271   6.495 -0.2355  0.1637 -2.5518
   14SAPS    C3 1758   3.981   7.292   6.320 -0.9374 -0.3897  0.0077
   14SAPS    HX 1759   3.944   7.380   6.263 -2.7369 -0.3869  1.1087
   14SAPS    HY 1760   4.048   7.231   6.256  0.4707  0.5828  0.5030
   14SAPS   O31 1761   4.041   7.338   6.441  0.0715 -0.6656  0.0798
   14SAPS   C31 1762   4.125   7.262   6.501  0.4848  0.2581 -0.5181
   14SAPS   O32 1763   4.155   7.155   6.455 -0.1929  0.3956 -0.0159
   14SAPS   C32 1764   4.176   7.312   6.633  0.0650  0.3324 -0.7441
   14SAPS   H2X 1765   4.111   7.399   6.655 -1.0441 -0.2050 -1.8378
   14SAPS   H2Y 1766   4.284   7.336   6.619  0.2242 -0.9505 -1.8639
   14SAPS   C23 1767   3.589   7.301   6.663 -0.1857  0.6304 -0.3442
   14SAPS   H3R 1768   3.655   7.387   6.689  1.4059 -0.3872 -0.8631
   14SAPS   H3S 1769   3.647   7.208   6.681 -1.2101 -0.5399 -2.6919
   14SAPS   C24 1770   3.478   7.293   6.772  0.6676 -0.4436  0.4018
   14SAPS   H4R 1771   3.525   7.283   6.872  0.9722  0.3674  0.3486
   14SAPS   H4S 1772   3.418   7.202   6.753  1.0534 -0.2938 -1.8525
   14SAPS   C25 1773   3.396   7.426   6.771  0.0331 -0.3267 -0.3607
   14SAPS   H5R 1774   3.341   7.454   6.680  0.8224  0.8847 -0.4887
   14SAPS   C26 1775   3.376   7.520   6.872  0.3349  0.3686  0.3174
   14SAPS   H6R 1776   3.305   7.600   6.848 -1.3449 -0.7997  1.2191
   14SAPS   C27 1777   3.426   7.524   7.014 -0.1162  0.0204  0.1976
   14SAPS   H7R 1778   3.479   7.621   7.027 -0.1349 -0.0812  1.1028
   14SAPS   H7S 1779   3.511   7.454   7.028  3.7690  4.0045 -1.1856
   14SAPS   C28 1780   3.320   7.492   7.115 -0.5814  0.4828  0.0941
   14SAPS   H8R 1781   3.272   7.393   7.113 -1.4905  0.8407  2.2176
   14SAPS   C29 1782   3.270   7.584   7.206 -0.2754  1.2188  0.5145
   14SAPS   H9R 1783   3.190   7.549   7.272  0.5151 -0.0720  0.8309
   14SAPS  C210 1784   3.311   7.725   7.217 -0.5491 -0.2741  0.2650
   14SAPS  H10R 1785   3.340   7.761   7.116 -0.0163 -0.2493  0.4242
   14SAPS  H10S 1786   3.400   7.714   7.283 -0.2835 -1.8451 -0.3238
   14SAPS  C211 1787   3.207   7.824   7.268  1.0128  0.1059  0.5216
   14SAPS  H11R 1788   3.144   7.872   7.191 -0.2389 -0.2503  1.2953
   14SAPS  C212 1789   3.166   7.856   7.391  0.4226  0.4849 -0.3076
   14SAPS  H12R 1790   3.088   7.934   7.397 -1.2873 -1.1933  0.1167
   14SAPS  C213 1791   3.233   7.805   7.516 -0.2993 -0.1616  0.2888
   14SAPS  H13R 1792   3.312   7.875   7.551  1.4717 -1.9663  0.0452
   14SAPS  H13S 1793   3.280   7.706   7.499 -0.9089 -0.4265  0.1037
   14SAPS  C214 1794   3.142   7.789   7.634 -0.1936  0.0472  0.1836
   14SAPS  H14R 1795   3.032   7.793   7.636 -0.3272 -2.3463 -0.3093
   14SAPS  C215 1796   3.194   7.738   7.750 -0.6206 -0.0822  0.0883
   14SAPS  H15R 1797   3.125   7.721   7.834 -0.6033  0.0406  0.1276
   14SAPS  C216 1798   3.344   7.711   7.778 -0.2406  0.4554  0.1510
   14SAPS  H16R 1799   3.399   7.712   7.681  2.8146  2.0820  1.7545
   14SAPS  H16S 1800   3.354   7.609   7.821 -2.7113 -0.5629 -1.4336
   14SAPS  C217 1801   3.418   7.794   7.886 -0.0147  0.1787  0.1035
   14SAPS  H17R 1802   3.427   7.900   7.854  0.7197  0.6267  1.7126
   14SAPS  H17S 1803   3.520   7.751   7.888  0.3467  1.0217  0.2090
   14SAPS  C218 1804   3.355   7.806   8.028  0.6273  0.8986  0.1142
   14SAPS  H18R 1805   3.321   7.702   8.049 -1.4317  1.3699 -0.6552
   14SAPS  H18S 1806   3.264   7.867   8.015  1.3661  2.1561  0.6494
   14SAPS  C219 1807   3.449   7.871   8.126  0.0828 -0.0397 -0.5680
   14SAPS  H19R 1808   3.445   7.982   8.118  0.1704 -0.0787 -1.2171
   14SAPS  H19S 1809   3.556   7.848   8.106 -0.5119 -3.4447 -0.3507
   14SAPS  C220 1810   3.432   7.843   8.274  0.3166 -0.4842 -0.2672
   14SAPS  H20R 1811   3.515   7.885   8.335 -1.3921  1.7408  0.6494
   14SAPS  H20S 1812   3.431   7.732   8.283  1.5441 -0.8789 -3.5019
   14SAPS  H20T 1813   3.340   7.881   8.322  0.0040 -0.4789 -0.8590
   14SAPS   C33 1814   4.166   7.192   6.721  0.0732 -0.6108  0.5602
   14SAPS   H3X 1815   4.247   7.203   6.797 -1.5527 -0.6324  2.3731
   14SAPS   H3Y 1816   4.196   7.095   6.678  0.6076 -0.5685  0.8321
   14SAPS   C34 1817   4.027   7.163   6.792  0.5431  0.0857  0.5657
   14SAPS   H4X 1818   3.968   7.135   6.702  3.6278 -0.2637 -1.5499
   14SAPS   H4Y 1819   3.986   7.247   6.851  1.6489  1.3143 -0.3572
   14SAPS   C35 1820   4.010   7.048   6.889 -0.0189  0.3935 -0.0241
   14SAPS   H5X 1821   4.052   7.083   6.986 -2.5721  2.4044  0.4530
   14SAPS   H5Y 1822   4.062   6.956   6.854  2.3381  1.7965 -0.4141
   14SAPS   C36 1823   3.863   7.021   6.928  0.4416 -0.2240 -0.3393
   14SAPS   H6X 1824   3.794   6.991   6.847  0.4328 -2.0901  0.3186
   14SAPS   H6Y 1825   3.833   7.117   6.976  0.4120 -1.1141  1.4955
   14SAPS   C37 1826   3.847   6.922   7.048  0.4037 -0.1220  0.3921
   14SAPS   H7X 1827   3.866   6.825   6.998 -2.3314 -1.3095  1.4497
   14SAPS   H7Y 1828   3.742   6.912   7.082 -0.9915  1.0086 -3.2050
   14SAPS   C38 1829   3.937   6.933   7.171 -0.4505 -0.2256 -0.4902
   14SAPS   H8X 1830   4.043   6.944   7.138 -1.1468  1.6784 -2.2937
   14SAPS   H8Y 1831   3.926   6.836   7.224  1.6293 -0.1150  0.2461
   14SAPS   C39 1832   3.895   7.042   7.273 -0.0586 -0.1133  0.4063
   14SAPS   H9X 1833   3.884   7.135   7.212 -1.7745  1.2562  2.6577
   14SAPS   H9Y 1834   3.981   7.055   7.342 -1.7047  2.6573  2.1303
   14SAPS  C310 1835   3.769   6.999   7.357  0.0245  0.4195  0.2626
   14SAPS  H10X 1836   3.703   6.928   7.302  1.6380 -0.8778 -0.0933
   14SAPS  H10Y 1837   3.717   7.093   7.386  1.7711  1.6005 -0.2655
   14SAPS  C311 1838   3.800   6.920   7.492  0.1083  0.1833  0.4056
   14SAPS  H11X 1839   3.907   6.922   7.522 -0.5796  0.3454  3.0466
   14SAPS  H11Y 1840   3.780   6.813   7.468  0.9761  0.1721 -0.3308
   14SAPS  C312 1841   3.714   6.980   7.605 -0.0466 -0.2316  0.2137
   14SAPS  H12X 1842   3.605   6.960   7.600  0.2431 -1.8596 -0.2116
   14SAPS  H12Y 1843   3.714   7.091   7.597  1.3165 -0.2263  0.1164
   14SAPS  C313 1844   3.776   6.951   7.741 -0.1087 -0.1194 -0.3338
   14SAPS  H13X 1845   3.854   7.027   7.758  0.3604 -0.2199 -1.8358
   14SAPS  H13Y 1846   3.823   6.850   7.746  1.2886  0.5288  0.2363
   14SAPS  C314 1847   3.677   6.961   7.859 -0.7102 -1.0837  0.2314
   14SAPS  H14X 1848   3.619   6.867   7.872 -1.9413 -0.1332  2.2071
   14SAPS  H14Y 1849   3.609   7.039   7.821  0.5146 -0.6887 -1.2157
   14SAPS  C315 1850   3.739   6.999   7.993 -0.1368  0.5466 -0.8415
   14SAPS  H15X 1851   3.797   7.092   7.970 -0.7055  0.9558 -0.6536
   14SAPS  H15Y 1852   3.816   6.929   8.031 -0.8969  0.3077  0.3300
   14SAPS  C316 1853   3.634   7.024   8.105  1.2398 -1.6970 -0.6869
   14SAPS  H16X 1854   3.590   6.930   8.143 -0.6513 -0.5420  0.1854
   14SAPS  H16Y 1855   3.556   7.096   8.069  2.4453  0.5132  0.8584
   14SAPS  C317 1856   3.682   7.105   8.232 -0.1161 -0.1978 -0.4410
   14SAPS  H17X 1857   3.597   7.146   8.290  1.5605 -0.0668  2.0683
   14SAPS  H17Y 1858   3.739   7.194   8.196 -4.5861  3.2125  0.0463
   14SAPS  C318 1859   3.767   7.010   8.320  0.2261  0.1128  0.2373
   14SAPS  H18X 1860   3.795   7.054   8.418 -2.3082  1.1724  0.5550
   14SAPS  H18Y 1861   3.855   6.979   8.258 -1.1927 -1.6279 -0.9978
   14SAPS  H18Z 1862   3.708   6.917   8.331 -0.2628  0.1933 -1.3724
   15SAPS     N 1863   3.400   5.477   5.674  0.1010 -0.4586 -0.2650
   15SAPS   HN1 1864   3.421   5.520   5.767  2.1752 -1.4201 -0.2430
   15SAPS   HN2 1865   3.443   5.383   5.681  2.0916  0.4178  0.2503
   15SAPS   HN3 1866   3.456   5.525   5.600  0.2494  0.7568  0.5878
   15SAPS   C12 1867   3.260   5.484   5.636  0.6287  0.5519 -0.9004
   15SAPS  H12A 1868   3.216   5.566   5.691  0.7683 -0.1077  0.2341
   15SAPS   C13 1869   3.235   5.511   5.485 -0.0927 -0.0768  0.5784
   15SAPS  O13A 1870   3.329   5.544   5.409  0.7805  0.1363 -0.1955
   15SAPS  O13B 1871   3.114   5.546   5.461 -0.2869 -0.5937 -0.5183
   15SAPS   C11 1872   3.187   5.353   5.692  0.3842  0.0467 -0.4904
   15SAPS  H11A 1873   3.234   5.261   5.651 -1.1047 -0.8426 -0.2537
   15SAPS  H11B 1874   3.080   5.359   5.663  0.4796 -1.5864 -1.3058
   15SAPS     P 1875   3.176   5.202   5.900  0.3458  0.2208 -0.5147
   15SAPS   O13 1876   3.052   5.143   5.856  0.1197 -0.6517 -0.0357
   15SAPS   O14 1877   3.300   5.120   5.896 -0.3892 -0.4230 -0.1343
   15SAPS   O12 1878   3.191   5.344   5.835 -0.1745  0.5189  0.5925
   15SAPS   O11 1879   3.166   5.242   6.060  0.1712  0.1174  1.3362
   15SAPS    C1 1880   3.290   5.280   6.117  0.1188 -0.4752  0.0274
   15SAPS    HA 1881   3.356   5.191   6.113 -1.1358 -1.3989 -1.1003
   15SAPS    HB 1882   3.341   5.367   6.070 -0.1062 -0.3162  0.0746
   15SAPS    C2 1883   3.273   5.308   6.271 -0.4348  0.1689 -0.0908
   15SAPS    HS 1884   3.379   5.317   6.302 -0.2421 -2.5452  0.3105
   15SAPS   O21 1885   3.218   5.188   6.343 -0.3717 -0.3710 -0.1047
   15SAPS   C21 1886   3.269   5.168   6.463 -0.6656  0.2445 -1.1564
   15SAPS   O22 1887   3.343   5.250   6.516 -0.4257 -0.0810 -0.0346
   15SAPS   C22 1888   3.225   5.039   6.515 -0.0851  0.0471 -0.2579
   15SAPS   H2R 1889   3.119   5.047   6.546  0.0864 -1.5629  0.8696
   15SAPS   H2S 1890   3.227   4.961   6.437  3.0249 -1.5422  1.2255
   15SAPS    C3 1891   3.183   5.433   6.297 -0.6529 -0.1246  0.1685
   15SAPS    HX 1892   3.080   5.419   6.259 -0.4062 -1.0492 -0.1921
   15SAPS    HY 1893   3.226   5.512   6.232 -0.7745 -0.5717 -0.4631
   15SAPS   O31 1894   3.183   5.470   6.440 -0.3830  0.4515 -0.7952
   15SAPS   C31 1895   3.076   5.444   6.513  1.0180 -0.4109 -0.2336
   15SAPS   O32 1896   2.978   5.383   6.472 -0.4222  0.2167 -0.1568
   15SAPS   C32 1897   3.084   5.497   6.653 -0.4773  0.3976 -0.3091
   15SAPS   H2X 1898   3.021   5.588   6.647 -0.2105  0.6062  0.0350
   15SAPS   H2Y 1899   3.191   5.523   6.671 -0.4463 -0.8554  1.4699
   15SAPS   C23 1900   3.316   4.987   6.635  0.1505 -0.0668 -0.0575
   15SAPS   H3R 1901   3.300   5.057   6.720  0.7312  0.7648 -0.6084
   15SAPS   H3S 1902   3.422   4.982   6.602  0.3890 -0.6513  0.7873
   15SAPS   C24 1903   3.286   4.837   6.680  0.4826 -0.0518  0.1926
   15SAPS   H4R 1904   3.374   4.801   6.737  0.6055  0.7910  0.5421
   15SAPS   H4S 1905   3.291   4.781   6.584 -2.0295 -0.2081  0.0850
   15SAPS   C25 1906   3.153   4.817   6.741  0.2367  0.5620  0.2516
   15SAPS   H5R 1907   3.073   4.800   6.667  1.6077 -3.0868 -0.6276
   15SAPS   C26 1908   3.125   4.830   6.874  0.0741 -0.0906 -0.0028
   15SAPS   H6R 1909   3.024   4.804   6.907  0.5151  1.2101  2.5680
   15SAPS   C27 1910   3.226   4.860   6.982  0.1315  0.2761  0.1908
   15SAPS   H7R 1911   3.320   4.906   6.945 -0.7324  1.0154 -1.1767
   15SAPS   H7S 1912   3.242   4.761   7.028  3.2074  1.3681  1.7517
   15SAPS   C28 1913   3.147   4.956   7.068  0.4341 -0.9411  0.3925
   15SAPS   H8R 1914   3.103   5.045   7.021 -1.5532 -1.8466  0.4178
   15SAPS   C29 1915   3.122   4.943   7.199  0.9077  0.4349 -0.3295
   15SAPS   H9R 1916   3.092   5.035   7.251  4.9689  0.2461  2.9262
   15SAPS  C210 1917   3.153   4.840   7.303  0.0764 -0.5461 -0.1023
   15SAPS  H10R 1918   3.169   4.744   7.249 -1.7612 -1.0200  0.1231
   15SAPS  H10S 1919   3.066   4.824   7.371 -0.3000 -1.4314 -0.7713
   15SAPS  C211 1920   3.276   4.878   7.378 -0.2019 -0.0851 -0.5245
   15SAPS  H11R 1921   3.355   4.924   7.317  0.9375  1.0274  1.6969
   15SAPS  C212 1922   3.294   4.856   7.510 -0.2691 -0.9370 -0.6365
   15SAPS  H12R 1923   3.394   4.873   7.554 -1.2213  0.2730  1.2401
   15SAPS  C213 1924   3.202   4.794   7.610  0.4424  0.2550  0.2271
   15SAPS  H13R 1925   3.251   4.762   7.705 -0.1115 -1.4838 -0.0291
   15SAPS  H13S 1926   3.167   4.705   7.553  3.6611  0.1995 -1.9030
   15SAPS  C214 1927   3.084   4.883   7.650  0.3221  0.6120  0.0880
   15SAPS  H14R 1928   3.069   4.979   7.598  0.9216  0.1071 -1.0515
   15SAPS  C215 1929   2.988   4.833   7.730  0.0898  0.3511 -0.4995
   15SAPS  H15R 1930   2.898   4.890   7.757  1.1581  1.3056  1.1825
   15SAPS  C216 1931   2.985   4.694   7.787 -0.1021 -0.0800 -0.9055
   15SAPS  H16R 1932   3.066   4.624   7.757  1.2653  0.3119  1.5494
   15SAPS  H16S 1933   2.890   4.640   7.767 -1.0641  0.6357  1.4282
   15SAPS  C217 1934   2.992   4.710   7.941 -0.3069 -0.1607  0.1448
   15SAPS  H17R 1935   2.974   4.613   7.990 -0.9356  0.8988  2.1036
   15SAPS  H17S 1936   2.908   4.778   7.966 -0.4816  1.3108 -3.7623
   15SAPS  C218 1937   3.121   4.784   7.995  0.3432 -0.0173  0.0928
   15SAPS  H18R 1938   3.133   4.884   7.949  2.0437 -0.0604  0.3916
   15SAPS  H18S 1939   3.213   4.733   7.960  0.3215  1.2773 -1.9528
   15SAPS  C219 1940   3.107   4.781   8.144  0.3803 -0.2962  0.6236
   15SAPS  H19R 1941   3.092   4.678   8.183  2.3097 -1.3027 -1.0929
   15SAPS  H19S 1942   3.021   4.845   8.174  0.3382  1.7087 -3.2246
   15SAPS  C220 1943   3.235   4.847   8.204 -0.8630 -0.1936  0.2839
   15SAPS  H20R 1944   3.255   4.947   8.159 -2.2840 -0.4858 -1.1115
   15SAPS  H20S 1945   3.323   4.787   8.173  0.2571  1.5162  0.0116
   15SAPS  H20T 1946   3.237   4.855   8.314  1.4790  1.5734  0.1816
   15SAPS   C33 1947   3.024   5.413   6.767 -0.0835  0.0489  0.0781
   15SAPS   H3X 1948   3.073   5.313   6.770  2.6867  1.3256  0.1419
   15SAPS   H3Y 1949   2.922   5.393   6.728 -1.4847  3.5284  1.6069
   15SAPS   C34 1950   3.012   5.480   6.906 -0.0159  0.8223  0.1102
   15SAPS   H4X 1951   2.947   5.570   6.910 -0.5453  0.3999  1.6940
   15SAPS   H4Y 1952   3.116   5.506   6.936  0.0305  1.3428 -0.4913
   15SAPS   C35 1953   2.963   5.375   7.009  1.4692  0.0211  0.3852
   15SAPS   H5X 1954   3.006   5.275   6.987  0.1301 -0.7309  1.0554
   15SAPS   H5Y 1955   2.855   5.360   6.985  1.3480 -0.1258  0.9965
   15SAPS   C36 1956   2.978   5.425   7.153  0.2039 -0.3840  0.2480
   15SAPS   H6X 1957   2.947   5.530   7.173 -0.0029 -0.3833 -0.0788
   15SAPS   H6Y 1958   3.089   5.428   7.155  0.2648 -1.8109  0.1871
   15SAPS   C37 1959   2.913   5.331   7.253 -0.1167 -0.2563 -0.2131
   15SAPS   H7X 1960   2.934   5.224   7.231  0.1269 -0.3863  0.6244
   15SAPS   H7Y 1961   2.802   5.337   7.257 -0.0356  0.9200  0.7747
   15SAPS   C38 1962   2.962   5.356   7.395 -0.1508  0.2474 -0.3057
   15SAPS   H8X 1963   2.924   5.459   7.414 -1.2510 -0.0191 -0.9211
   15SAPS   H8Y 1964   3.072   5.364   7.399 -0.1140 -0.6851  1.3906
   15SAPS   C39 1965   2.896   5.264   7.497 -0.3176 -0.0826  0.1530
   15SAPS   H9X 1966   2.910   5.157   7.471 -3.0626 -0.2195 -1.1768
   15SAPS   H9Y 1967   2.786   5.275   7.487 -0.7824 -0.4099  3.7551
   15SAPS  C310 1968   2.936   5.300   7.637 -1.0150  0.0257 -1.3216
   15SAPS  H10X 1969   2.917   5.408   7.656 -3.9850 -1.0248  3.4853
   15SAPS  H10Y 1970   3.043   5.276   7.658 -1.2842 -2.7236 -2.6337
   15SAPS  C311 1971   2.849   5.228   7.743  0.1598  0.1036  1.0554
   15SAPS  H11X 1972   2.833   5.133   7.687 -0.0223  1.2802 -1.0231
   15SAPS  H11Y 1973   2.746   5.268   7.755 -0.7034 -1.2115 -1.1480
   15SAPS  C312 1974   2.906   5.214   7.884 -0.6249 -0.5872 -0.1973
   15SAPS  H12X 1975   2.908   5.318   7.923  1.7717 -0.9065  0.7715
   15SAPS  H12Y 1976   3.013   5.183   7.874 -1.0110 -2.0715  0.0902
   15SAPS  C313 1977   2.829   5.130   7.988  0.3915  0.3679  0.9191
   15SAPS  H13X 1978   2.830   5.022   7.962  0.4465  0.2486  1.4046
   15SAPS  H13Y 1979   2.723   5.162   7.975  0.6851  0.9539 -0.2216
   15SAPS  C314 1980   2.874   5.145   8.132 -0.0730 -0.0074  0.1200
   15SAPS  H14X 1981   2.846   5.245   8.172  1.2829  0.9597 -1.2268
   15SAPS  H14Y 1982   2.984   5.135   8.128 -0.2444 -1.9535 -1.5067
   15SAPS  C315 1983   2.808   5.041   8.233  0.1358  0.3312  0.1936
   15SAPS  H15X 1984   2.816   4.938   8.193 -1.6241  0.2148  0.0877
   15SAPS  H15Y 1985   2.699   5.061   8.229 -0.0540 -0.5117  0.8707
   15SAPS  C316 1986   2.857   5.068   8.375  0.5661  0.1126 -0.1329
   15SAPS  H16X 1987   2.825   5.168   8.411  2.2537  0.6113  0.1054
   15SAPS  H16Y 1988   2.968   5.073   8.375  0.5634  0.2235  0.2909
   15SAPS  C317 1989   2.808   4.960   8.474  0.6281 -0.9123 -0.5515
   15SAPS  H17X 1990   2.856   4.865   8.443 -0.6430 -0.6132 -3.7725
   15SAPS  H17Y 1991   2.703   4.938   8.445  0.6824 -1.0390 -0.6523
   15SAPS  C318 1992   2.831   5.002   8.621  0.4091 -0.0582  0.1880
   15SAPS  H18X 1993   2.937   4.996   8.650  0.4794  0.8999  0.1720
   15SAPS  H18Y 1994   2.769   4.947   8.694 -0.6613  1.5101  0.5306
   15SAPS  H18Z 1995   2.799   5.109   8.631 -0.1035 -0.2420  0.5659
   16SAPS     N 1996   5.517   6.139   6.247 -0.1869  0.4945  0.0618
   16SAPS   HN1 1997   5.424   6.171   6.279 -0.4304 -0.2854  0.1658
   16SAPS   HN2 1998   5.495   6.096   6.154 -1.4979  2.1912 -0.4683
   16SAPS   HN3 1999   5.542   6.070   6.320  1.5144 -0.1959 -1.0942
   16SAPS   C12 2000   5.623   6.240   6.228  0.0447  0.1348 -0.6596
   16SAPS  H12A 2001   5.698   6.221   6.303 -0.6980 -1.7802 -0.3300
   16SAPS   C13 2002   5.680   6.233   6.080 -0.8364 -0.0239 -0.3861
   16SAPS  O13A 2003   5.618   6.164   5.997  0.1052 -0.0464 -0.0284
   16SAPS  O13B 2004   5.771   6.319   6.053 -0.2144  0.2729  0.6875
   16SAPS   C11 2005   5.578   6.379   6.243  0.6515 -0.4426  0.0714
   16SAPS  H11A 2006   5.497   6.404   6.171  1.4224  3.0957  0.2434
   16SAPS  H11B 2007   5.660   6.452   6.226  1.7223 -1.5236  0.4752
   16SAPS     P 2008   5.584   6.485   6.485 -0.0230  0.0154  0.0728
   16SAPS   O13 2009   5.729   6.477   6.462  0.3355  0.1570 -0.3329
   16SAPS   O14 2010   5.523   6.623   6.484 -0.0115 -0.3615 -0.1734
   16SAPS   O12 2011   5.514   6.410   6.364  0.5310  0.0580 -0.8698
   16SAPS   O11 2012   5.530   6.396   6.617 -0.9165 -0.1015  0.0384
   16SAPS    C1 2013   5.417   6.313   6.600 -0.2427  0.1565 -0.1976
   16SAPS    HA 2014   5.433   6.244   6.514  3.2816  2.3874 -1.5063
   16SAPS    HB 2015   5.409   6.251   6.693  1.2066 -0.7872 -0.6772
   16SAPS    C2 2016   5.294   6.397   6.597  0.8110 -0.3343  0.4358
   16SAPS    HS 2017   5.307   6.467   6.511  4.0989  1.0418  1.9251
   16SAPS   O21 2018   5.282   6.474   6.717 -0.1815  0.5330 -0.6742
   16SAPS   C21 2019   5.215   6.588   6.710 -0.0230  0.9158 -0.1242
   16SAPS   O22 2020   5.151   6.620   6.613  0.6885  0.4815  0.7263
   16SAPS   C22 2021   5.226   6.652   6.843  0.0645  0.4502  0.5397
   16SAPS   H2R 2022   5.187   6.599   6.933 -1.4374  0.8850  0.1542
   16SAPS   H2S 2023   5.332   6.666   6.875  0.1700  0.1205  0.3381
   16SAPS    C3 2024   5.165   6.309   6.569  0.5914  0.1493  0.3467
   16SAPS    HX 2025   5.181   6.243   6.481  3.4192  2.2047 -0.8509
   16SAPS    HY 2026   5.084   6.376   6.532  0.5943 -0.5125 -0.9174
   16SAPS   O31 2027   5.130   6.232   6.683  0.4089 -0.3029  0.4870
   16SAPS   C31 2028   5.057   6.119   6.668  0.1273  0.2762 -0.0040
   16SAPS   O32 2029   5.012   6.081   6.563 -0.1226 -0.5765 -0.0026
   16SAPS   C32 2030   5.023   6.063   6.805  0.0217 -0.2156  0.6608
   16SAPS   H2X 2031   4.923   6.015   6.803  0.0023 -0.1681  0.5203
   16SAPS   H2Y 2032   5.003   6.138   6.884  0.0064 -0.2146  0.6562
   16SAPS   C23 2033   5.163   6.795   6.834 -0.1786  0.1956 -0.3346
   16SAPS   H3R 2034   5.053   6.783   6.827 -0.1938 -0.5604  0.8929
   16SAPS   H3S 2035   5.195   6.840   6.737  0.1383  0.6425 -0.0289
   16SAPS   C24 2036   5.221   6.894   6.942  0.4533 -0.6088 -0.8145
   16SAPS   H4R 2037   5.178   6.996   6.932 -0.5660 -1.1668 -2.6500
   16SAPS   H4S 2038   5.332   6.895   6.932  0.3144 -0.0441 -2.7030
   16SAPS   C25 2039   5.194   6.841   7.080  0.4740  0.1044  0.5407
   16SAPS   H5R 2040   5.190   6.732   7.094  0.3055  0.1511  0.8704
   16SAPS   C26 2041   5.182   6.921   7.185  0.6580  0.3310 -0.6142
   16SAPS   H6R 2042   5.176   6.870   7.283  2.2275  0.2286 -0.5433
   16SAPS   C27 2043   5.181   7.072   7.187 -0.2232 -0.9347  0.1698
   16SAPS   H7R 2044   5.073   7.100   7.189 -0.4274 -1.7246  0.6769
   16SAPS   H7S 2045   5.215   7.109   7.088  0.4837 -0.8013  0.4532
   16SAPS   C28 2046   5.264   7.140   7.295 -0.0721  0.5275 -0.4016
   16SAPS   H8R 2047   5.367   7.158   7.261 -0.6634  3.0070 -1.1180
   16SAPS   C29 2048   5.217   7.168   7.421 -0.0848 -0.3710  0.3164
   16SAPS   H9R 2049   5.287   7.220   7.488  0.1918 -2.3610  1.6634
   16SAPS  C210 2050   5.085   7.124   7.480 -0.3574 -0.4213 -0.3158
   16SAPS  H10R 2051   5.043   7.041   7.419  0.9190 -0.9112 -0.5525
   16SAPS  H10S 2052   5.012   7.207   7.467  0.4341  0.5615  1.1881
   16SAPS  C211 2053   5.082   7.074   7.620 -1.2617  0.2602  0.1462
   16SAPS  H11R 2054   5.080   7.159   7.690  2.8740  0.4716  0.2625
   16SAPS  C212 2055   5.101   6.946   7.662  0.6362 -0.8217  0.7893
   16SAPS  H12R 2056   5.087   6.926   7.769 -0.7462  2.8765  1.4210
   16SAPS  C213 2057   5.134   6.821   7.578  0.0769  0.1803 -0.2087
   16SAPS  H13R 2058   5.172   6.755   7.659  1.1258  0.8776 -0.1153
   16SAPS  H13S 2059   5.216   6.830   7.504 -0.9681  0.4660 -1.3600
   16SAPS  C214 2060   5.003   6.768   7.522 -0.0649 -0.8664  0.1253
   16SAPS  H14R 2061   4.942   6.854   7.489  1.1026  1.4240  3.4146
   16SAPS  C215 2062   4.963   6.643   7.514  0.6796  0.2430  0.0210
   16SAPS  H15R 2063   4.874   6.621   7.454  0.0825 -0.3534  1.0845
   16SAPS  C216 2064   5.040   6.522   7.561  0.1608  0.2943  0.6527
   16SAPS  H16R 2065   4.965   6.447   7.594 -0.4329  0.2140 -0.7928
   16SAPS  H16S 2066   5.094   6.551   7.654 -0.0149  0.6991  0.6310
   16SAPS  C217 2067   5.141   6.464   7.464 -0.4429  0.0584  0.1951
   16SAPS  H17R 2068   5.184   6.373   7.511 -0.2277  0.2398  0.3460
   16SAPS  H17S 2069   5.232   6.526   7.451  0.6808 -1.5913 -0.0998
   16SAPS  C218 2070   5.076   6.423   7.337 -0.8476  0.0969  0.4011
   16SAPS  H18R 2071   5.025   6.506   7.284 -0.1200  0.3159  0.0314
   16SAPS  H18S 2072   5.006   6.339   7.360 -1.2682 -0.0313 -1.2290
   16SAPS  C219 2073   5.175   6.368   7.234  0.3027 -0.5411  0.0940
   16SAPS  H19R 2074   5.226   6.272   7.257  0.1269 -1.0376 -1.4818
   16SAPS  H19S 2075   5.263   6.436   7.230 -0.2796  0.1463 -2.1015
   16SAPS  C220 2076   5.094   6.368   7.102 -0.8429  0.1510 -0.0696
   16SAPS  H20R 2077   5.165   6.333   7.025  2.3866  0.4913  2.5136
   16SAPS  H20S 2078   5.062   6.469   7.069 -2.1409 -0.7238 -1.6250
   16SAPS  H20T 2079   5.010   6.295   7.103 -0.7985  0.0965  0.4566
   16SAPS   C33 2080   5.133   5.968   6.851  0.0011  0.0732  0.2244
   16SAPS   H3X 2081   5.223   6.033   6.860 -0.1235  0.3179 -0.2697
   16SAPS   H3Y 2082   5.145   5.897   6.768  1.4341  1.5127 -0.8595
   16SAPS   C34 2083   5.107   5.899   6.984 -0.7204 -0.0593  0.0918
   16SAPS   H4X 2084   5.202   5.851   7.013 -0.7906 -1.3754 -1.6628
   16SAPS   H4Y 2085   5.027   5.822   6.986  0.7590 -1.6228  1.8518
   16SAPS   C35 2086   5.089   5.999   7.097 -0.2015 -1.0749 -0.0328
   16SAPS   H5X 2087   4.996   6.058   7.082 -1.5707 -2.4010  2.5352
   16SAPS   H5Y 2088   5.172   6.072   7.096 -1.4927  0.4924  1.1433
   16SAPS   C36 2089   5.092   5.937   7.235 -0.1022 -0.3707 -0.5032
   16SAPS   H6X 2090   5.200   5.923   7.258  0.1854 -0.0041 -1.5726
   16SAPS   H6Y 2091   5.045   5.836   7.242  0.1001 -0.4152  0.2821
   16SAPS   C37 2092   5.030   6.033   7.340  0.5806  0.3804  0.1328
   16SAPS   H7X 2093   4.921   6.041   7.322  0.6279 -1.0770 -0.9744
   16SAPS   H7Y 2094   5.074   6.136   7.342  0.5236  0.3970  2.1233
   16SAPS   C38 2095   5.061   5.992   7.482 -0.4925  0.0727 -1.1537
   16SAPS   H8X 2096   5.160   5.943   7.491 -1.0446 -0.9929 -0.7971
   16SAPS   H8Y 2097   4.992   5.908   7.506 -1.4266  1.3479  0.9882
   16SAPS   C39 2098   5.059   6.112   7.574 -0.2887 -0.8224 -0.1400
   16SAPS   H9X 2099   4.965   6.170   7.561  1.6576  3.1251  1.7298
   16SAPS   H9Y 2100   5.133   6.186   7.535 -3.4989  3.4030  1.0067
   16SAPS  C310 2101   5.083   6.073   7.725  0.0470 -0.3754  0.2682
   16SAPS  H10X 2102   5.177   6.015   7.729  0.7308  0.1588 -3.6651
   16SAPS  H10Y 2103   5.007   6.005   7.770  0.6047 -0.6182  0.8560
   16SAPS  C311 2104   5.088   6.191   7.814 -0.2072 -0.1115 -0.0596
   16SAPS  H11X 2105   5.001   6.257   7.793 -0.8682 -1.2137 -0.8863
   16SAPS  H11Y 2106   5.167   6.260   7.778 -0.2824 -0.7854 -1.5521
   16SAPS  C312 2107   5.085   6.166   7.964 -0.3522 -0.2395  0.0656
   16SAPS  H12X 2108   5.165   6.098   8.001  1.1390  0.7240 -1.2196
   16SAPS  H12Y 2109   4.986   6.130   7.997 -0.5452 -0.6072 -0.8945
   16SAPS  C313 2110   5.120   6.293   8.047 -0.5460 -0.0351  0.2518
   16SAPS  H13X 2111   5.221   6.329   8.020 -0.1639  0.1637  1.8158
   16SAPS  H13Y 2112   5.119   6.268   8.156 -0.4839 -0.2481  0.2029
   16SAPS  C314 2113   5.012   6.390   8.027 -0.6260 -0.6022 -0.2524
   16SAPS  H14X 2114   4.912   6.343   8.037 -0.5482 -1.1250 -1.6112
   16SAPS  H14Y 2115   5.017   6.436   7.926  0.1428  0.7203  0.3624
   16SAPS  C315 2116   5.028   6.498   8.135 -0.4344  0.2263 -0.4178
   16SAPS  H15X 2117   5.120   6.558   8.120 -0.9353  1.8383  2.4480
   16SAPS  H15Y 2118   5.058   6.447   8.228 -1.4287  1.0053  0.3503
   16SAPS  C316 2119   4.917   6.583   8.165 -0.6853 -0.2213  0.2492
   16SAPS  H16X 2120   4.836   6.514   8.197 -0.6120 -0.2088  0.4622
   16SAPS  H16Y 2121   4.884   6.646   8.080 -0.4641  1.0976  1.1028
   16SAPS  C317 2122   4.948   6.695   8.271  0.0544  0.1772  0.2846
   16SAPS  H17X 2123   4.863   6.768   8.268 -1.1828 -1.2084  0.4923
   16SAPS  H17Y 2124   5.031   6.762   8.238  0.8877 -1.9689 -2.3332
   16SAPS  C318 2125   4.961   6.656   8.419  0.4603  0.4751  0.1558
   16SAPS  H18X 2126   4.892   6.578   8.457  1.5464 -0.1880  0.8275
   16SAPS  H18Y 2127   4.964   6.741   8.491 -0.3643 -0.7978  1.7565
   16SAPS  H18Z 2128   5.059   6.604   8.423  0.0842 -0.2737 -0.2131
   17SAPC     N 2129   2.697   5.456  10.591 -0.0924 -0.5328  0.1905
   17SAPC   C12 2130   2.617   5.518  10.475  0.3626  0.2973 -0.4862
   17SAPC  H12A 2131   2.673   5.605  10.444  0.1146  1.2394  1.5453
   17SAPC  H12B 2132   2.519   5.550  10.509  0.9202  1.6210 -0.0518
   17SAPC   C13 2133   2.680   5.543  10.716 -0.6533  0.4185 -0.1575
   17SAPC  H13A 2134   2.575   5.553  10.739 -0.4677  0.3178  0.7487
   17SAPC  H13B 2135   2.721   5.492  10.802  0.8303 -3.3833 -2.8130
   17SAPC  H13C 2136   2.732   5.635  10.693  1.7831 -0.2060  2.2999
   17SAPC   C14 2137   2.635   5.318  10.616 -0.1401 -0.5347  0.5456
   17SAPC  H14A 2138   2.691   5.255  10.684  0.7264 -0.6579 -0.2564
   17SAPC  H14B 2139   2.530   5.324  10.639 -0.6554  1.0659 -1.8470
   17SAPC  H14C 2140   2.645   5.265  10.522  2.7199 -3.9980  2.5420
   17SAPC   C15 2141   2.843   5.449  10.555 -0.0061 -0.4543 -0.1151
   17SAPC  H15A 2142   2.903   5.402  10.632 -1.6099 -0.8355  0.9533
   17SAPC  H15B 2143   2.852   5.386  10.468  3.0413  0.5288 -0.6208
   17SAPC  H15C 2144   2.870   5.549  10.525 -0.0357 -0.7058 -0.9842
   17SAPC   C11 2145   2.587   5.433  10.348  0.3209  0.1234 -0.0463
   17SAPC  H11A 2146   2.678   5.377  10.317  1.8624  2.8554 -0.8522
   17SAPC  H11B 2147   2.582   5.512  10.270  0.2232 -0.9315 -1.1389
   17SAPC     P 2148   2.324   5.435  10.343 -0.3106 -0.0350 -0.5991
   17SAPC   O13 2149   2.211   5.333  10.340  0.0703 -0.1487  0.2413
   17SAPC   O14 2150   2.321   5.533  10.453 -0.2545  0.3355  0.1293
   17SAPC   O12 2151   2.459   5.356  10.353  0.3898 -0.0400  0.1732
   17SAPC   O11 2152   2.323   5.502  10.199 -0.0161 -0.3471  0.1321
   17SAPC    C1 2153   2.287   5.640  10.178  0.3115 -0.3465  0.0460
   17SAPC    HA 2154   2.193   5.661  10.233  1.7161 -0.2838  2.5396
   17SAPC    HB 2155   2.367   5.705  10.218 -0.6251  0.4501  0.6605
   17SAPC    C2 2156   2.281   5.664  10.028  0.1777  0.2358  0.6225
   17SAPC    HS 2157   2.241   5.767  10.014  1.2887  0.8023  1.4849
   17SAPC   O21 2158   2.194   5.569   9.964  0.2789 -0.7522  0.1849
   17SAPC   C21 2159   2.073   5.555   9.994  0.0572 -0.0300  0.2416
   17SAPC   O22 2160   2.003   5.620  10.065 -0.0066  0.3168  0.0324
   17SAPC   C22 2161   2.017   5.449   9.896 -0.1057  0.4025 -0.1137
   17SAPC   H2R 2162   2.032   5.504   9.800  1.6137  0.9059  0.4105
   17SAPC   H2S 2163   2.090   5.366   9.904 -0.8571 -0.3102 -0.4724
   17SAPC    C3 2164   2.417   5.658   9.959  0.4791  0.6495  0.5119
   17SAPC    HX 2165   2.454   5.558   9.989 -0.0883 -0.1702 -1.3580
   17SAPC    HY 2166   2.493   5.731   9.996 -0.1522  1.1195  0.9106
   17SAPC   O31 2167   2.409   5.657   9.816  0.4026 -0.4381 -0.4494
   17SAPC   C31 2168   2.351   5.759   9.755  0.0275 -0.3464 -0.4415
   17SAPC   O32 2169   2.322   5.867   9.808 -0.3887 -0.3162 -0.1565
   17SAPC   C32 2170   2.324   5.719   9.614  0.5155  0.0770 -0.9952
   17SAPC   H2X 2171   2.254   5.633   9.619  2.8021 -1.8313  0.0953
   17SAPC   H2Y 2172   2.418   5.680   9.570  0.5914 -2.4003  1.1516
   17SAPC   C23 2173   1.867   5.405   9.914 -0.5901  0.5774 -0.1122
   17SAPC   H3R 2174   1.807   5.485   9.962  0.0726  1.6972 -1.1123
   17SAPC   H3S 2175   1.861   5.319   9.984  0.3391  0.2057 -0.4783
   17SAPC   C24 2176   1.801   5.358   9.787 -0.4169 -0.3698  0.0961
   17SAPC   H4R 2177   1.797   5.442   9.715  0.0610 -1.2266 -0.9632
   17SAPC   H4S 2178   1.697   5.324   9.808 -0.7679  1.3675  1.4078
   17SAPC   C25 2179   1.873   5.245   9.715 -0.6161 -0.5508  0.7385
   17SAPC   H5R 2180   1.877   5.152   9.774  1.3934 -1.3677 -0.5964
   17SAPC   C26 2181   1.930   5.234   9.591 -0.1928  0.0525 -0.3139
   17SAPC   H6R 2182   1.975   5.135   9.574 -0.5207 -0.4519  1.5921
   17SAPC   C27 2183   1.933   5.343   9.486  0.4980 -0.0176  0.2189
   17SAPC   H7R 2184   1.845   5.410   9.499  2.0541  1.7381  2.7513
   17SAPC   H7S 2185   1.917   5.290   9.390 -1.4999  0.5143  0.2224
   17SAPC   C28 2186   2.054   5.434   9.492 -0.0363 -0.5016  0.8903
   17SAPC   H8R 2187   2.083   5.481   9.587  1.1104  2.0681 -0.6143
   17SAPC   C29 2188   2.119   5.478   9.385  0.0406  0.1809  0.2179
   17SAPC   H9R 2189   2.214   5.531   9.401 -0.4052  0.4962  2.0871
   17SAPC  C210 2190   2.101   5.444   9.240  0.3207 -0.0288 -0.1005
   17SAPC  H10R 2191   1.991   5.439   9.228  0.3109 -1.1394  0.2955
   17SAPC  H10S 2192   2.128   5.337   9.222 -2.1421 -0.8415  0.6531
   17SAPC  C211 2193   2.168   5.515   9.128 -0.1152 -1.0120  0.0865
   17SAPC  H11R 2194   2.275   5.530   9.148 -0.2658  0.2778 -0.0064
   17SAPC  C212 2195   2.124   5.585   9.016 -0.3434  0.1067 -0.1380
   17SAPC  H12R 2196   2.196   5.631   8.947 -0.2280 -1.9858 -1.5260
   17SAPC  C213 2197   1.979   5.589   8.981 -0.4743 -0.3319  0.3850
   17SAPC  H13R 2198   1.968   5.632   8.879  1.5615 -1.2892 -0.2894
   17SAPC  H13S 2199   1.936   5.643   9.068  0.5623 -1.8705  1.9342
   17SAPC  C214 2200   1.910   5.455   8.977  0.0121 -0.0846 -0.4808
   17SAPC  H14R 2201   1.971   5.364   8.964 -1.1980 -0.7578 -1.6829
   17SAPC  C215 2202   1.779   5.432   8.984  0.3070 -0.1692  0.3156
   17SAPC  H15R 2203   1.746   5.327   8.982 -1.2269  0.2354 -3.2712
   17SAPC  C216 2204   1.666   5.534   9.004 -0.0063 -0.4493 -0.4355
   17SAPC  H16R 2205   1.713   5.610   9.069  0.2165 -0.3489 -0.7087
   17SAPC  H16S 2206   1.577   5.494   9.056 -0.8711 -1.3999 -2.5238
   17SAPC  C217 2207   1.625   5.619   8.883  0.1824  0.3170  0.8053
   17SAPC  H17R 2208   1.718   5.665   8.844 -0.0937 -1.4556 -2.3110
   17SAPC  H17S 2209   1.547   5.696   8.901  0.8049  1.6631 -1.7786
   17SAPC  C218 2210   1.600   5.540   8.754  0.5311 -0.3950  0.3483
   17SAPC  H18R 2211   1.693   5.490   8.719  0.7370  0.4779 -0.3889
   17SAPC  H18S 2212   1.587   5.605   8.665  1.2262 -0.1292  0.4301
   17SAPC  C219 2213   1.493   5.432   8.754  0.2511  0.2949  0.1766
   17SAPC  H19R 2214   1.525   5.358   8.831  1.9915  0.4655 -0.3461
   17SAPC  H19S 2215   1.496   5.390   8.651  1.9362  1.2147 -0.1814
   17SAPC  C220 2216   1.350   5.487   8.781  0.2603 -0.3459  0.2617
   17SAPC  H20R 2217   1.334   5.569   8.708 -0.9113 -1.1235 -0.3977
   17SAPC  H20S 2218   1.358   5.528   8.883 -0.8170 -0.0500  0.2346
   17SAPC  H20T 2219   1.267   5.413   8.773  0.8814 -1.0249 -0.0549
   17SAPC   C33 2220   2.274   5.843   9.527  0.8433 -0.3711 -0.3797
   17SAPC   H3X 2221   2.340   5.932   9.530  0.6935 -0.2855  1.0448
   17SAPC   H3Y 2222   2.177   5.873   9.571  0.8353  0.6364 -1.0616
   17SAPC   C34 2223   2.282   5.812   9.383 -0.1730 -0.3880  0.1005
   17SAPC   H4X 2224   2.205   5.739   9.350  1.1754 -2.3072  1.0050
   17SAPC   H4Y 2225   2.389   5.783   9.375  0.3930  1.4877  0.3533
   17SAPC   C35 2226   2.292   5.930   9.282  0.3989  0.0976 -0.0323
   17SAPC   H5X 2227   2.369   5.997   9.324  1.4152 -0.5242 -0.8653
   17SAPC   H5Y 2228   2.192   5.979   9.286  0.9512  1.2493  0.1882
   17SAPC   C36 2229   2.326   5.888   9.134  0.0281 -0.4275 -0.5727
   17SAPC   H6X 2230   2.231   5.856   9.087 -0.6529  1.8379 -0.8404
   17SAPC   H6Y 2231   2.406   5.810   9.133  0.7921  0.3402 -0.9134
   17SAPC   C37 2232   2.385   6.008   9.064  0.4778 -0.5183 -0.4535
   17SAPC   H7X 2233   2.451   6.068   9.131  1.2673 -1.9444  0.1077
   17SAPC   H7Y 2234   2.301   6.080   9.056  0.8239 -0.2026 -1.2666
   17SAPC   C38 2235   2.435   5.992   8.920 -0.3390  0.1066  0.7781
   17SAPC   H8X 2236   2.507   5.907   8.921  0.4447  0.7613  1.1794
   17SAPC   H8Y 2237   2.491   6.083   8.890 -2.3717  1.0447 -0.3197
   17SAPC   C39 2238   2.332   5.964   8.814 -0.1726  0.9636 -0.4150
   17SAPC   H9X 2239   2.284   6.057   8.778  0.9212  1.0300 -1.7706
   17SAPC   H9Y 2240   2.254   5.899   8.860 -2.0671  1.8244 -2.2389
   17SAPC  C310 2241   2.397   5.891   8.698 -0.3048  0.5301 -0.2014
   17SAPC  H10X 2242   2.456   5.805   8.736  2.1027  2.7844  1.5082
   17SAPC  H10Y 2243   2.481   5.952   8.657  0.3401  1.6467  2.5310
   17SAPC  C311 2244   2.304   5.868   8.583 -0.3050 -0.1097  0.9291
   17SAPC  H11X 2245   2.348   5.824   8.491  0.4088 -0.4837  1.4378
   17SAPC  H11Y 2246   2.246   5.959   8.559 -0.6316 -0.6895 -0.5684
   17SAPC  C312 2247   2.200   5.765   8.625 -0.1386 -0.4047  0.3226
   17SAPC  H12X 2248   2.156   5.788   8.724  0.3905  0.6713  0.3187
   17SAPC  H12Y 2249   2.241   5.662   8.636 -0.0334 -0.5569 -1.3133
   17SAPC  C313 2250   2.086   5.750   8.525 -0.4028  0.6630 -0.2876
   17SAPC  H13X 2251   2.122   5.721   8.425 -0.5377  2.5313 -0.9213
   17SAPC  H13Y 2252   2.056   5.856   8.510 -1.0721  1.1020  3.1986
   17SAPC  C314 2253   1.970   5.674   8.586  0.3479  0.0985 -0.1500
   17SAPC  H14X 2254   1.961   5.717   8.688  3.1797  0.0450  0.2052
   17SAPC  H14Y 2255   2.007   5.571   8.604 -0.5386  0.0022  1.2426
   17SAPC  C315 2256   1.846   5.684   8.510  0.2996  0.4336  0.2305
   17SAPC  H15X 2257   1.779   5.603   8.544  1.1979 -0.4056  0.0305
   17SAPC  H15Y 2258   1.848   5.652   8.403 -1.4477  0.1639  0.2431
   17SAPC  C316 2259   1.758   5.807   8.524 -0.6050 -0.5710  0.2844
   17SAPC  H16X 2260   1.822   5.894   8.498 -1.2193  0.1664  1.1791
   17SAPC  H16Y 2261   1.735   5.824   8.631 -1.1214  1.7802 -0.1424
   17SAPC  C317 2262   1.626   5.808   8.446 -0.2499  0.0048  1.0302
   17SAPC  H17X 2263   1.575   5.713   8.472  0.0037 -0.9880 -1.8015
   17SAPC  H17Y 2264   1.636   5.797   8.336  0.7333  1.7045  0.9008
   17SAPC  C318 2265   1.544   5.932   8.479  0.8230  0.2266  0.0102
   17SAPC  H18X 2266   1.594   6.003   8.548  1.5199  0.5852 -0.8425
   17SAPC  H18Y 2267   1.504   5.984   8.389 -0.9131  1.2550  1.3077
   17SAPC  H18Z 2268   1.453   5.902   8.536 -0.2482  1.2887 -1.0772
   18SAPC     N 2269   3.470   1.284  10.932  0.3017 -0.1546  0.7533
   18SAPC   C12 2270   3.512   1.417  10.879 -0.0575 -0.5325  0.5922
   18SAPC  H12A 2271   3.585   1.457  10.948  0.4136 -0.4883  0.0747
   18SAPC  H12B 2272   3.422   1.477  10.875  0.8615  0.8657 -0.4969
   18SAPC   C13 2273   3.395   1.310  11.059  1.0488  0.3007 -0.3060
   18SAPC  H13A 2274   3.312   1.375  11.035  1.1321 -0.0524 -1.6780
   18SAPC  H13B 2275   3.356   1.219  11.104 -2.6120  1.7552 -0.1659
   18SAPC  H13C 2276   3.458   1.356  11.133 -0.6720 -0.1114  1.5031
   18SAPC   C14 2277   3.387   1.205  10.832 -0.7508  0.7860  0.0042
   18SAPC  H14A 2278   3.301   1.260  10.798 -2.4843 -1.2288  0.9269
   18SAPC  H14B 2279   3.446   1.176  10.746 -0.6262 -0.1170  0.3858
   18SAPC  H14C 2280   3.362   1.113  10.883  0.3364  1.0946  1.1620
   18SAPC   C15 2281   3.590   1.195  10.964  0.1684  0.0895  0.3772
   18SAPC  H15A 2282   3.643   1.239  11.047 -1.2137  0.6792  0.9897
   18SAPC  H15B 2283   3.557   1.098  10.999 -0.5497  0.5673  1.0986
   18SAPC  H15C 2284   3.650   1.172  10.878 -0.8514 -2.9524  0.3529
   18SAPC   C11 2285   3.567   1.430  10.738  0.2878  0.1250 -0.4776
   18SAPC  H11A 2286   3.595   1.537  10.730 -1.4805  0.6318 -0.3187
   18SAPC  H11B 2287   3.478   1.399  10.677 -1.1749  1.1017  1.0816
   18SAPC     P 2288   3.719   1.248  10.609 -0.1955  0.2228  0.3121
   18SAPC   O13 2289   3.858   1.274  10.560 -0.2107 -0.2736  0.3702
   18SAPC   O14 2290   3.674   1.120  10.666  0.3465  0.0843 -0.0482
   18SAPC   O12 2291   3.688   1.356  10.722  0.0169 -0.3042 -0.0319
   18SAPC   O11 2292   3.617   1.300  10.500 -0.0537  0.0445 -0.2405
   18SAPC    C1 2293   3.643   1.418  10.418  0.1817  0.0597 -0.6448
   18SAPC    HA 2294   3.547   1.472  10.401 -0.9157 -1.3555  0.7645
   18SAPC    HB 2295   3.710   1.488  10.473  0.3133 -0.4984 -0.0945
   18SAPC    C2 2296   3.692   1.393  10.273 -0.4909  0.3127  0.2246
   18SAPC    HS 2297   3.663   1.475  10.204 -1.6580 -0.3267 -0.0674
   18SAPC   O21 2298   3.638   1.267  10.227  0.5054 -0.2746  0.4473
   18SAPC   C21 2299   3.511   1.269  10.181  0.0458  0.7802 -0.6474
   18SAPC   O22 2300   3.447   1.366  10.148  0.6172  0.0192 -0.2496
   18SAPC   C22 2301   3.461   1.125  10.172 -0.0854  0.1542 -1.0045
   18SAPC   H2R 2302   3.522   1.062  10.240  0.9143 -0.7022 -2.6297
   18SAPC   H2S 2303   3.359   1.115  10.215 -0.8380  0.2881 -2.6380
   18SAPC    C3 2304   3.852   1.382  10.267 -0.3678 -0.0754 -0.4325
   18SAPC    HX 2305   3.894   1.302  10.332 -0.9547  1.8318  2.4930
   18SAPC    HY 2306   3.887   1.479  10.307  3.5086 -0.8164 -1.6573
   18SAPC   O31 2307   3.909   1.377  10.134  0.1604  0.4239 -0.3694
   18SAPC   C31 2308   4.045   1.373  10.136  0.4713 -0.6083  0.2891
   18SAPC   O32 2309   4.109   1.371  10.236 -0.2725 -0.0606  0.0557
   18SAPC   C32 2310   4.100   1.351   9.994 -0.1385 -0.1805  0.0515
   18SAPC   H2X 2311   4.063   1.443   9.945  0.1646  0.1599  0.4527
   18SAPC   H2Y 2312   4.045   1.259   9.963 -0.0204 -0.7483  1.4287
   18SAPC   C23 2313   3.465   1.076  10.026 -0.2757  0.3708  0.3823
   18SAPC   H3R 2314   3.414   1.146   9.957  0.8126 -1.8075 -2.8812
   18SAPC   H3S 2315   3.408   0.980  10.026  1.1106 -0.4854 -0.2282
   18SAPC   C24 2316   3.609   1.052   9.980 -0.3289  0.9270  0.2279
   18SAPC   H4R 2317   3.653   0.969  10.039 -0.8344 -0.8817 -1.8066
   18SAPC   H4S 2318   3.672   1.139  10.009  2.5525 -0.7214 -0.6294
   18SAPC   C25 2319   3.624   1.015   9.832 -0.2773  0.4152 -0.3109
   18SAPC   H5R 2320   3.584   0.920   9.794 -0.2207  0.2061  0.1403
   18SAPC   C26 2321   3.698   1.080   9.744  0.2230 -0.0464 -0.6834
   18SAPC   H6R 2322   3.704   1.047   9.639  0.7461  0.9200 -0.9661
   18SAPC   C27 2323   3.780   1.211   9.763 -0.2203  0.6424  0.5178
   18SAPC   H7R 2324   3.834   1.199   9.860  1.9691  2.2383 -0.4107
   18SAPC   H7S 2325   3.712   1.298   9.769 -2.5590 -0.9549 -1.2027
   18SAPC   C28 2326   3.884   1.234   9.651 -0.8479  0.1789 -0.8856
   18SAPC   H8R 2327   3.988   1.242   9.685 -1.4499 -0.3953  1.2656
   18SAPC   C29 2328   3.862   1.269   9.521 -0.1080 -0.0024 -0.0556
   18SAPC   H9R 2329   3.947   1.271   9.451 -1.4297 -1.3921 -1.8039
   18SAPC  C210 2330   3.725   1.296   9.464 -0.8926 -0.5913  0.4471
   18SAPC  H10R 2331   3.655   1.325   9.545 -0.7941 -0.7323  0.5840
   18SAPC  H10S 2332   3.669   1.214   9.413  0.0072 -1.1281  0.3003
   18SAPC  C211 2333   3.749   1.410   9.361 -0.3669 -0.1357 -0.0544
   18SAPC  H11R 2334   3.843   1.466   9.366  0.0795 -0.9690  1.3919
   18SAPC  C212 2335   3.670   1.432   9.255 -0.8903  0.3040 -0.1810
   18SAPC  H12R 2336   3.700   1.510   9.184 -0.9289 -0.1278 -0.6744
   18SAPC  C213 2337   3.535   1.379   9.216  0.2104  0.0825  0.5978
   18SAPC  H13R 2338   3.450   1.430   9.268  2.0781  3.3820  0.7311
   18SAPC  H13S 2339   3.535   1.273   9.247 -0.2663 -0.2570 -0.5035
   18SAPC  C214 2340   3.517   1.376   9.066  0.3828  0.0578  0.7219
   18SAPC  H14R 2341   3.459   1.461   9.026  1.6151  0.1793 -0.9310
   18SAPC  C215 2342   3.580   1.297   8.972  0.1812  0.1421  0.0627
   18SAPC  H15R 2343   3.557   1.315   8.866 -1.7883  1.2676  0.6390
   18SAPC  C216 2344   3.676   1.180   9.009  0.2953 -0.1212 -0.2205
   18SAPC  H16R 2345   3.623   1.088   8.977 -1.6227  0.7449  0.3060
   18SAPC  H16S 2346   3.676   1.155   9.117  0.0279  2.4845  0.4698
   18SAPC  C217 2347   3.794   1.161   8.929 -0.8104 -0.5600  0.7321
   18SAPC  H17R 2348   3.770   1.119   8.829  0.4839 -2.2191  1.0752
   18SAPC  H17S 2349   3.869   1.093   8.974 -0.1170  0.1254  0.6429
   18SAPC  C218 2350   3.882   1.290   8.919  0.3155  0.6496  0.3469
   18SAPC  H18R 2351   3.870   1.364   9.001 -2.2981  1.8072 -0.9615
   18SAPC  H18S 2352   3.842   1.346   8.832 -1.3093  0.6678  1.0691
   18SAPC  C219 2353   4.031   1.260   8.892 -0.1676 -0.0194  0.1379
   18SAPC  H19R 2354   4.074   1.225   8.988  1.2132 -0.1751 -0.5119
   18SAPC  H19S 2355   4.083   1.357   8.876  0.8102 -0.0478  2.7537
   18SAPC  C220 2356   4.061   1.161   8.783 -0.3609  0.2523  0.0199
   18SAPC  H20R 2357   4.030   1.056   8.794 -1.8459  0.5025 -1.3823
   18SAPC  H20S 2358   4.169   1.151   8.757 -0.9649 -0.6922 -2.4187
   18SAPC  H20T 2359   4.000   1.202   8.699 -0.6949 -1.7225 -0.7388
   18SAPC   C33 2360   4.258   1.343   9.978  0.3224 -0.5495 -0.3742
   18SAPC   H3X 2361   4.298   1.274  10.055 -0.4411 -0.7455 -0.1454
   18SAPC   H3Y 2362   4.293   1.444  10.011  1.9126 -1.4489  0.8659
   18SAPC   C34 2363   4.294   1.306   9.836 -0.1257 -0.0308 -0.2455
   18SAPC   H4X 2364   4.269   1.199   9.818  1.6971 -0.4089 -0.7346
   18SAPC   H4Y 2365   4.404   1.315   9.835  0.0726 -1.9536  0.1277
   18SAPC   C35 2366   4.252   1.404   9.738 -0.2241  0.0078  0.5497
   18SAPC   H5X 2367   4.270   1.511   9.763  0.1656  0.2055 -0.5254
   18SAPC   H5Y 2368   4.141   1.396   9.738 -0.2875  0.6568  1.8182
   18SAPC   C36 2369   4.308   1.371   9.595  0.2713 -0.1994  0.4167
   18SAPC   H6X 2370   4.288   1.264   9.574 -0.0720 -0.0384 -0.0934
   18SAPC   H6Y 2371   4.418   1.381   9.594  0.2963  0.7433  3.2261
   18SAPC   C37 2372   4.225   1.447   9.493 -0.6384 -0.3836  0.8184
   18SAPC   H7X 2373   4.233   1.557   9.509 -3.5377 -0.5007  4.5578
   18SAPC   H7Y 2374   4.121   1.428   9.529  0.0423 -2.7491  1.7114
   18SAPC   C38 2375   4.239   1.392   9.345 -0.4522 -0.2941  0.7402
   18SAPC   H8X 2376   4.152   1.410   9.279 -0.4063 -0.4204  0.6465
   18SAPC   H8Y 2377   4.255   1.282   9.344 -0.5770 -0.3168  1.0508
   18SAPC   C39 2378   4.363   1.450   9.272 -0.5378 -0.2519 -0.2748
   18SAPC   H9X 2379   4.461   1.425   9.318 -1.2234 -0.0819  1.3518
   18SAPC   H9Y 2380   4.360   1.557   9.303 -0.1532 -0.5319  0.7524
   18SAPC  C310 2381   4.337   1.446   9.122 -0.7646 -0.6103  0.5041
   18SAPC  H10X 2382   4.238   1.491   9.100 -1.8370 -3.8362 -2.0549
   18SAPC  H10Y 2383   4.322   1.341   9.090 -0.7072 -0.5988  0.4399
   18SAPC  C311 2384   4.454   1.517   9.047 -0.7562  0.1793  0.3123
   18SAPC  H11X 2385   4.551   1.465   9.060 -0.1789  1.4198  1.2012
   18SAPC  H11Y 2386   4.455   1.613   9.104 -1.2658 -1.0591  2.5430
   18SAPC  C312 2387   4.438   1.531   8.897  0.3021 -0.2189  0.3789
   18SAPC  H12X 2388   4.524   1.585   8.853 -0.6257  2.3570  1.5543
   18SAPC  H12Y 2389   4.343   1.579   8.866 -0.9294 -1.5236  1.9445
   18SAPC  C313 2390   4.445   1.392   8.827 -0.5257 -0.7055  0.2303
   18SAPC  H13X 2391   4.362   1.325   8.858 -0.3476  0.0092  2.3909
   18SAPC  H13Y 2392   4.544   1.350   8.852  0.0836  1.1626  1.1060
   18SAPC  C314 2393   4.450   1.393   8.676 -0.1279  0.3135  0.4794
   18SAPC  H14X 2394   4.473   1.290   8.641 -0.9791  1.3972 -3.7434
   18SAPC  H14Y 2395   4.528   1.458   8.632  1.1824 -0.5902  1.3469
   18SAPC  C315 2396   4.306   1.426   8.612 -0.1073 -0.4240 -0.1641
   18SAPC  H15X 2397   4.270   1.522   8.654 -2.8457 -0.5464 -1.9758
   18SAPC  H15Y 2398   4.232   1.351   8.644  0.2146 -0.3565  0.7543
   18SAPC  C316 2399   4.317   1.437   8.462  0.7772 -0.5569  0.2359
   18SAPC  H16X 2400   4.246   1.374   8.405 -0.8527  1.4621 -0.0640
   18SAPC  H16Y 2401   4.417   1.397   8.433  0.1770 -0.9927 -1.3059
   18SAPC  C317 2402   4.322   1.583   8.406  0.3310 -0.5118 -0.3147
   18SAPC  H17X 2403   4.365   1.586   8.304  1.1792 -0.7343  0.0236
   18SAPC  H17Y 2404   4.394   1.644   8.465 -0.9182 -0.2867  1.0317
   18SAPC  C318 2405   4.197   1.672   8.398 -0.1016 -0.1437  0.2958
   18SAPC  H18X 2406   4.124   1.623   8.330 -0.9409  0.8790  0.4305
   18SAPC  H18Y 2407   4.215   1.764   8.338  0.0130 -1.3628 -1.5848
   18SAPC  H18Z 2408   4.157   1.690   8.501 -1.7395  0.4985 -0.4171
   19SAPC     N 2409   2.335   4.371  10.755 -0.4741  0.5378  0.5672
   19SAPC   C12 2410   2.241   4.348  10.641  0.3427 -0.4171  0.2224
   19SAPC  H12A 2411   2.207   4.246  10.655  0.2807 -0.2591  1.3598
   19SAPC  H12B 2412   2.281   4.345  10.541  1.6501 -2.5162  0.7307
   19SAPC   C13 2413   2.274   4.340  10.891 -0.8514  0.4451  0.3862
   19SAPC  H13A 2414   2.351   4.358  10.964  2.8068 -3.2919 -2.1495
   19SAPC  H13B 2415   2.181   4.393  10.911 -0.8985  0.3472  0.4267
   19SAPC  H13C 2416   2.243   4.238  10.908 -1.5321  0.2712 -1.5957
   19SAPC   C14 2417   2.444   4.269  10.741 -0.7278  0.2352  0.5232
   19SAPC  H14A 2418   2.416   4.166  10.726  1.1482 -0.3219  0.5895
   19SAPC  H14B 2419   2.500   4.285  10.650  1.6617 -0.9647  1.6810
   19SAPC  H14C 2420   2.518   4.270  10.820  1.9778 -2.7466 -1.7082
   19SAPC   C15 2421   2.400   4.508  10.754  0.0700  0.4255  0.2961
   19SAPC  H15A 2422   2.486   4.504  10.819  1.0385 -1.6032 -0.9976
   19SAPC  H15B 2423   2.419   4.543  10.653  1.7372  1.3310  0.8805
   19SAPC  H15C 2424   2.336   4.584  10.797  0.3271  0.8949 -0.1273
   19SAPC   C11 2425   2.113   4.438  10.640  0.1953  1.2451 -0.1724
   19SAPC  H11A 2426   2.072   4.441  10.744 -0.9495  2.0928 -0.6255
   19SAPC  H11B 2427   2.045   4.377  10.577  0.2411 -0.3206  1.2105
   19SAPC     P 2428   2.034   4.676  10.601 -0.2479  0.0088 -0.0892
   19SAPC   O13 2429   1.898   4.629  10.574  0.4022  0.1294 -0.3790
   19SAPC   O14 2430   2.051   4.753  10.727 -0.4939 -0.1708  0.4613
   19SAPC   O12 2431   2.148   4.567  10.588 -0.0055  0.6461 -0.1410
   19SAPC   O11 2432   2.078   4.767  10.481 -1.1181  0.2903 -0.4492
   19SAPC    C1 2433   2.094   4.738  10.347 -0.2667 -0.4150  0.2525
   19SAPC    HA 2434   2.194   4.780  10.323 -0.3293 -0.4497 -0.0636
   19SAPC    HB 2435   2.111   4.631  10.322  0.8689  0.1071 -1.3254
   19SAPC    C2 2436   1.965   4.790  10.263 -0.5573  0.7167 -0.5026
   19SAPC    HS 2437   1.880   4.729  10.300  0.2599 -0.7576 -0.9904
   19SAPC   O21 2438   1.999   4.758  10.124 -0.1661  0.1596 -0.2816
   19SAPC   C21 2439   1.908   4.683  10.065  0.1565 -0.2041 -0.3111
   19SAPC   O22 2440   1.794   4.662  10.104 -0.4859 -0.0277  0.4781
   19SAPC   C22 2441   1.965   4.624   9.939 -0.0477  0.3258 -0.2049
   19SAPC   H2R 2442   2.076   4.612   9.937  0.0581  1.0187  0.7756
   19SAPC   H2S 2443   1.926   4.521   9.935  2.6998 -0.7514 -2.3004
   19SAPC    C3 2444   1.931   4.942  10.291  0.4562 -0.0295  0.3087
   19SAPC    HX 2445   1.890   4.958  10.392  0.4427  2.2892 -0.0171
   19SAPC    HY 2446   1.852   4.964  10.216  1.1616  0.2190 -0.3730
   19SAPC   O31 2447   2.055   5.019  10.274  0.5751  0.3682 -0.3542
   19SAPC   C31 2448   2.081   5.074  10.145  1.3287 -0.0880 -0.0411
   19SAPC   O32 2449   1.995   5.073  10.059  0.6234 -0.2363  0.0345
   19SAPC   C32 2450   2.224   5.110  10.119  0.0888 -0.1902  0.3980
   19SAPC   H2X 2451   2.281   5.049  10.192 -0.3435 -2.9215 -1.3933
   19SAPC   H2Y 2452   2.239   5.220  10.124  1.4555 -0.3562  0.2314
   19SAPC   C23 2453   1.917   4.702   9.813  0.3355  0.8510 -0.4502
   19SAPC   H3R 2454   1.808   4.718   9.829 -0.5697 -2.0061 -2.9301
   19SAPC   H3S 2455   1.941   4.645   9.721  0.1161 -0.5492  0.3342
   19SAPC   C24 2456   1.996   4.836   9.804 -0.1506 -0.1321  0.1085
   19SAPC   H4R 2457   2.029   4.873   9.904  0.8840 -1.4293  0.2757
   19SAPC   H4S 2458   1.917   4.911   9.780 -2.6458 -1.7281  2.6255
   19SAPC   C25 2459   2.118   4.823   9.725 -0.2857  0.7210 -0.7368
   19SAPC   H5R 2460   2.205   4.826   9.793 -1.0264  0.1688  0.2544
   19SAPC   C26 2461   2.134   4.830   9.590  0.0252  0.1339 -0.2678
   19SAPC   H6R 2462   2.234   4.804   9.553  1.0543  1.1990  1.6090
   19SAPC   C27 2463   2.027   4.862   9.494  0.3513  0.7989  0.6246
   19SAPC   H7R 2464   1.932   4.894   9.540 -1.2759 -0.6546 -1.4906
   19SAPC   H7S 2465   1.994   4.767   9.447 -0.7856  2.0562 -1.2266
   19SAPC   C28 2466   2.075   4.956   9.385  0.2033 -0.7469 -0.3224
   19SAPC   H8R 2467   2.106   5.053   9.428  0.7687 -1.6045  1.2954
   19SAPC   C29 2468   2.091   4.920   9.255 -0.5291 -0.5936  0.2821
   19SAPC   H9R 2469   2.113   5.004   9.187 -1.8700  1.5313  2.3152
   19SAPC  C210 2470   2.050   4.790   9.191  0.2163 -0.5850 -0.2777
   19SAPC  H10R 2471   2.067   4.700   9.255  0.4175  0.3910  1.0930
   19SAPC  H10S 2472   2.101   4.776   9.093  1.8577 -0.1102  0.4765
   19SAPC  C211 2473   1.900   4.799   9.169  0.6402  0.1018  0.0612
   19SAPC  H11R 2474   1.836   4.763   9.251  0.7925 -0.2072  0.0464
   19SAPC  C212 2475   1.838   4.847   9.058 -0.7546  0.4097  0.5469
   19SAPC  H12R 2476   1.728   4.835   9.051 -0.8128  1.7105 -2.4981
   19SAPC  C213 2477   1.904   4.889   8.924  0.3571 -0.3692  0.0711
   19SAPC  H13R 2478   1.936   4.798   8.868 -0.9292 -0.3247 -0.7757
   19SAPC  H13S 2479   2.005   4.935   8.933  0.7207 -0.5484 -2.4281
   19SAPC  C214 2480   1.826   4.994   8.840 -0.2695 -0.0436 -0.2638
   19SAPC  H14R 2481   1.728   5.022   8.880 -1.2116 -0.7565 -1.9789
   19SAPC  C215 2482   1.871   5.058   8.733 -0.5966 -0.5321  0.1687
   19SAPC  H15R 2483   1.800   5.122   8.678 -0.8332 -0.4331  0.5859
   19SAPC  C216 2484   2.000   5.045   8.656 -0.8094  0.2093 -0.3264
   19SAPC  H16R 2485   1.969   5.031   8.550 -0.6473 -0.3034 -0.3141
   19SAPC  H16S 2486   2.062   4.960   8.694  1.3352  1.3080 -1.1623
   19SAPC  C217 2487   2.089   5.175   8.657 -0.1250 -0.1288 -0.2007
   19SAPC  H17R 2488   2.129   5.180   8.761 -1.3454  2.3519  0.2264
   19SAPC  H17S 2489   2.039   5.273   8.642  0.4618 -0.0656 -1.8799
   19SAPC  C218 2490   2.199   5.157   8.553  0.6062  0.3814  0.1175
   19SAPC  H18R 2491   2.175   5.182   8.448  2.6264  2.4304  0.0532
   19SAPC  H18S 2492   2.227   5.051   8.540  0.0151  0.4253 -1.8903
   19SAPC  C219 2493   2.321   5.240   8.588 -0.4980 -0.1675  0.5635
   19SAPC  H19R 2494   2.325   5.250   8.699 -3.0650  0.8089  0.6548
   19SAPC  H19S 2495   2.305   5.342   8.547 -4.2576 -1.1217 -0.7558
   19SAPC  C220 2496   2.459   5.179   8.539  0.3323  0.2238  0.0049
   19SAPC  H20R 2497   2.472   5.074   8.572  2.0347  0.7856  1.2961
   19SAPC  H20S 2498   2.545   5.239   8.577  0.4458 -0.3245  0.6091
   19SAPC  H20T 2499   2.458   5.178   8.427  1.8183  0.9010 -0.0441
   19SAPC   C33 2500   2.265   5.046   9.979  0.4289  0.1605 -1.0532
   19SAPC   H3X 2501   2.199   5.073   9.894  0.8247  1.6204 -0.9237
   19SAPC   H3Y 2502   2.265   4.937   9.996  1.5490 -0.0642 -2.3009
   19SAPC   C34 2503   2.412   5.068   9.926 -0.3194  0.0131  0.7335
   19SAPC   H4X 2504   2.427   4.985   9.853  1.3086 -1.6199  2.8043
   19SAPC   H4Y 2505   2.487   5.043  10.004  0.5596  0.7350  0.1401
   19SAPC   C35 2506   2.440   5.189   9.853 -0.1398  0.2996  1.0705
   19SAPC   H5X 2507   2.542   5.180   9.809 -0.7647  1.1241 -0.6011
   19SAPC   H5Y 2508   2.445   5.277   9.921  2.1293  1.4259 -0.4301
   19SAPC   C36 2509   2.344   5.212   9.732  0.5068  0.3084  0.2313
   19SAPC   H6X 2510   2.244   5.226   9.779  0.5097 -0.9336  0.6446
   19SAPC   H6Y 2511   2.353   5.121   9.670  1.7229 -0.7596  1.8694
   19SAPC   C37 2512   2.375   5.347   9.659  0.6169  0.2432  0.0095
   19SAPC   H7X 2513   2.426   5.413   9.733  4.7720  0.6658 -2.9108
   19SAPC   H7Y 2514   2.274   5.380   9.626 -0.0295  0.1470  1.7468
   19SAPC   C38 2515   2.470   5.343   9.536  0.3104 -0.2757  0.3981
   19SAPC   H8X 2516   2.578   5.336   9.563  0.2181  1.1123  1.2092
   19SAPC   H8Y 2517   2.467   5.445   9.491  0.2985 -0.0642  0.8756
   19SAPC   C39 2518   2.428   5.242   9.427  0.2924  0.2804 -0.3397
   19SAPC   H9X 2519   2.320   5.254   9.402  0.3433  1.1147 -0.1950
   19SAPC   H9Y 2520   2.434   5.139   9.470  2.1732  0.5152  0.0533
   19SAPC  C310 2521   2.513   5.260   9.300 -0.1454  0.2943 -0.0343
   19SAPC  H10X 2522   2.616   5.245   9.340 -0.1844  0.3773  0.0990
   19SAPC  H10Y 2523   2.502   5.366   9.268  3.6640  0.5452 -0.9035
   19SAPC  C311 2524   2.478   5.169   9.182  0.5430 -0.4563 -0.3896
   19SAPC  H11X 2525   2.550   5.200   9.103  1.5607  0.7450  0.9565
   19SAPC  H11Y 2526   2.376   5.202   9.155 -0.7500 -1.2129  3.0153
   19SAPC  C312 2527   2.471   5.021   9.208  0.2468 -0.0685  0.0617
   19SAPC  H12X 2528   2.402   4.986   9.288 -0.9154 -2.4097 -1.8346
   19SAPC  H12Y 2529   2.571   4.981   9.233  0.0453  0.8008  2.5077
   19SAPC  C313 2530   2.421   4.948   9.080  0.1403  0.2119 -0.2119
   19SAPC  H13X 2531   2.310   4.958   9.068  0.0271 -0.8108 -0.1007
   19SAPC  H13Y 2532   2.451   4.843   9.100  2.3046  0.9800  0.8662
   19SAPC  C314 2533   2.493   4.983   8.951 -0.3610  0.3827 -0.0814
   19SAPC  H14X 2534   2.604   4.986   8.963 -0.4893 -0.6825  1.8335
   19SAPC  H14Y 2535   2.462   5.082   8.912  0.4488  0.5656 -0.2844
   19SAPC  C315 2536   2.469   4.884   8.833  0.2070 -0.2839 -0.9713
   19SAPC  H15X 2537   2.517   4.790   8.869 -1.3468 -0.5233  0.6337
   19SAPC  H15Y 2538   2.523   4.923   8.744 -1.4328  1.9473 -1.0646
   19SAPC  C316 2539   2.326   4.846   8.815 -0.5003  0.2753 -0.5793
   19SAPC  H16X 2540   2.318   4.845   8.705  2.2364  0.3697 -0.8429
   19SAPC  H16Y 2541   2.260   4.921   8.864  0.4929 -0.5930  2.2788
   19SAPC  C317 2542   2.283   4.712   8.878 -0.2122 -0.0881  0.3088
   19SAPC  H17X 2543   2.173   4.720   8.865 -0.1316  1.3017  0.3339
   19SAPC  H17Y 2544   2.313   4.683   8.981  2.3773 -1.7805 -0.8091
   19SAPC  C318 2545   2.348   4.600   8.787  0.8393  0.2781 -0.1439
   19SAPC  H18X 2546   2.457   4.593   8.809  1.0119  1.0255 -0.7128
   19SAPC  H18Y 2547   2.327   4.631   8.682 -1.0680  1.7447  0.6011
   19SAPC  H18Z 2548   2.295   4.507   8.815 -0.2179 -0.4423 -3.9834
   20SAPC     N 2549   2.310   0.002  10.582  1.1543  0.2943  1.0655
   20SAPC   C12 2550   2.451   0.052  10.550 -0.6360 -0.0757  0.6671
   20SAPC  H12A 2551   2.461   0.158  10.567 -0.6339  0.2125 -0.9809
   20SAPC  H12B 2552   2.465   0.035  10.444  0.2238  0.0826  0.7451
   20SAPC   C13 2553   2.295  -0.146  10.551  0.2054 -0.3074  0.7258
   20SAPC  H13A 2554   2.196  -0.183  10.575 -0.1829  0.4666  0.3496
   20SAPC  H13B 2555   2.311  -0.172  10.448  3.3332 -1.7452  1.4537
   20SAPC  H13C 2556   2.360  -0.199  10.619 -0.6394  0.6588  2.3526
   20SAPC   C14 2557   2.282   0.028  10.731 -1.0193 -0.2126 -0.3773
   20SAPC  H14A 2558   2.208  -0.048  10.755 -1.2121 -0.4931 -1.7340
   20SAPC  H14B 2559   2.375   0.018  10.784 -1.6488 -1.0525  0.6166
   20SAPC  H14C 2560   2.236   0.125  10.738  0.0270  0.2522  0.2089
   20SAPC   C15 2561   2.202   0.067  10.507 -0.1701  0.0666 -0.4036
   20SAPC  H15A 2562   2.102   0.035  10.530 -1.3291  1.5285 -2.9429
   20SAPC  H15B 2563   2.201   0.175  10.516  0.7199  0.0080  0.5782
   20SAPC  H15C 2564   2.215   0.040  10.403  0.5848  1.3764 -0.6757
   20SAPC   C11 2565   2.578  -0.005  10.620  0.1985 -0.2757  0.5301
   20SAPC  H11A 2566   2.674   0.012  10.567  1.3910  0.8528  2.9132
   20SAPC  H11B 2567   2.562  -0.115  10.619  1.5697 -0.4975 -1.1861
   20SAPC     P 2568   2.620   0.180  10.794 -0.2832 -0.2731 -0.4096
   20SAPC   O13 2569   2.527   0.221  10.897 -0.0521  0.8335  0.2562
   20SAPC   O14 2570   2.764   0.181  10.826 -0.0486  0.1366 -0.3422
   20SAPC   O12 2571   2.579   0.035  10.751 -0.5094 -0.2369  0.4261
   20SAPC   O11 2572   2.605   0.264  10.660 -0.0046  0.0040  0.2617
   20SAPC    C1 2573   2.538   0.386  10.660  0.8475 -0.0906 -0.2191
   20SAPC    HA 2574   2.431   0.375  10.686  0.2950  1.6665 -1.5490
   20SAPC    HB 2575   2.588   0.461  10.726 -0.0261  1.0740 -0.8372
   20SAPC    C2 2576   2.550   0.463  10.526 -0.1091  0.1622  0.2109
   20SAPC    HS 2577   2.526   0.568  10.551  1.4718  1.2889 -2.5344
   20SAPC   O21 2578   2.456   0.405  10.434 -0.0275 -0.1459 -0.0469
   20SAPC   C21 2579   2.364   0.467  10.369  0.1559  0.2437 -0.7765
   20SAPC   O22 2580   2.337   0.582  10.384  0.4860 -0.6532 -0.4890
   20SAPC   C22 2581   2.322   0.372  10.259 -0.2274  0.7222 -0.5241
   20SAPC   H2R 2582   2.403   0.300  10.236 -1.4500 -0.2957 -1.8143
   20SAPC   H2S 2583   2.242   0.311  10.306  1.7359  0.0219  2.2147
   20SAPC    C3 2584   2.696   0.469  10.468  0.1155 -0.3714 -0.0677
   20SAPC    HX 2585   2.734   0.365  10.462 -0.1976 -0.5181  0.4639
   20SAPC    HY 2586   2.760   0.522  10.542  0.2961  0.6560 -0.9299
   20SAPC   O31 2587   2.690   0.549  10.343  0.0818 -0.1661  0.2203
   20SAPC   C31 2588   2.780   0.505  10.256  0.4946 -0.2253 -0.3689
   20SAPC   O32 2589   2.848   0.405  10.268  0.2110  0.1803 -0.4690
   20SAPC   C32 2590   2.779   0.597  10.137 -0.0286 -0.3458 -0.0680
   20SAPC   H2X 2591   2.803   0.698  10.176  0.3806 -1.8676  4.1589
   20SAPC   H2Y 2592   2.674   0.612  10.104 -0.3123 -1.7767  0.1055
   20SAPC   C23 2593   2.267   0.448  10.144  0.4400  0.7681  0.1047
   20SAPC   H3R 2594   2.211   0.534  10.187 -0.3445  0.2160  0.2026
   20SAPC   H3S 2595   2.187   0.403  10.081 -2.1699  3.3372  1.3593
   20SAPC   C24 2596   2.370   0.502  10.043 -0.1115  0.2027  0.4698
   20SAPC   H4R 2597   2.458   0.534  10.102 -0.5676  1.1259  0.6594
   20SAPC   H4S 2598   2.330   0.593   9.993  0.4508 -0.5555 -1.4671
   20SAPC   C25 2599   2.406   0.398   9.944 -0.3241 -0.9698  0.3573
   20SAPC   H5R 2600   2.441   0.307   9.995  0.7585  0.1700  1.7455
   20SAPC   C26 2601   2.413   0.404   9.814  0.2886  0.1384  0.8865
   20SAPC   H6R 2602   2.465   0.329   9.752 -1.0525  0.3957 -0.6415
   20SAPC   C27 2603   2.364   0.517   9.727 -0.2249  0.1960 -0.3754
   20SAPC   H7R 2604   2.314   0.595   9.788 -2.4959 -0.3320 -1.4371
   20SAPC   H7S 2605   2.284   0.477   9.661  0.3285  2.2613 -2.4492
   20SAPC   C28 2606   2.463   0.595   9.647  0.3383  0.4967  0.0460
   20SAPC   H8R 2607   2.528   0.662   9.703 -1.3033 -0.1200  2.8781
   20SAPC   C29 2608   2.485   0.574   9.515  0.2812 -0.6522 -0.4854
   20SAPC   H9R 2609   2.561   0.636   9.464  3.7473 -3.0520  1.3055
   20SAPC  C210 2610   2.412   0.477   9.431  0.2552 -0.6491  0.0865
   20SAPC  H10R 2611   2.366   0.396   9.491 -0.0082 -0.6472 -0.1109
   20SAPC  H10S 2612   2.476   0.414   9.366 -0.6751 -1.1533 -0.3718
   20SAPC  C211 2613   2.311   0.540   9.337 -0.0736  0.4439 -0.3363
   20SAPC  H11R 2614   2.212   0.560   9.382 -0.4266  0.5841 -1.1597
   20SAPC  C212 2615   2.340   0.584   9.211 -0.0181 -0.1355  0.3171
   20SAPC  H12R 2616   2.258   0.626   9.150 -3.2073 -1.5913  3.2212
   20SAPC  C213 2617   2.470   0.568   9.131  0.5424 -0.2074 -0.4388
   20SAPC  H13R 2618   2.540   0.512   9.197  1.1486  0.2732 -0.6667
   20SAPC  H13S 2619   2.532   0.661   9.125  1.8328 -1.0885 -1.3391
   20SAPC  C214 2620   2.453   0.511   8.993  0.1722  0.2515  0.2760
   20SAPC  H14R 2621   2.435   0.403   8.995  1.6436 -0.0085  0.6094
   20SAPC  C215 2622   2.462   0.575   8.870  0.1403  0.2745  0.0826
   20SAPC  H15R 2623   2.473   0.501   8.788  1.7737 -0.5994  1.0329
   20SAPC  C216 2624   2.490   0.718   8.838 -0.0708 -0.1084 -0.0030
   20SAPC  H16R 2625   2.599   0.723   8.816 -0.2186  0.7881 -0.5672
   20SAPC  H16S 2626   2.478   0.799   8.913 -0.1869  2.1490 -2.3443
   20SAPC  C217 2627   2.420   0.769   8.701 -0.0933 -0.1526 -0.9897
   20SAPC  H17R 2628   2.428   0.878   8.681  2.0078 -0.3836 -1.7548
   20SAPC  H17S 2629   2.310   0.756   8.705 -0.1700  0.7877  1.0337
   20SAPC  C218 2630   2.478   0.695   8.577 -0.0827  0.5262 -0.8943
   20SAPC  H18R 2631   2.467   0.587   8.599  0.6579  1.0854  2.8731
   20SAPC  H18S 2632   2.586   0.717   8.566  0.1238  0.2211  0.4088
   20SAPC  C219 2633   2.418   0.753   8.448 -0.1271  0.4965 -0.2558
   20SAPC  H19R 2634   2.461   0.853   8.428 -0.4420  0.6050 -0.3887
   20SAPC  H19S 2635   2.308   0.742   8.451 -0.0420 -0.5554 -0.3444
   20SAPC  C220 2636   2.460   0.670   8.332  0.2868 -0.3315 -0.0815
   20SAPC  H20R 2637   2.454   0.564   8.363  1.0388  0.1515  1.8109
   20SAPC  H20S 2638   2.563   0.694   8.299 -0.6036  0.1254 -2.8800
   20SAPC  H20T 2639   2.401   0.680   8.238 -1.4926 -1.6793  0.8459
   20SAPC   C33 2640   2.872   0.540  10.029  0.5472 -1.0017 -0.2269
   20SAPC   H3X 2641   2.831   0.439  10.007 -1.8309 -0.4702  1.3330
   20SAPC   H3Y 2642   2.977   0.534  10.063  0.1035 -0.2063  1.3810
   20SAPC   C34 2643   2.863   0.631   9.905 -0.0595  0.5422 -0.0114
   20SAPC   H4X 2644   2.904   0.733   9.922 -0.5102  0.5621  1.0304
   20SAPC   H4Y 2645   2.753   0.633   9.889  0.1547 -0.1803 -1.9117
   20SAPC   C35 2646   2.925   0.565   9.780 -0.7078 -0.1284  0.0831
   20SAPC   H5X 2647   2.887   0.461   9.780 -1.2865  0.0832  0.1196
   20SAPC   H5Y 2648   3.037   0.565   9.782 -0.6182 -1.3479 -2.0872
   20SAPC   C36 2649   2.892   0.637   9.653 -0.1399 -0.6551  0.5110
   20SAPC   H6X 2650   2.879   0.746   9.669  1.4829 -0.1496 -1.1894
   20SAPC   H6Y 2651   2.794   0.603   9.614 -0.2855 -0.1818  0.4602
   20SAPC   C37 2652   2.999   0.620   9.549  0.0630 -0.8725 -0.0276
   20SAPC   H7X 2653   3.024   0.512   9.554 -1.3712 -1.1564  1.7595
   20SAPC   H7Y 2654   3.094   0.672   9.572 -0.6698  0.4186  0.1626
   20SAPC   C38 2655   2.966   0.661   9.405  0.3811 -0.0318 -0.5881
   20SAPC   H8X 2656   3.069   0.660   9.362  0.6100  2.1054 -0.1807
   20SAPC   H8Y 2657   2.933   0.767   9.405  3.0060  0.9694  2.6404
   20SAPC   C39 2658   2.870   0.560   9.329  0.1697  0.0671  0.3981
   20SAPC   H9X 2659   2.775   0.548   9.386  0.7616 -1.0651  1.1850
   20SAPC   H9Y 2660   2.921   0.461   9.326 -0.6459 -0.5943 -5.6423
   20SAPC  C310 2661   2.848   0.607   9.180  0.1921 -0.3677 -0.5127
   20SAPC  H10X 2662   2.811   0.711   9.198  0.0635 -0.5632  0.4079
   20SAPC  H10Y 2663   2.755   0.565   9.136  0.4030 -1.8760  0.4294
   20SAPC  C311 2664   2.961   0.602   9.083  0.1258 -0.2125 -0.3406
   20SAPC  H11X 2665   2.967   0.495   9.054  0.0768  0.0450 -1.3426
   20SAPC  H11Y 2666   3.051   0.648   9.128  0.6700 -1.8543  0.3453
   20SAPC  C312 2667   2.947   0.669   8.943 -0.3455  0.3608  0.3502
   20SAPC  H12X 2668   3.042   0.709   8.902 -0.8282  1.2614  0.0916
   20SAPC  H12Y 2669   2.887   0.763   8.940  1.8228  1.8225  0.0661
   20SAPC  C313 2670   2.882   0.568   8.843 -0.5105 -0.5432 -0.9262
   20SAPC  H13X 2671   2.779   0.550   8.879 -0.7996 -0.5703 -1.7635
   20SAPC  H13Y 2672   2.944   0.476   8.841  2.9501  1.6215 -3.0511
   20SAPC  C314 2673   2.879   0.623   8.703  0.1232 -0.3296 -0.3717
   20SAPC  H14X 2674   2.982   0.658   8.679  0.0834 -0.5711 -0.9042
   20SAPC  H14Y 2675   2.809   0.709   8.692  0.0035 -0.1753  1.4051
   20SAPC  C315 2676   2.828   0.518   8.606  0.1428  0.3231 -0.0065
   20SAPC  H15X 2677   2.720   0.509   8.630  0.3265  1.0361  1.1633
   20SAPC  H15Y 2678   2.883   0.424   8.627 -2.1761 -1.7308 -2.3713
   20SAPC  C316 2679   2.837   0.560   8.455  0.0939 -0.2031  0.5391
   20SAPC  H16X 2680   2.934   0.611   8.437  0.0395 -0.6982 -1.3785
   20SAPC  H16Y 2681   2.760   0.637   8.433  0.8177  0.3171 -0.1887
   20SAPC  C317 2682   2.820   0.432   8.364  0.2360  0.0884  0.8841
   20SAPC  H17X 2683   2.725   0.385   8.396  0.5559 -2.4100 -1.5010
   20SAPC  H17Y 2684   2.900   0.363   8.398 -0.0211 -0.0769  1.1541
   20SAPC  C318 2685   2.839   0.460   8.210  0.0858  0.0590  0.4067
   20SAPC  H18X 2686   2.830   0.363   8.156  0.8054  0.4072 -0.3604
   20SAPC  H18Y 2687   2.942   0.492   8.185 -0.7474  1.4758 -1.3777
   20SAPC  H18Z 2688   2.764   0.531   8.171  0.8005  0.6869  0.1573
   21SAPC     N 2689   2.200   0.833  10.707 -0.0302  0.0408  0.0796
   21SAPC   C12 2690   2.185   0.716  10.800 -0.3004 -0.0035  0.0280
   21SAPC  H12A 2691   2.136   0.740  10.893  0.9943  2.5877  0.1291
   21SAPC  H12B 2692   2.285   0.688  10.832 -0.9589 -2.6890 -0.0444
   21SAPC   C13 2693   2.063   0.867  10.650  0.1842 -0.0853  0.5917
   21SAPC  H13A 2694   2.056   0.960  10.596  1.6938 -0.6317 -0.6441
   21SAPC  H13B 2695   2.040   0.781  10.588  0.4204  1.7442 -2.1882
   21SAPC  H13C 2696   1.979   0.865  10.718 -1.7276 -1.7363 -1.6310
   21SAPC   C14 2697   2.241   0.955  10.779  0.5101 -0.0278  0.9100
   21SAPC  H14A 2698   2.336   0.939  10.827  0.7306 -1.2114  0.1458
   21SAPC  H14B 2699   2.234   1.044  10.718 -4.3459  0.2105  1.3960
   21SAPC  H14C 2700   2.178   0.977  10.863 -1.5390  1.9343 -1.0024
   21SAPC   C15 2701   2.290   0.805  10.599  0.4634 -0.1723  0.5673
   21SAPC  H15A 2702   2.246   0.725  10.541 -0.1404  0.6494 -0.1569
   21SAPC  H15B 2703   2.290   0.888  10.529 -2.9688 -1.0728 -0.7141
   21SAPC  H15C 2704   2.392   0.796  10.631 -0.5912 -0.1147  4.4239
   21SAPC   C11 2705   2.125   0.587  10.742 -0.5238  0.2589 -0.1062
   21SAPC  H11A 2706   2.137   0.507  10.818  1.4376 -0.7797 -1.4362
   21SAPC  H11B 2707   2.189   0.558  10.656  0.3728 -0.8361  0.9007
   21SAPC     P 2708   1.873   0.580  10.797  0.0784 -0.0739  0.0874
   21SAPC   O13 2709   1.856   0.439  10.841  0.5501 -0.4316 -0.1452
   21SAPC   O14 2710   1.904   0.671  10.916  0.4645  0.1110 -0.5161
   21SAPC   O12 2711   1.986   0.600  10.694 -0.0566  0.2088 -0.2999
   21SAPC   O11 2712   1.750   0.628  10.714 -0.3503  0.2241 -0.2980
   21SAPC    C1 2713   1.723   0.588  10.578 -0.0977  1.1549 -0.0884
   21SAPC    HA 2714   1.674   0.674  10.528 -1.6644 -0.1023 -0.8038
   21SAPC    HB 2715   1.813   0.556  10.521 -1.0632 -0.5535 -0.7465
   21SAPC    C2 2716   1.614   0.472  10.573 -0.9095 -0.5204  0.1763
   21SAPC    HS 2717   1.632   0.394  10.650 -0.0024 -0.7264 -0.2418
   21SAPC   O21 2718   1.622   0.405  10.446 -0.4810  0.1114  0.3336
   21SAPC   C21 2719   1.729   0.341  10.424 -0.3827 -0.1750 -0.3687
   21SAPC   O22 2720   1.829   0.317  10.495  0.2772 -0.3134 -0.1062
   21SAPC   C22 2721   1.723   0.284  10.279  0.6471 -0.2583 -0.4600
   21SAPC   H2R 2722   1.696   0.178  10.302 -1.9726  0.7218  1.4415
   21SAPC   H2S 2723   1.645   0.333  10.217  1.8805 -0.7658 -2.5001
   21SAPC    C3 2724   1.476   0.532  10.588  0.0015  0.6154 -0.3900
   21SAPC    HX 2725   1.485   0.593  10.680 -0.5042  1.1485 -0.6886
   21SAPC    HY 2726   1.409   0.446  10.607  2.6325 -1.3011  0.7581
   21SAPC   O31 2727   1.432   0.609  10.477 -0.6499 -0.4762 -0.4516
   21SAPC   C31 2728   1.351   0.561  10.382  0.1035 -0.0068  0.5576
   21SAPC   O32 2729   1.293   0.454  10.393 -0.6612  0.4470 -0.7636
   21SAPC   C32 2730   1.334   0.652  10.262  0.1782  0.8594 -0.3580
   21SAPC   H2X 2731   1.405   0.737  10.274  0.7129  0.4154 -0.3695
   21SAPC   H2Y 2732   1.230   0.693  10.260 -0.0647  0.2608 -0.0946
   21SAPC   C23 2733   1.864   0.291  10.205  0.2367  0.6063  0.6405
   21SAPC   H3R 2734   1.873   0.212  10.128  3.2648  1.1070  0.3775
   21SAPC   H3S 2735   1.949   0.265  10.271  0.6591  2.0444  0.7108
   21SAPC   C24 2736   1.870   0.424  10.124 -0.3917 -0.3780  0.2049
   21SAPC   H4R 2737   1.772   0.431  10.072  0.6662 -1.0085 -1.9720
   21SAPC   H4S 2738   1.939   0.418  10.037  2.5258  2.3167  2.0900
   21SAPC   C25 2739   1.914   0.540  10.209  0.1698 -0.8569 -0.1380
   21SAPC   H5R 2740   1.996   0.509  10.276  0.3091  0.2437  0.2275
   21SAPC   C26 2741   1.863   0.665  10.213 -0.0826 -0.3243  0.2155
   21SAPC   H6R 2742   1.881   0.728  10.301  0.1688  0.3732 -0.3227
   21SAPC   C27 2743   1.741   0.715  10.135  0.3278 -0.1734  0.0618
   21SAPC   H7R 2744   1.675   0.769  10.206  0.1623  0.5024 -0.5960
   21SAPC   H7S 2745   1.670   0.640  10.093 -1.1937  0.2622  1.7367
   21SAPC   C28 2746   1.781   0.818  10.031  0.0339  0.1148  0.0235
   21SAPC   H8R 2747   1.839   0.900  10.077  0.7086 -1.1978  1.6329
   21SAPC   C29 2748   1.764   0.805   9.898  0.9254 -0.3941 -0.3193
   21SAPC   H9R 2749   1.789   0.884   9.826  0.4162 -1.3347 -1.5826
   21SAPC  C210 2750   1.712   0.681   9.823 -0.0112  0.7230 -0.3185
   21SAPC  H10R 2751   1.655   0.722   9.737 -1.9949 -0.9348  0.1042
   21SAPC  H10S 2752   1.642   0.632   9.895  0.1473  0.8223 -0.0949
   21SAPC  C211 2753   1.829   0.589   9.789 -0.1007 -0.8336 -0.4605
   21SAPC  H11R 2754   1.876   0.538   9.874 -1.6782 -1.2214  0.2320
   21SAPC  C212 2755   1.877   0.560   9.666  0.4246  0.0746 -0.6974
   21SAPC  H12R 2756   1.945   0.474   9.661 -0.6239 -0.7925 -0.3800
   21SAPC  C213 2757   1.815   0.608   9.537 -0.3801  0.5691  0.5495
   21SAPC  H13R 2758   1.716   0.653   9.556  0.6348  1.7361  3.8655
   21SAPC  H13S 2759   1.800   0.520   9.472 -4.1949  1.2463  0.2964
   21SAPC  C214 2760   1.893   0.716   9.476  0.5340 -0.2066  0.5305
   21SAPC  H14R 2761   1.931   0.793   9.545  3.9407 -3.1205  2.2859
   21SAPC  C215 2762   1.911   0.732   9.349 -0.7255 -0.2008  0.1228
   21SAPC  H15R 2763   1.961   0.825   9.320 -1.6858  0.1376 -0.4648
   21SAPC  C216 2764   1.871   0.650   9.226  0.3866  0.0886 -0.3092
   21SAPC  H16R 2765   1.796   0.704   9.164  0.6372  0.5740 -0.1969
   21SAPC  H16S 2766   1.826   0.551   9.250 -0.0867  0.3706 -0.0385
   21SAPC  C217 2767   1.994   0.641   9.132  0.2785  0.3165 -0.0608
   21SAPC  H17R 2768   2.056   0.563   9.181  2.1478  1.6329 -0.2295
   21SAPC  H17S 2769   2.056   0.733   9.134  0.3307  0.2817 -0.0834
   21SAPC  C218 2770   1.967   0.618   8.981  0.0184  0.2559 -0.1784
   21SAPC  H18R 2771   1.933   0.714   8.937 -2.4891 -1.0839 -1.3807
   21SAPC  H18S 2772   1.893   0.535   8.980  0.8352 -0.5225  1.0930
   21SAPC  C219 2773   2.092   0.568   8.907 -0.1518 -0.2334  0.3689
   21SAPC  H19R 2774   2.122   0.471   8.951  0.7170 -1.0331 -1.8938
   21SAPC  H19S 2775   2.171   0.641   8.935 -1.6569  0.4889  3.1094
   21SAPC  C220 2776   2.075   0.556   8.757 -0.3823  0.1902  0.0410
   21SAPC  H20R 2777   2.028   0.652   8.729  2.1724  1.3890 -0.4056
   21SAPC  H20S 2778   2.012   0.467   8.732 -0.5173  0.7782 -1.9150
   21SAPC  H20T 2779   2.175   0.559   8.707  0.3063  0.2028  1.3835
   21SAPC   C33 2780   1.366   0.567  10.138  0.2296  0.2892  0.2213
   21SAPC   H3X 2781   1.311   0.471  10.130 -1.4649  1.3067 -0.9105
   21SAPC   H3Y 2782   1.473   0.539  10.139  0.6588  1.8313 -0.1458
   21SAPC   C34 2783   1.333   0.631  10.007  0.2057  0.0948  0.5201
   21SAPC   H4X 2784   1.368   0.563   9.925  0.0519  0.3371  0.2511
   21SAPC   H4Y 2785   1.391   0.725  10.002 -0.0414  0.2321  0.1576
   21SAPC   C35 2786   1.180   0.652   9.985 -0.1108  0.3783 -0.1275
   21SAPC   H5X 2787   1.149   0.736  10.051  0.1399 -0.3007  0.8624
   21SAPC   H5Y 2788   1.128   0.565  10.031  0.7038  0.1879  0.4446
   21SAPC   C36 2789   1.155   0.668   9.833 -0.5326 -0.7996  0.2508
   21SAPC   H6X 2790   1.231   0.738   9.793  0.6932 -0.5240  2.8657
   21SAPC   H6Y 2791   1.061   0.725   9.819 -1.8983 -2.6709  1.3369
   21SAPC   C37 2792   1.152   0.538   9.752  0.1355  0.2216 -0.6420
   21SAPC   H7X 2793   1.099   0.467   9.818  1.2534  0.2764  0.3434
   21SAPC   H7Y 2794   1.257   0.502   9.749 -0.3229 -1.2167 -0.3235
   21SAPC   C38 2795   1.082   0.546   9.617  0.0782 -0.1295 -0.0701
   21SAPC   H8X 2796   1.082   0.641   9.558  0.3131 -1.2991 -2.0545
   21SAPC   H8Y 2797   0.980   0.524   9.654  0.7674 -1.5348  1.0947
   21SAPC   C39 2798   1.109   0.432   9.508  0.0011  0.0843 -0.6917
   21SAPC   H9X 2799   1.107   0.326   9.543  1.5043  0.3977  0.4163
   21SAPC   H9Y 2800   1.212   0.446   9.471 -0.2931  0.9346 -1.2145
   21SAPC  C310 2801   1.009   0.444   9.391 -0.6654 -0.1799 -0.5857
   21SAPC  H10X 2802   0.974   0.549   9.391 -0.6589 -0.1771 -0.7659
   21SAPC  H10Y 2803   0.924   0.378   9.417 -1.0090  0.1435 -0.8712
   21SAPC  C311 2804   1.062   0.409   9.255 -0.1644  0.2176  0.1813
   21SAPC  H11X 2805   1.123   0.316   9.253  2.1489  1.4178  4.0652
   21SAPC  H11Y 2806   1.147   0.479   9.241  1.4472 -1.0509  2.8651
   21SAPC  C312 2807   0.963   0.428   9.138 -0.2839 -0.4412  1.2972
   21SAPC  H12X 2808   0.915   0.527   9.156  0.3985  0.0905  0.2817
   21SAPC  H12Y 2809   0.892   0.343   9.137  0.8163 -1.4326 -1.2990
   21SAPC  C313 2810   1.045   0.415   9.009  0.3063 -0.0826 -0.8704
   21SAPC  H13X 2811   1.090   0.313   9.005 -0.3303 -0.4631  0.8063
   21SAPC  H13Y 2812   1.130   0.486   9.016 -0.9115  1.2958  0.3948
   21SAPC  C314 2813   0.971   0.433   8.878  0.2648  0.0011 -0.1915
   21SAPC  H14X 2814   0.922   0.533   8.879  2.4487  1.1324 -0.1929
   21SAPC  H14Y 2815   0.894   0.353   8.885  0.6193 -0.2877  0.4083
   21SAPC  C315 2816   1.051   0.412   8.754  0.1943  0.6517  0.8154
   21SAPC  H15X 2817   0.989   0.423   8.662  0.2642  0.0599  0.6951
   21SAPC  H15Y 2818   1.098   0.311   8.752 -0.2815  0.4295 -0.5228
   21SAPC  C316 2819   1.165   0.502   8.708 -0.0819  0.3926  0.4663
   21SAPC  H16X 2820   1.247   0.515   8.783  2.5833  0.3633 -2.2371
   21SAPC  H16Y 2821   1.123   0.603   8.688  0.6101  0.7382  0.7194
   21SAPC  C317 2822   1.241   0.436   8.589  0.4652 -0.3596  0.5575
   21SAPC  H17X 2823   1.166   0.381   8.528  1.6017  0.9155 -2.1345
   21SAPC  H17Y 2824   1.303   0.359   8.638  0.9157 -0.5838 -0.3519
   21SAPC  C318 2825   1.293   0.542   8.493 -0.6311 -0.1109 -0.7006
   21SAPC  H18X 2826   1.326   0.633   8.549  1.7727 -1.3762  0.0698
   21SAPC  H18Y 2827   1.211   0.580   8.429 -0.2742 -2.5601 -2.7355
   21SAPC  H18Z 2828   1.375   0.504   8.430  0.7010  2.5186 -0.7036
   22SAPC     N 2829   0.522   6.083  10.716 -0.7681 -0.0548 -0.0674
   22SAPC   C12 2830   0.561   6.017  10.584 -0.5630 -0.6081  0.6975
   22SAPC  H12A 2831   0.668   6.011  10.567 -0.6400 -2.2744  0.5469
   22SAPC  H12B 2832   0.519   6.072  10.502 -1.6326 -1.5511  0.5860
   22SAPC   C13 2833   0.375   6.082  10.732 -0.5031 -0.3129 -0.1854
   22SAPC  H13A 2834   0.343   6.141  10.816 -2.1799 -0.1316 -0.9120
   22SAPC  H13B 2835   0.327   6.117  10.642 -0.9844 -1.0915 -0.2398
   22SAPC  H13C 2836   0.348   5.981  10.761 -0.9183  0.1807  1.1880
   22SAPC   C14 2837   0.581   6.019  10.836  0.3048  0.7720  0.4619
   22SAPC  H14A 2838   0.547   5.917  10.841  1.2872  0.4245  0.1498
   22SAPC  H14B 2839   0.688   6.015  10.824  0.3312 -1.4387  1.0336
   22SAPC  H14C 2840   0.557   6.070  10.928 -0.3685  1.6699 -0.1859
   22SAPC   C15 2841   0.569   6.226  10.718  0.1392  0.5697  0.1594
   22SAPC  H15A 2842   0.534   6.276  10.806 -0.6234  2.2810 -1.0583
   22SAPC  H15B 2843   0.677   6.232  10.720  0.2321 -0.7968  0.3784
   22SAPC  H15C 2844   0.528   6.280  10.634  0.6527 -0.5102 -0.8272
   22SAPC   C11 2845   0.509   5.869  10.555 -0.0616 -0.5633  0.9422
   22SAPC  H11A 2846   0.530   5.859  10.446 -1.9792  0.0690  0.4761
   22SAPC  H11B 2847   0.402   5.866  10.583 -0.3198  1.5090  0.3580
   22SAPC     P 2848   0.721   5.722  10.606  0.2305  0.1702  0.0945
   22SAPC   O13 2849   0.809   5.839  10.611 -0.5545 -0.3006  0.4454
   22SAPC   O14 2850   0.744   5.597  10.679 -0.0495  0.2662 -0.2718
   22SAPC   O12 2851   0.576   5.778  10.646 -0.6698  0.0391  0.3500
   22SAPC   O11 2852   0.717   5.674  10.457  0.5209  0.1031 -0.4099
   22SAPC    C1 2853   0.635   5.560  10.415  0.1338 -0.5511 -0.7506
   22SAPC    HA 2854   0.687   5.469  10.454 -2.3115 -1.6746  0.0753
   22SAPC    HB 2855   0.540   5.552  10.471  2.2578 -2.5874  3.0519
   22SAPC    C2 2856   0.606   5.558  10.257  0.1845 -0.7880  0.0676
   22SAPC    HS 2857   0.542   5.468  10.249  2.1783 -2.3491  1.1342
   22SAPC   O21 2858   0.727   5.559  10.185 -0.0791  0.1105 -0.0650
   22SAPC   C21 2859   0.779   5.444  10.164  0.4677  0.7793  0.5241
   22SAPC   O22 2860   0.726   5.337  10.206 -0.0971 -0.3313 -0.0428
   22SAPC   C22 2861   0.887   5.451  10.053 -0.3245 -0.1427  0.3382
   22SAPC   H2R 2862   0.916   5.554  10.024  0.7934 -0.5548 -0.0717
   22SAPC   H2S 2863   0.978   5.402  10.096  2.1186  1.0151 -3.1183
   22SAPC    C3 2864   0.520   5.686  10.210  0.5778  0.5325  0.3166
   22SAPC    HX 2865   0.576   5.776  10.243 -1.0016  2.3379 -1.6151
   22SAPC    HY 2866   0.428   5.680  10.272  0.3874 -4.1548 -0.0102
   22SAPC   O31 2867   0.505   5.702  10.070  0.4153  0.6092  0.4091
   22SAPC   C31 2868   0.424   5.622  10.006  0.3602 -0.2120 -1.1652
   22SAPC   O32 2869   0.351   5.534  10.059 -0.0440 -0.3539  0.2836
   22SAPC   C32 2870   0.430   5.667   9.855 -0.2090  1.3060 -0.0818
   22SAPC   H2X 2871   0.536   5.694   9.833 -0.3148  0.6819 -1.4425
   22SAPC   H2Y 2872   0.369   5.760   9.852 -1.1370  0.7862  1.3365
   22SAPC   C23 2873   0.856   5.365   9.927 -0.2698 -0.5335  0.4788
   22SAPC   H3R 2874   0.768   5.415   9.882 -0.8350 -2.2943 -0.4557
   22SAPC   H3S 2875   0.846   5.259   9.961  1.3788 -1.0435 -0.5113
   22SAPC   C24 2876   0.971   5.374   9.830 -0.0867  0.2316  0.6216
   22SAPC   H4R 2877   1.066   5.362   9.885 -0.4975 -0.2932  1.2217
   22SAPC   H4S 2878   0.975   5.477   9.787  1.7374 -0.5034 -1.1262
   22SAPC   C25 2879   0.951   5.265   9.723 -0.3432 -0.3985 -0.2467
   22SAPC   H5R 2880   0.987   5.165   9.752  0.8420 -0.0748 -0.5627
   22SAPC   C26 2881   0.885   5.272   9.606 -0.3898 -0.4451  0.3405
   22SAPC   H6R 2882   0.878   5.182   9.542 -0.0182 -0.2377  0.0028
   22SAPC   C27 2883   0.816   5.395   9.550 -0.1565 -0.0869 -0.2587
   22SAPC   H7R 2884   0.875   5.434   9.464 -1.2026 -1.0129 -1.4341
   22SAPC   H7S 2885   0.815   5.477   9.625  2.6847  1.2560 -1.4930
   22SAPC   C28 2886   0.682   5.377   9.492  0.2696  0.6234 -0.2201
   22SAPC   H8R 2887   0.599   5.385   9.565 -0.1741 -1.0608 -0.4869
   22SAPC   C29 2888   0.646   5.374   9.363 -0.5766 -0.0749 -0.0698
   22SAPC   H9R 2889   0.539   5.363   9.338 -0.4669 -0.8184 -0.2298
   22SAPC  C210 2890   0.740   5.392   9.242 -0.4048 -0.6732 -0.3382
   22SAPC  H10R 2891   0.843   5.363   9.271  1.1652  1.9046 -2.8666
   22SAPC  H10S 2892   0.760   5.500   9.227 -0.8282 -0.8693 -2.7287
   22SAPC  C211 2893   0.709   5.337   9.108  0.3232  0.5771  0.1563
   22SAPC  H11R 2894   0.602   5.347   9.083  0.1319 -0.4502  0.5105
   22SAPC  C212 2895   0.787   5.250   9.038 -0.2368  0.0228 -0.0278
   22SAPC  H12R 2896   0.745   5.209   8.945  0.9265  1.3171 -1.1756
   22SAPC  C213 2897   0.930   5.200   9.055  0.5318 -0.3077 -0.8903
   22SAPC  H13R 2898   0.950   5.131   8.970  1.9069  0.8896 -1.5827
   22SAPC  H13S 2899   0.941   5.134   9.144 -0.2967 -0.9959 -1.2846
   22SAPC  C214 2900   1.038   5.307   9.059  0.3788 -0.7754  0.1667
   22SAPC  H14R 2901   1.017   5.385   8.984 -0.8620 -0.9298  0.3453
   22SAPC  C215 2902   1.141   5.314   9.148  0.3471  0.3641  0.7246
   22SAPC  H15R 2903   1.224   5.383   9.124  1.6928 -1.3145  0.3788
   22SAPC  C216 2904   1.164   5.217   9.255  0.5340  0.0314 -0.3557
   22SAPC  H16R 2905   1.226   5.133   9.216  1.1525  0.0208  0.6070
   22SAPC  H16S 2906   1.068   5.175   9.292  0.0011  0.2574 -1.4524
   22SAPC  C217 2907   1.239   5.287   9.373  0.0866 -0.1269 -0.2907
   22SAPC  H17R 2908   1.231   5.234   9.470  0.3030 -2.2613 -1.3807
   22SAPC  H17S 2909   1.182   5.378   9.401 -2.0827 -0.8644 -2.0023
   22SAPC  C218 2910   1.385   5.303   9.348 -0.5445 -0.0066 -0.6212
   22SAPC  H18R 2911   1.430   5.349   9.439 -1.6020  0.3981 -0.2892
   22SAPC  H18S 2912   1.416   5.369   9.264 -2.0862 -0.5302 -1.6494
   22SAPC  C219 2913   1.457   5.172   9.329  0.3283 -0.1141  0.0804
   22SAPC  H19R 2914   1.451   5.128   9.227  4.9449  0.4355 -0.6605
   22SAPC  H19S 2915   1.417   5.098   9.402  1.4799 -2.9424 -1.9471
   22SAPC  C220 2916   1.606   5.194   9.370  0.0668 -0.1563 -0.1790
   22SAPC  H20R 2917   1.661   5.098   9.386  0.2654  0.1862  1.3282
   22SAPC  H20S 2918   1.614   5.252   9.464 -0.2623 -0.3251 -0.0434
   22SAPC  H20T 2919   1.655   5.248   9.287 -0.3101  0.1692 -0.1920
   22SAPC   C33 2920   0.390   5.548   9.756 -0.5676 -0.3886 -0.4236
   22SAPC   H3X 2921   0.397   5.461   9.825  1.1710 -1.1918 -1.5257
   22SAPC   H3Y 2922   0.475   5.546   9.685 -0.5337  0.3600 -0.4105
   22SAPC   C34 2923   0.255   5.568   9.683 -0.1693 -0.1473 -0.2351
   22SAPC   H4X 2924   0.223   5.674   9.690  0.7748  0.0329  2.6664
   22SAPC   H4Y 2925   0.173   5.510   9.730  0.0718  1.4098  2.3251
   22SAPC   C35 2926   0.264   5.510   9.534 -0.4861 -0.1189 -0.5040
   22SAPC   H5X 2927   0.160   5.507   9.496 -0.2593  0.7710 -1.2495
   22SAPC   H5Y 2928   0.303   5.406   9.530  1.0270  0.4605 -2.1078
   22SAPC   C36 2929   0.346   5.592   9.438  0.2226 -0.2603 -0.1279
   22SAPC   H6X 2930   0.456   5.587   9.455  0.1836  1.9107  1.1116
   22SAPC   H6Y 2931   0.321   5.699   9.447 -0.5152 -0.2986 -1.5542
   22SAPC   C37 2932   0.327   5.553   9.292  0.7203  0.1143 -0.0227
   22SAPC   H7X 2933   0.223   5.577   9.261  1.6320  1.3679 -2.3808
   22SAPC   H7Y 2934   0.340   5.444   9.277  1.9641  0.1035  0.9965
   22SAPC   C38 2935   0.423   5.621   9.193  0.7259  0.1310 -0.3550
   22SAPC   H8X 2936   0.523   5.580   9.220  0.8559  0.6182 -0.0887
   22SAPC   H8Y 2937   0.437   5.730   9.210  2.8128  0.1178 -1.6649
   22SAPC   C39 2938   0.410   5.588   9.041  0.9003  0.3882 -0.7246
   22SAPC   H9X 2939   0.309   5.609   9.002 -0.1200 -2.4938  0.1432
   22SAPC   H9Y 2940   0.422   5.478   9.035  2.2778  0.4973 -0.3866
   22SAPC  C310 2941   0.517   5.659   8.950 -0.9094  0.1743  0.1399
   22SAPC  H10X 2942   0.613   5.602   8.942  1.0054  3.3931 -2.0640
   22SAPC  H10Y 2943   0.546   5.758   8.991  0.6007  0.6804 -1.9681
   22SAPC  C311 2944   0.468   5.678   8.813 -0.4604 -0.1388  0.3573
   22SAPC  H11X 2945   0.406   5.770   8.821 -0.5060  0.1942 -2.8272
   22SAPC  H11Y 2946   0.402   5.591   8.792 -0.5805 -1.0526  3.8285
   22SAPC  C312 2947   0.585   5.696   8.714  0.2593 -0.1890  0.0076
   22SAPC  H12X 2948   0.648   5.771   8.767  0.4270  1.4368 -2.3341
   22SAPC  H12Y 2949   0.555   5.755   8.625  0.1517  0.6765  0.6027
   22SAPC  C313 2950   0.663   5.578   8.661 -0.4750  0.4410 -0.6672
   22SAPC  H13X 2951   0.592   5.502   8.623  1.5929 -2.3585  0.7600
   22SAPC  H13Y 2952   0.708   5.523   8.747 -0.8247 -0.2560 -0.9225
   22SAPC  C314 2953   0.778   5.617   8.562 -0.5270  0.8568 -0.1416
   22SAPC  H14X 2954   0.841   5.684   8.623 -2.8997  0.8884  2.5057
   22SAPC  H14Y 2955   0.737   5.664   8.470 -0.9743  0.0003 -0.4013
   22SAPC  C315 2956   0.856   5.489   8.519 -0.0501  0.0988 -0.1132
   22SAPC  H15X 2957   0.795   5.448   8.435 -1.6142 -0.0540  1.0538
   22SAPC  H15Y 2958   0.865   5.404   8.590 -1.3123  0.6060  0.6889
   22SAPC  C316 2959   1.001   5.518   8.481 -0.3083  1.1929  0.3195
   22SAPC  H16X 2960   1.049   5.546   8.577  1.5241  1.1384 -0.5290
   22SAPC  H16Y 2961   1.002   5.601   8.407 -1.0208  1.0960  0.1939
   22SAPC  C317 2962   1.069   5.398   8.405  0.4229 -0.0695 -0.3380
   22SAPC  H17X 2963   1.030   5.391   8.301  0.6343  0.3693 -0.4488
   22SAPC  H17Y 2964   1.031   5.306   8.455 -0.3583  0.3708 -0.1087
   22SAPC  C318 2965   1.216   5.390   8.420  0.5885  0.5065  0.1322
   22SAPC  H18X 2966   1.233   5.367   8.528 -0.6640  2.6549  0.8414
   22SAPC  H18Y 2967   1.270   5.486   8.406 -0.5329  1.3898  1.5435
   22SAPC  H18Z 2968   1.262   5.310   8.359  0.1217  1.1503 -1.0917
   23SAPC     N 2969   5.146   6.502  10.646  0.6688 -0.2403  0.9052
   23SAPC   C12 2970   5.014   6.459  10.567 -0.5455 -0.2247  0.0691
   23SAPC  H12A 2971   5.019   6.353  10.548  0.2417 -0.2835  0.5572
   23SAPC  H12B 2972   4.994   6.505  10.472 -2.4705 -0.5295  0.2845
   23SAPC   C13 2973   5.264   6.486  10.555  0.0160 -0.0941 -0.0344
   23SAPC  H13A 2974   5.354   6.479  10.615  0.6114 -2.5253 -1.0871
   23SAPC  H13B 2975   5.261   6.396  10.495  2.1416 -0.6967  0.6905
   23SAPC  H13C 2976   5.267   6.558  10.474  1.7460 -1.6870 -1.4897
   23SAPC   C14 2977   5.149   6.650  10.684 -0.2682  0.3989  0.4996
   23SAPC  H14A 2978   5.256   6.663  10.693  0.0798 -2.3642  1.3212
   23SAPC  H14B 2979   5.108   6.710  10.603 -1.3511 -0.6075  0.2712
   23SAPC  H14C 2980   5.094   6.672  10.774 -0.9223  0.1994  0.1555
   23SAPC   C15 2981   5.164   6.411  10.761 -0.4604 -0.2384 -0.1729
   23SAPC  H15A 2982   5.069   6.400  10.812 -0.4672  1.8905  0.4096
   23SAPC  H15B 2983   5.201   6.316  10.726 -0.4648 -0.8340  1.3446
   23SAPC  H15C 2984   5.247   6.452  10.818  1.5120 -1.6390 -1.8847
   23SAPC   C11 2985   4.882   6.474  10.642  0.2178 -0.3825 -0.3697
   23SAPC  H11A 2986   4.795   6.458  10.575 -0.4498 -1.1435  0.6438
   23SAPC  H11B 2987   4.876   6.577  10.682 -2.8433 -1.7053  3.2267
   23SAPC     P 2988   4.863   6.224  10.729  0.6301 -0.2399  0.2605
   23SAPC   O13 2989   4.989   6.158  10.773  0.4795  0.2903 -0.2068
   23SAPC   O14 2990   4.743   6.179  10.805 -0.5074 -0.1944  0.3470
   23SAPC   O12 2991   4.870   6.377  10.749  0.0373 -0.8247  0.3445
   23SAPC   O11 2992   4.854   6.194  10.579  0.1506  0.2346  0.0074
   23SAPC    C1 2993   4.734   6.178  10.499 -0.8642  0.0636  0.1986
   23SAPC    HA 2994   4.648   6.246  10.515 -2.2927 -1.4931 -0.5507
   23SAPC    HB 2995   4.756   6.202  10.393  0.7892  1.7636  0.8761
   23SAPC    C2 2996   4.690   6.032  10.494 -0.1554  0.0644  0.3435
   23SAPC    HS 2997   4.685   6.003  10.601  0.5304  1.5329  0.7887
   23SAPC   O21 2998   4.797   5.951  10.433 -0.0503  0.2089 -0.3496
   23SAPC   C21 2999   4.788   5.824  10.474 -0.1172 -0.0660  0.4745
   23SAPC   O22 3000   4.708   5.785  10.559  0.6536 -0.4007 -0.1315
   23SAPC   C22 3001   4.904   5.749  10.416 -0.3220 -0.3036 -0.2756
   23SAPC   H2R 3002   4.894   5.757  10.305  0.4389 -0.4953 -0.3677
   23SAPC   H2S 3003   4.992   5.807  10.450 -2.2496  3.0003 -0.5533
   23SAPC    C3 3004   4.555   6.016  10.430 -0.1241  0.3840 -0.4134
   23SAPC    HX 3005   4.483   6.055  10.505 -1.8443 -1.6475 -0.8994
   23SAPC    HY 3006   4.527   5.910  10.409 -0.1190  0.3275 -0.1377
   23SAPC   O31 3007   4.558   6.096  10.310  0.3868  0.1331 -0.1632
   23SAPC   C31 3008   4.589   6.032  10.196  0.0759 -0.2946  0.5205
   23SAPC   O32 3009   4.622   5.915  10.182  0.4587 -0.5739 -0.6831
   23SAPC   C32 3010   4.547   6.128  10.076  0.4327  0.3153  0.8790
   23SAPC   H2X 3011   4.439   6.153  10.083 -0.1620 -0.8235 -2.3137
   23SAPC   H2Y 3012   4.557   6.081   9.976 -1.2497  1.8074 -0.0610
   23SAPC   C23 3013   4.912   5.595  10.442  0.7384 -0.5745  0.0739
   23SAPC   H3R 3014   4.826   5.571  10.508 -0.4045 -1.6514 -1.6914
   23SAPC   H3S 3015   5.000   5.561  10.499  1.9195  0.8483 -0.8300
   23SAPC   C24 3016   4.916   5.511  10.313 -0.1316  0.0014  0.1948
   23SAPC   H4R 3017   5.008   5.543  10.258 -1.1383  2.0548 -0.4081
   23SAPC   H4S 3018   4.834   5.547  10.247  1.4905  2.0905 -0.7951
   23SAPC   C25 3019   4.927   5.365  10.320 -0.4182  0.2900 -0.7219
   23SAPC   H5R 3020   4.948   5.318  10.417 -1.1863 -2.3258 -1.7536
   23SAPC   C26 3021   4.925   5.282  10.218  0.2639 -0.1726 -0.4108
   23SAPC   H6R 3022   4.920   5.173  10.232  0.4298 -0.1761 -0.3728
   23SAPC   C27 3023   4.902   5.322  10.073 -0.6069 -0.1861 -0.1658
   23SAPC   H7R 3024   4.976   5.264  10.014  2.7055 -0.4152  3.7756
   23SAPC   H7S 3025   4.951   5.420  10.052 -2.0068  0.4136 -0.7772
   23SAPC   C28 3026   4.758   5.306  10.024  0.0908  0.4318 -0.1398
   23SAPC   H8R 3027   4.685   5.279  10.102  1.5280  1.0816  1.4841
   23SAPC   C29 3028   4.720   5.301   9.892 -0.2821 -0.5927 -0.3656
   23SAPC   H9R 3029   4.613   5.303   9.866 -0.0727  0.0386 -1.1980
   23SAPC  C210 3030   4.804   5.315   9.770 -0.1872 -0.0393  0.2630
   23SAPC  H10R 3031   4.804   5.219   9.714 -2.3448  0.9917 -1.6724
   23SAPC  H10S 3032   4.911   5.330   9.797 -0.5448 -0.5765  2.1046
   23SAPC  C211 3033   4.761   5.408   9.663 -0.5416 -0.6898 -0.2627
   23SAPC  H11R 3034   4.656   5.440   9.660 -0.4052  0.0263 -4.7577
   23SAPC  C212 3035   4.842   5.451   9.565  0.0102 -0.3319 -0.4343
   23SAPC  H12R 3036   4.798   5.523   9.495 -0.6583 -0.4976 -0.1854
   23SAPC  C213 3037   4.986   5.423   9.543 -0.3826 -0.5088 -0.0361
   23SAPC  H13R 3038   5.036   5.412   9.642  1.8848  0.6247 -0.9790
   23SAPC  H13S 3039   5.047   5.502   9.494 -0.3044 -0.1367  0.6446
   23SAPC  C214 3040   5.000   5.304   9.453  0.8478  0.1078  0.3667
   23SAPC  H14R 3041   4.983   5.208   9.503 -1.9987 -1.0044 -2.3892
   23SAPC  C215 3042   5.035   5.290   9.326  0.3028  0.0405  0.0519
   23SAPC  H15R 3043   5.031   5.190   9.281 -1.8181  0.0985 -0.0001
   23SAPC  C216 3044   5.072   5.403   9.234  0.0867  0.4992  0.2518
   23SAPC  H16R 3045   5.162   5.449   9.279  2.3634 -0.7147 -2.6683
   23SAPC  H16S 3046   4.987   5.474   9.221 -0.4416 -0.3919 -1.4909
   23SAPC  C217 3047   5.108   5.357   9.094 -0.2252  0.4074 -0.6922
   23SAPC  H17R 3048   5.198   5.292   9.104 -0.7555 -0.6172 -2.1013
   23SAPC  H17S 3049   5.123   5.445   9.028 -0.3823  0.4691 -0.6451
   23SAPC  C218 3050   5.008   5.272   9.017 -0.4513  0.1152 -0.2421
   23SAPC  H18R 3051   4.917   5.335   9.024  0.1944  1.1426 -0.9207
   23SAPC  H18S 3052   4.994   5.179   9.077  0.5298 -0.3679 -0.7323
   23SAPC  C219 3053   5.051   5.237   8.880 -0.7621 -0.8020  0.2881
   23SAPC  H19R 3054   5.142   5.174   8.891  1.1429  2.0676  2.1697
   23SAPC  H19S 3055   5.080   5.330   8.827 -2.0359 -1.0099 -0.8228
   23SAPC  C220 3056   4.934   5.159   8.822 -0.0622 -0.3976  0.4012
   23SAPC  H20R 3057   4.841   5.220   8.817 -2.5299 -3.8498  0.2627
   23SAPC  H20S 3058   4.903   5.068   8.878 -0.1796  0.1450  1.2359
   23SAPC  H20T 3059   4.962   5.119   8.722  0.9201 -4.1918  2.0234
   23SAPC   C33 3060   4.641   6.251  10.060  0.0835 -0.3034 -0.2304
   23SAPC   H3X 3061   4.742   6.208  10.041 -0.1977 -1.0361 -0.0946
   23SAPC   H3Y 3062   4.644   6.316  10.150  0.8399 -1.5257  0.6551
   23SAPC   C34 3063   4.602   6.342   9.942  0.1428 -0.3115  0.5113
   23SAPC   H4X 3064   4.493   6.360   9.948 -0.3293 -1.0398 -3.1688
   23SAPC   H4Y 3065   4.625   6.282   9.851  0.7482  1.7609 -0.7631
   23SAPC   C35 3066   4.683   6.466   9.918 -0.1823 -0.1857 -0.2053
   23SAPC   H5X 3067   4.790   6.439   9.912 -0.3988 -0.7376 -3.4617
   23SAPC   H5Y 3068   4.671   6.534  10.005 -2.6571 -0.8161  0.0171
   23SAPC   C36 3069   4.643   6.540   9.782 -0.5040  0.1651 -0.3273
   23SAPC   H6X 3070   4.686   6.641   9.771 -0.3307 -0.1206 -2.5963
   23SAPC   H6Y 3071   4.536   6.569   9.786 -0.2982  0.8877  0.2143
   23SAPC   C37 3072   4.684   6.464   9.656  0.6250 -0.3882 -0.8451
   23SAPC   H7X 3073   4.668   6.354   9.659  1.1179 -0.4499  0.2870
   23SAPC   H7Y 3074   4.794   6.475   9.652  0.6276  0.5676  0.8861
   23SAPC   C38 3075   4.619   6.535   9.531 -0.1123 -0.4992  0.6580
   23SAPC   H8X 3076   4.645   6.643   9.539  0.5621 -0.5281 -0.7389
   23SAPC   H8Y 3077   4.508   6.529   9.537 -0.1099 -0.0755  1.1324
   23SAPC   C39 3078   4.657   6.472   9.394 -0.5552 -0.0531 -0.2950
   23SAPC   H9X 3079   4.618   6.369   9.380 -0.0234 -0.2248 -0.5313
   23SAPC   H9Y 3080   4.768   6.463   9.393 -0.3584  0.6599  3.3132
   23SAPC  C310 3081   4.614   6.562   9.276  0.9216  0.1492 -1.4965
   23SAPC  H10X 3082   4.698   6.632   9.263 -0.0065  0.8604 -4.2335
   23SAPC  H10Y 3083   4.518   6.613   9.299  0.7863 -0.9678  0.7714
   23SAPC  C311 3084   4.596   6.494   9.141  0.1911  0.5664  0.4998
   23SAPC  H11X 3085   4.524   6.411   9.154 -0.0904  0.8458  0.7554
   23SAPC  H11Y 3086   4.694   6.452   9.109  0.2299  2.3269 -1.9947
   23SAPC  C312 3087   4.540   6.586   9.047 -0.0556  0.1255  0.0425
   23SAPC  H12X 3088   4.574   6.687   9.076 -2.0265  0.2307  2.2622
   23SAPC  H12Y 3089   4.431   6.598   9.068 -0.2599 -2.4663  0.7901
   23SAPC  C313 3090   4.565   6.539   8.906 -1.5350  0.5841 -0.2956
   23SAPC  H13X 3091   4.542   6.431   8.902 -2.0456  0.5924  1.5213
   23SAPC  H13Y 3092   4.670   6.555   8.875 -0.6487  0.0082  2.1397
   23SAPC  C314 3093   4.466   6.591   8.798 -0.6123  0.3639 -0.3096
   23SAPC  H14X 3094   4.471   6.700   8.778 -0.6091  0.4637  0.2166
   23SAPC  H14Y 3095   4.359   6.573   8.825  0.2265 -2.8217  1.3308
   23SAPC  C315 3096   4.498   6.518   8.666  0.1535 -0.2658 -0.3130
   23SAPC  H15X 3097   4.459   6.416   8.686 -1.0378  0.5237  1.6072
   23SAPC  H15Y 3098   4.609   6.521   8.655  0.2956  0.1914  1.1457
   23SAPC  C316 3099   4.436   6.580   8.538  0.4001 -0.2999  0.3485
   23SAPC  H16X 3100   4.354   6.650   8.564  2.9368  1.6681  3.9420
   23SAPC  H16Y 3101   4.394   6.494   8.483 -1.6844  2.3447 -2.5690
   23SAPC  C317 3102   4.527   6.649   8.430  0.1570 -0.2294  0.5030
   23SAPC  H17X 3103   4.457   6.676   8.349  0.2884  0.0858  0.4959
   23SAPC  H17Y 3104   4.599   6.570   8.399  2.0349  1.6565 -0.1230
   23SAPC  C318 3105   4.600   6.760   8.496 -0.2316  0.4722 -0.2405
   23SAPC  H18X 3106   4.535   6.828   8.555 -3.0694  0.0891 -2.6803
   23SAPC  H18Y 3107   4.654   6.810   8.412 -1.5427  1.1445 -0.7066
   23SAPC  H18Z 3108   4.676   6.715   8.562 -0.1866 -0.9318 -1.2074
   24SAPC     N 3109   6.398   0.004  11.270  0.4027  0.4005  0.0278
   24SAPC   C12 3110   6.372   0.005  11.120  0.2537 -0.1951  0.6292
   24SAPC  H12A 3111   6.269   0.037  11.120 -0.6947 -3.0090 -0.6515
   24SAPC  H12B 3112   6.383  -0.093  11.078 -1.9894  0.1474 -0.9062
   24SAPC   C13 3113   6.322  -0.110  11.335 -0.2747 -0.4181 -0.2442
   24SAPC  H13A 3114   6.368  -0.205  11.311  0.9863 -0.4251  1.9485
   24SAPC  H13B 3115   6.335  -0.098  11.441  1.0951 -1.3528 -0.2792
   24SAPC  H13C 3116   6.217  -0.115  11.310 -0.2323 -0.4007 -0.4256
   24SAPC   C14 3117   6.544  -0.009  11.309  0.3591  0.5921  0.4113
   24SAPC  H14A 3118   6.591   0.083  11.279  0.8590  0.2438  0.1366
   24SAPC  H14B 3119   6.560  -0.028  11.414  1.1271 -0.7233  0.0751
   24SAPC  H14C 3120   6.598  -0.087  11.258 -0.1989 -0.6328  1.6119
   24SAPC   C15 3121   6.355   0.139  11.328  0.8278  0.3721 -0.0356
   24SAPC  H15A 3122   6.401   0.217  11.269  0.3491  1.3223  0.8254
   24SAPC  H15B 3123   6.248   0.154  11.325  0.9964  1.8531  0.3298
   24SAPC  H15C 3124   6.390   0.151  11.429 -0.3655 -0.5599  0.5162
   24SAPC   C11 3125   6.457   0.102  11.031 -0.3106 -0.1557  0.8457
   24SAPC  H11A 3126   6.440   0.205  11.068 -2.4187  0.9903 -2.7977
   24SAPC  H11B 3127   6.420   0.096  10.927 -0.5838  4.5465  0.4506
   24SAPC     P 3128   6.647  -0.058  10.956 -0.2296 -0.1403  0.4765
   24SAPC   O13 3129   6.793  -0.059  10.981 -0.2467  0.6850  0.3175
   24SAPC   O14 3130   6.572  -0.180  10.993  0.4878 -0.1090 -0.1122
   24SAPC   O12 3131   6.593   0.077  11.035 -0.1853 -0.0355  0.4901
   24SAPC   O11 3132   6.631  -0.024  10.808 -0.6644 -0.3022  0.2056
   24SAPC    C1 3133   6.694   0.080  10.742  0.5352 -0.1532  0.5580
   24SAPC    HA 3134   6.799   0.092  10.775  0.3100  0.6317  1.0185
   24SAPC    HB 3135   6.695   0.058  10.633  0.4239 -2.3478  0.9660
   24SAPC    C2 3136   6.630   0.222  10.751  0.9397  0.3067 -0.0423
   24SAPC    HS 3137   6.627   0.238  10.861 -0.6666  0.4897 -0.0925
   24SAPC   O21 3138   6.499   0.221  10.690  0.0933  0.0540 -0.2192
   24SAPC   C21 3139   6.407   0.304  10.740 -0.1816 -0.2646 -0.3518
   24SAPC   O22 3140   6.432   0.370  10.842 -0.0320  0.5089 -0.3054
   24SAPC   C22 3141   6.277   0.283  10.665 -0.7132 -0.4433  0.4805
   24SAPC   H2R 3142   6.243   0.182  10.694 -2.6016 -0.4005 -1.3893
   24SAPC   H2S 3143   6.196   0.354  10.691 -0.1475  0.0820  0.8496
   24SAPC    C3 3144   6.732   0.329  10.686 -0.4890 -0.4130 -0.0419
   24SAPC    HX 3145   6.820   0.338  10.752 -1.5719 -0.1383  1.4150
   24SAPC    HY 3146   6.665   0.417  10.698  1.2505  0.8587  0.6134
   24SAPC   O31 3147   6.765   0.304  10.554  0.2190  0.0081  0.2114
   24SAPC   C31 3148   6.697   0.366  10.452 -0.5882  0.8485 -0.0094
   24SAPC   O32 3149   6.614   0.455  10.466 -0.3975 -0.1922  0.3420
   24SAPC   C32 3150   6.747   0.309  10.325 -0.4110  0.2131  0.3565
   24SAPC   H2X 3151   6.739   0.199  10.327  2.7946 -0.1518 -0.2247
   24SAPC   H2Y 3152   6.855   0.336  10.325 -0.5422  0.8689  2.5671
   24SAPC   C23 3153   6.301   0.274  10.513  0.1248 -0.5319 -0.2301
   24SAPC   H3R 3154   6.393   0.213  10.500  1.3224  0.3637  2.9769
   24SAPC   H3S 3155   6.327   0.376  10.479  2.7791 -0.4470  1.7337
   24SAPC   C24 3156   6.173   0.229  10.430 -0.0287  0.2690  0.0919
   24SAPC   H4R 3157   6.202   0.254  10.326  2.7302  1.0836  0.9680
   24SAPC   H4S 3158   6.089   0.289  10.472  2.1423  1.3292  3.3315
   24SAPC   C25 3159   6.151   0.080  10.423  0.0868 -1.0133  0.1439
   24SAPC   H5R 3160   6.183   0.035  10.518 -0.1663  0.2287  0.8380
   24SAPC   C26 3161   6.095  -0.008  10.337 -0.3564 -0.6212 -0.1339
   24SAPC   H6R 3162   6.111  -0.115  10.359  0.3033 -0.7115 -1.0338
   24SAPC   C27 3163   6.025   0.026  10.211  0.1435 -0.3041  0.4321
   24SAPC   H7R 3164   6.066   0.116  10.159 -0.0355 -0.6924 -0.3945
   24SAPC   H7S 3165   5.918   0.044  10.237 -0.1132  0.0308 -0.8085
   24SAPC   C28 3166   6.026  -0.087  10.118  0.0681 -0.9824  0.4544
   24SAPC   H8R 3167   5.928  -0.138  10.123 -0.4001 -0.1660 -0.1166
   24SAPC   C29 3168   6.127  -0.122  10.030 -0.6044  0.8934 -0.1942
   24SAPC   H9R 3169   6.119  -0.210   9.965  0.9991  0.5242  0.0584
   24SAPC  C210 3170   6.264  -0.051  10.011 -0.0459 -0.1906  0.2300
   24SAPC  H10R 3171   6.346  -0.115  10.051 -0.5680 -1.3074 -0.4150
   24SAPC  H10S 3172   6.268   0.037  10.077  1.0707 -1.8472  2.4890
   24SAPC  C211 3173   6.283  -0.003   9.867 -0.2565 -0.2332  0.5590
   24SAPC  H11R 3174   6.238   0.091   9.833  2.7819  0.9899 -0.4464
   24SAPC  C212 3175   6.351  -0.071   9.776  0.6956  0.4675  0.3193
   24SAPC  H12R 3176   6.374  -0.024   9.680 -0.8419  1.0788  0.2295
   24SAPC  C213 3177   6.402  -0.211   9.797  0.2253  0.0862  0.0365
   24SAPC  H13R 3178   6.377  -0.283   9.716 -0.1619 -1.2508  1.2874
   24SAPC  H13S 3179   6.344  -0.256   9.881 -1.4140  1.2599 -0.4352
   24SAPC  C214 3180   6.549  -0.225   9.843  0.9076 -0.1032  0.0213
   24SAPC  H14R 3181   6.557  -0.231   9.953 -0.1566 -1.7166  0.0337
   24SAPC  C215 3182   6.658  -0.234   9.766  0.3247  0.4822 -0.6924
   24SAPC  H15R 3183   6.755  -0.266   9.806 -0.5832  0.5741  1.7643
   24SAPC  C216 3184   6.648  -0.248   9.620  0.2058  0.0552 -1.1990
   24SAPC  H16R 3185   6.743  -0.209   9.578  0.2779  0.3137 -0.8025
   24SAPC  H16S 3186   6.569  -0.179   9.582  0.3095  0.2458 -1.0717
   24SAPC  C217 3187   6.620  -0.395   9.589 -0.2429  0.5056 -0.7224
   24SAPC  H17R 3188   6.536  -0.440   9.645 -0.1797  0.6955 -0.4708
   24SAPC  H17S 3189   6.713  -0.452   9.610 -0.9437 -0.4832 -0.2412
   24SAPC  C218 3190   6.598  -0.400   9.439 -0.3700  0.0934  0.5075
   24SAPC  H18R 3191   6.512  -0.336   9.408  2.0631  2.4416 -1.9734
   24SAPC  H18S 3192   6.573  -0.505   9.415 -0.0142  0.0590  0.2784
   24SAPC  C219 3193   6.724  -0.379   9.344  0.0105 -0.2978  0.3367
   24SAPC  H19R 3194   6.817  -0.417   9.391 -0.8191 -4.1348 -0.7796
   24SAPC  H19S 3195   6.733  -0.271   9.321 -0.6118 -0.5858 -1.4020
   24SAPC  C220 3196   6.718  -0.456   9.215 -0.1510 -0.3476  0.1284
   24SAPC  H20R 3197   6.653  -0.399   9.146 -1.1205 -2.1367 -0.5094
   24SAPC  H20S 3198   6.672  -0.556   9.233 -1.0147 -0.0139 -0.1763
   24SAPC  H20T 3199   6.811  -0.466   9.155  0.0329  1.5054  0.0672
   24SAPC   C33 3200   6.680   0.379  10.209 -0.0496 -0.1627 -0.2652
   24SAPC   H3X 3201   6.709   0.486  10.222 -1.3835  0.1966 -0.1117
   24SAPC   H3Y 3202   6.572   0.374  10.233  0.0667  1.9468  0.9851
   24SAPC   C34 3203   6.724   0.339  10.069  0.4537 -0.0486  0.3138
   24SAPC   H4X 3204   6.827   0.379  10.057  0.9631 -0.9651  1.4375
   24SAPC   H4Y 3205   6.659   0.383   9.991  1.6122 -0.0447 -0.6776
   24SAPC   C35 3206   6.716   0.190  10.034 -0.6213  0.0871  0.8012
   24SAPC   H5X 3207   6.617   0.153  10.001 -0.3076 -1.1984  1.2608
   24SAPC   H5Y 3208   6.731   0.121  10.120 -2.5699 -1.5940 -0.1310
   24SAPC   C36 3209   6.816   0.155   9.914 -0.0215  0.7984 -1.1883
   24SAPC   H6X 3210   6.813   0.044   9.919 -1.4431  0.8372  3.2410
   24SAPC   H6Y 3211   6.917   0.199   9.929  0.3369 -0.6599  1.2212
   24SAPC   C37 3212   6.769   0.209   9.782  0.5780 -0.2903 -0.1496
   24SAPC   H7X 3213   6.800   0.315   9.794  0.8074 -0.6801  4.2802
   24SAPC   H7Y 3214   6.658   0.206   9.774  0.5231  1.1918 -0.0958
   24SAPC   C38 3215   6.831   0.144   9.665 -1.0445 -0.1199 -0.0472
   24SAPC   H8X 3216   6.807   0.036   9.659 -0.6607 -0.1698 -0.9753
   24SAPC   H8Y 3217   6.942   0.150   9.671 -1.1038  2.3213 -0.5255
   24SAPC   C39 3218   6.776   0.195   9.534 -0.1003  0.0253  0.8363
   24SAPC   H9X 3219   6.772   0.306   9.522 -1.9406 -0.2596 -1.8526
   24SAPC   H9Y 3220   6.675   0.149   9.530 -1.1068  2.0192  1.5586
   24SAPC  C310 3221   6.848   0.151   9.401 -0.5539 -0.2757 -0.1819
   24SAPC  H10X 3222   6.830   0.042   9.399  0.7099 -0.4961 -0.8847
   24SAPC  H10Y 3223   6.957   0.174   9.399 -0.9625  1.9285  0.2274
   24SAPC  C311 3224   6.783   0.216   9.275  0.1673 -0.1078 -0.4033
   24SAPC  H11X 3225   6.803   0.323   9.296  0.7168 -0.0353 -1.2489
   24SAPC  H11Y 3226   6.674   0.202   9.292 -0.3237 -0.9479 -3.5924
   24SAPC  C312 3227   6.825   0.167   9.139  0.1199  0.1244 -0.0504
   24SAPC  H12X 3228   6.933   0.183   9.120 -0.1765  2.1370 -0.2056
   24SAPC  H12Y 3229   6.764   0.235   9.076  1.1976  2.4449  1.2719
   24SAPC  C313 3230   6.805   0.026   9.088  0.4268  0.3176  0.3010
   24SAPC  H13X 3231   6.697  -0.000   9.096  0.1665  0.9918 -0.7456
   24SAPC  H13Y 3232   6.864  -0.039   9.155 -0.1451 -1.8482 -1.1635
   24SAPC  C314 3233   6.856  -0.017   8.949 -0.2813 -0.6291 -1.1399
   24SAPC  H14X 3234   6.901  -0.119   8.947  0.7808 -0.2737  0.9571
   24SAPC  H14Y 3235   6.947   0.042   8.924 -0.2258  0.6625  1.7152
   24SAPC  C315 3236   6.754  -0.006   8.839  0.3042 -0.0472 -0.3372
   24SAPC  H15X 3237   6.653  -0.031   8.880 -0.2786  0.7461 -1.2419
   24SAPC  H15Y 3238   6.777  -0.089   8.770  2.4845 -1.2565  1.7187
   24SAPC  C316 3239   6.736   0.133   8.780 -0.3623 -0.4909 -0.0433
   24SAPC  H16X 3240   6.789   0.206   8.845  0.1314 -0.4014 -0.5329
   24SAPC  H16Y 3241   6.631   0.165   8.770  0.1613  1.2240 -0.3927
   24SAPC  C317 3242   6.778   0.136   8.632  0.1472 -0.5397  0.1186
   24SAPC  H17X 3243   6.719   0.061   8.575 -0.2517  0.7265 -1.1864
   24SAPC  H17Y 3244   6.883   0.101   8.620  0.3522  0.7083 -2.2718
   24SAPC  C318 3245   6.765   0.269   8.569 -0.8289 -0.6351 -0.4879
   24SAPC  H18X 3246   6.797   0.267   8.463  3.3864  0.1457  0.6138
   24SAPC  H18Y 3247   6.838   0.339   8.614 -1.8370  0.3655 -0.3459
   24SAPC  H18Z 3248   6.662   0.309   8.584 -1.1352 -1.0404 -1.4484
   25SAPC     N 3249   1.279   4.061   5.850  0.5904  0.1469 -0.7809
   25SAPC   C12 3250   1.276   4.091   6.001  0.2063  0.3348 -0.2053
   25SAPC  H12A 3251   1.373   4.134   6.022 -0.0026  0.4256  0.5855
   25SAPC  H12B 3252   1.267   3.997   6.054 -2.0918  0.5689 -0.0993
   25SAPC   C13 3253   1.343   4.179   5.774  0.1601  0.5191  0.9092
   25SAPC  H13A 3254   1.301   4.267   5.821 -1.2612  0.8786 -0.9014
   25SAPC  H13B 3255   1.449   4.169   5.788  0.4911 -1.3529 -2.1856
   25SAPC  H13C 3256   1.310   4.182   5.671 -0.4076 -0.2014  1.0600
   25SAPC   C14 3257   1.367   3.947   5.816  0.6708 -0.4977  0.2181
   25SAPC  H14A 3258   1.355   3.926   5.711 -1.3572 -2.0282  0.6797
   25SAPC  H14B 3259   1.468   3.964   5.850  0.4979 -3.3551  2.6686
   25SAPC  H14C 3260   1.330   3.854   5.858 -1.3136  0.2256  0.1860
   25SAPC   C15 3261   1.144   4.041   5.799 -0.5209  0.1302 -0.0592
   25SAPC  H15A 3262   1.099   3.958   5.851  2.9006 -3.2786 -2.0810
   25SAPC  H15B 3263   1.088   4.126   5.837 -2.5243 -1.5554  1.0155
   25SAPC  H15C 3264   1.133   4.027   5.693  0.0609  0.7574 -0.2094
   25SAPC   C11 3265   1.162   4.185   6.070  0.7059  0.3786  0.4024
   25SAPC  H11A 3266   1.175   4.206   6.179  0.1125  1.5030  0.2700
   25SAPC  H11B 3267   1.073   4.119   6.063 -0.2729  1.4638  2.0204
   25SAPC     P 3268   1.215   4.440   6.045 -0.3629 -0.0508  0.1643
   25SAPC   O13 3269   1.360   4.410   6.059 -0.2918 -0.0938 -0.3664
   25SAPC   O14 3270   1.175   4.556   5.954 -0.1196 -0.8315  0.2771
   25SAPC   O12 3271   1.147   4.309   5.996  0.2197 -0.5421  0.8465
   25SAPC   O11 3272   1.150   4.463   6.187 -0.0483  0.1116 -0.4343
   25SAPC    C1 3273   1.011   4.501   6.213  0.3043 -0.1970  0.8752
   25SAPC    HA 3274   0.993   4.609   6.197 -0.8353 -0.5318 -0.2724
   25SAPC    HB 3275   0.938   4.452   6.145 -0.1912  0.4128  0.9608
   25SAPC    C2 3276   0.954   4.475   6.357 -0.1058  0.2063  0.1286
   25SAPC    HS 3277   0.853   4.521   6.360  1.0069  2.8555 -0.9149
   25SAPC   O21 3278   1.039   4.528   6.466 -0.1843  0.1269 -0.2372
   25SAPC   C21 3279   1.045   4.661   6.481 -0.1473  0.1585  0.5648
   25SAPC   O22 3280   0.990   4.741   6.409  0.2199  0.2134  0.3578
   25SAPC   C22 3281   1.133   4.682   6.606  0.4359 -0.4968 -0.3821
   25SAPC   H2R 3282   1.090   4.616   6.684 -0.8840 -1.2301 -1.6941
   25SAPC   H2S 3283   1.229   4.629   6.589  0.0029 -1.3023 -0.3651
   25SAPC    C3 3284   0.937   4.319   6.369  0.2408  0.3465  0.2747
   25SAPC    HX 3285   1.031   4.276   6.329 -0.0666  0.7997 -0.9770
   25SAPC    HY 3286   0.863   4.291   6.291  0.0520 -1.2230  0.9882
   25SAPC   O31 3287   0.899   4.287   6.503  0.4059 -0.0347 -1.0301
   25SAPC   C31 3288   0.776   4.319   6.547  0.7680 -0.3761 -0.2997
   25SAPC   O32 3289   0.686   4.368   6.480 -0.2091  0.0281 -0.4426
   25SAPC   C32 3290   0.761   4.284   6.695 -0.5197 -0.2275  0.4761
   25SAPC   H2X 3291   0.851   4.233   6.735 -0.5212  0.3805  1.2849
   25SAPC   H2Y 3292   0.678   4.209   6.698  1.0873 -2.0550  0.9733
   25SAPC   C23 3293   1.143   4.829   6.644 -0.3158 -0.3927  0.0002
   25SAPC   H3R 3294   1.068   4.868   6.716 -0.0666 -0.1464  0.1321
   25SAPC   H3S 3295   1.144   4.894   6.554 -1.5431  1.9075  1.5532
   25SAPC   C24 3296   1.275   4.850   6.722  0.1517 -0.5929  0.1491
   25SAPC   H4R 3297   1.358   4.809   6.660 -0.1525  0.2707 -0.8627
   25SAPC   H4S 3298   1.277   4.787   6.813  0.7727  1.0172  1.2947
   25SAPC   C25 3299   1.307   4.992   6.747  0.1631  0.1579  0.4196
   25SAPC   H5R 3300   1.289   5.050   6.655 -2.7565 -0.0586  0.7627
   25SAPC   C26 3301   1.350   5.058   6.853 -0.4306  0.6040  0.8083
   25SAPC   H6R 3302   1.349   5.168   6.853 -0.5632  0.6032  0.7576
   25SAPC   C27 3303   1.393   4.994   6.984  0.4118  0.7234 -0.0786
   25SAPC   H7R 3304   1.504   4.998   6.981  0.4861 -0.7105  0.1485
   25SAPC   H7S 3305   1.369   4.885   6.988  0.3260  0.7131 -0.7403
   25SAPC   C28 3306   1.347   5.079   7.102  0.4693  0.5705 -0.2880
   25SAPC   H8R 3307   1.255   5.138   7.095  0.4309  0.7363  1.1705
   25SAPC   C29 3308   1.409   5.090   7.220 -0.9023  0.1435  0.5515
   25SAPC   H9R 3309   1.382   5.176   7.282 -0.6141  0.2891  0.4782
   25SAPC  C210 3310   1.544   5.032   7.260 -0.0786  0.5843 -0.4665
   25SAPC  H10R 3311   1.594   4.967   7.185 -0.8359 -2.4530  1.5062
   25SAPC  H10S 3312   1.525   4.971   7.351 -0.6221  0.6823 -0.5100
   25SAPC  C211 3313   1.636   5.147   7.301 -0.6844  0.1547  0.0289
   25SAPC  H11R 3314   1.689   5.192   7.216 -0.1153 -0.6748 -0.0651
   25SAPC  C212 3315   1.656   5.197   7.422 -0.1593  0.1790 -1.2868
   25SAPC  H12R 3316   1.708   5.294   7.426  1.6869 -0.7928 -0.8578
   25SAPC  C213 3317   1.584   5.161   7.552  0.3047  0.6591  1.1878
   25SAPC  H13R 3318   1.478   5.147   7.522  0.3461  1.1853  0.7915
   25SAPC  H13S 3319   1.594   5.247   7.622 -1.4652  1.9737 -0.1081
   25SAPC  C214 3320   1.624   5.028   7.611 -0.2662  0.1467  0.2425
   25SAPC  H14R 3321   1.688   4.976   7.539  2.1670  5.1881 -1.7655
   25SAPC  C215 3322   1.574   4.964   7.713  0.2113 -0.1168 -0.5998
   25SAPC  H15R 3323   1.621   4.870   7.742  1.5971  0.6084 -0.3900
   25SAPC  C216 3324   1.479   5.027   7.809 -0.0284 -0.3268  0.3725
   25SAPC  H16R 3325   1.383   4.972   7.804  0.7493 -1.6636 -0.6116
   25SAPC  H16S 3326   1.472   5.137   7.793  0.9672 -0.0234  1.8198
   25SAPC  C217 3327   1.534   5.010   7.953  0.2339  0.5800 -0.4919
   25SAPC  H17R 3328   1.625   5.072   7.964  1.2694 -1.0521  0.5395
   25SAPC  H17S 3329   1.573   4.908   7.971  2.0415  1.3501  0.1557
   25SAPC  C218 3330   1.429   5.044   8.055  0.1097  0.8831 -0.5216
   25SAPC  H18R 3331   1.331   4.995   8.036  0.4977  0.3418 -1.1415
   25SAPC  H18S 3332   1.398   5.150   8.052  0.1233  0.8942 -0.3140
   25SAPC  C219 3333   1.478   4.994   8.190 -0.3847  0.1312  0.4340
   25SAPC  H19R 3334   1.576   5.042   8.209  0.2181 -0.1273 -1.7237
   25SAPC  H19S 3335   1.495   4.884   8.187 -1.8279 -0.1171  0.3815
   25SAPC  C220 3336   1.383   5.026   8.305 -0.4148 -0.2733 -0.2593
   25SAPC  H20R 3337   1.433   5.006   8.402  0.7193  1.1752 -0.5160
   25SAPC  H20S 3338   1.292   4.963   8.298  0.0496 -1.1100  0.9348
   25SAPC  H20T 3339   1.365   5.136   8.303  0.4172 -0.0640  1.7273
   25SAPC   C33 3340   0.726   4.408   6.781 -0.7058  0.9027  0.3809
   25SAPC   H3X 3341   0.632   4.452   6.740  0.1078  0.8613 -1.6438
   25SAPC   H3Y 3342   0.809   4.481   6.777 -1.4480  1.7133 -1.5456
   25SAPC   C34 3343   0.720   4.371   6.929  0.0041  0.5725 -0.4725
   25SAPC   H4X 3344   0.824   4.350   6.964  0.5496  2.3242 -0.9481
   25SAPC   H4Y 3345   0.668   4.273   6.933  1.6979 -0.4926 -2.3867
   25SAPC   C35 3346   0.656   4.484   7.015 -0.2863 -0.4392  0.4087
   25SAPC   H5X 3347   0.548   4.499   6.995  0.4318  0.9943 -3.0010
   25SAPC   H5Y 3348   0.723   4.571   6.999  1.2713 -1.3801  1.5484
   25SAPC   C36 3349   0.682   4.459   7.161  0.3566 -0.0908 -0.0494
   25SAPC   H6X 3350   0.791   4.455   7.184  0.2841  0.2135  0.3499
   25SAPC   H6Y 3351   0.637   4.359   7.180  0.5452 -0.6939 -2.3513
   25SAPC   C37 3352   0.617   4.565   7.255  0.5982  0.1914 -0.7223
   25SAPC   H7X 3353   0.507   4.572   7.249  0.5902  1.0667  0.1584
   25SAPC   H7Y 3354   0.655   4.665   7.223  1.4200  0.4530  0.9651
   25SAPC   C38 3355   0.675   4.555   7.401  0.0166 -0.1684 -0.7279
   25SAPC   H8X 3356   0.779   4.594   7.403 -0.8768  2.4476 -0.6714
   25SAPC   H8Y 3357   0.664   4.450   7.436  1.0810 -0.1541 -0.3208
   25SAPC   C39 3358   0.594   4.636   7.498  0.1922 -0.3881  0.2467
   25SAPC   H9X 3359   0.490   4.597   7.496  0.9545 -2.6016  0.3547
   25SAPC   H9Y 3360   0.593   4.744   7.473 -2.2040 -1.1532 -4.1009
   25SAPC  C310 3361   0.645   4.624   7.645  0.5026  0.6728 -0.3867
   25SAPC  H10X 3362   0.756   4.617   7.645  0.4756 -0.1997  1.3594
   25SAPC  H10Y 3363   0.610   4.524   7.679  2.5438  0.7002  2.0706
   25SAPC  C311 3364   0.593   4.726   7.740 -0.2486 -0.1084 -0.1697
   25SAPC  H11X 3365   0.492   4.750   7.699 -0.5580 -1.5303 -0.2971
   25SAPC  H11Y 3366   0.665   4.809   7.725 -1.5334  1.0293 -0.2594
   25SAPC  C312 3367   0.578   4.676   7.883 -0.2568 -0.2855 -0.0017
   25SAPC  H12X 3368   0.677   4.644   7.922 -1.0587 -2.9746 -0.0380
   25SAPC  H12Y 3369   0.514   4.587   7.897 -1.4904  0.4129 -0.9675
   25SAPC  C313 3370   0.520   4.783   7.979 -0.3732  0.8517 -0.0136
   25SAPC  H13X 3371   0.414   4.806   7.959 -0.1006  1.0271 -1.3434
   25SAPC  H13Y 3372   0.574   4.877   7.953 -1.3997  1.3190 -0.5096
   25SAPC  C314 3373   0.536   4.747   8.130  0.3734  0.2432  0.3899
   25SAPC  H14X 3374   0.480   4.830   8.177 -0.1780 -0.5046  1.0828
   25SAPC  H14Y 3375   0.642   4.764   8.161  0.7239  0.7810 -1.0034
   25SAPC  C315 3376   0.495   4.606   8.175  0.3138  0.6119  0.3705
   25SAPC  H15X 3377   0.576   4.534   8.150 -0.7082 -0.7718  0.9129
   25SAPC  H15Y 3378   0.406   4.569   8.119 -0.3764  1.2280  1.0334
   25SAPC  C316 3379   0.467   4.596   8.326 -0.1550 -0.6445 -0.5588
   25SAPC  H16X 3380   0.435   4.693   8.370 -3.0039 -0.4389 -2.7890
   25SAPC  H16Y 3381   0.562   4.580   8.381 -0.8624 -2.1751  0.2820
   25SAPC  C317 3382   0.375   4.482   8.367 -0.4503  0.0551  0.0036
   25SAPC  H17X 3383   0.390   4.468   8.477  2.8628  1.0568 -0.2125
   25SAPC  H17Y 3384   0.392   4.380   8.326 -0.6502 -0.6151  1.5179
   25SAPC  C318 3385   0.233   4.517   8.322  0.2232  0.4472 -0.0553
   25SAPC  H18X 3386   0.217   4.496   8.214 -0.9995 -2.4732  0.6074
   25SAPC  H18Y 3387   0.213   4.625   8.342 -1.6301  0.2227 -0.4827
   25SAPC  H18Z 3388   0.164   4.452   8.380  1.2572 -1.5522 -0.9789
   26SAPC     N 3389   1.857   4.921   6.009  0.2181 -0.2762 -0.7949
   26SAPC   C12 3390   1.914   4.781   6.041 -0.1128 -0.2072 -0.7657
   26SAPC  H12A 3391   2.008   4.779   5.987  0.6511  2.5741  0.2796
   26SAPC  H12B 3392   1.853   4.701   6.003 -0.3748 -0.4913  0.2313
   26SAPC   C13 3393   1.855   4.936   5.862  0.1836 -0.6938 -0.4354
   26SAPC  H13A 3394   1.801   4.854   5.817 -0.4861 -0.1622 -0.6208
   26SAPC  H13B 3395   1.807   5.028   5.832 -0.3619 -1.6295 -2.6629
   26SAPC  H13C 3396   1.951   4.938   5.812  0.4102 -2.8050 -0.1913
   26SAPC   C14 3397   1.719   4.928   6.056  0.9245  0.7791  0.2193
   26SAPC  H14A 3398   1.712   4.899   6.160 -0.4275  3.0305  0.8472
   26SAPC  H14B 3399   1.666   5.022   6.049 -0.5653 -0.0662 -0.1422
   26SAPC  H14C 3400   1.661   4.850   6.010  0.8137 -0.3471  2.1388
   26SAPC   C15 3401   1.928   5.030   6.072 -0.1183 -0.2695  0.3493
   26SAPC  H15A 3402   1.892   5.127   6.041  2.7374  0.7817  0.0135
   26SAPC  H15B 3403   1.931   5.013   6.179  0.3734  0.0875  0.3962
   26SAPC  H15C 3404   2.032   5.029   6.045 -0.3244  0.4699 -0.4812
   26SAPC   C11 3405   1.952   4.747   6.187 -0.0667 -0.6593  0.0111
   26SAPC  H11A 3406   1.974   4.638   6.192 -1.2422 -0.9103 -0.1185
   26SAPC  H11B 3407   1.863   4.764   6.252 -0.0942  0.0592 -0.2055
   26SAPC     P 3408   2.192   4.757   6.268  0.0716 -0.2322 -0.2053
   26SAPC   O13 3409   2.256   4.671   6.169 -0.5803  0.2250  0.0022
   26SAPC   O14 3410   2.276   4.867   6.323  0.2055  0.3700  0.0600
   26SAPC   O12 3411   2.064   4.825   6.228  0.4117 -0.7452 -0.4373
   26SAPC   O11 3412   2.155   4.667   6.393  0.1556  0.0604  0.2567
   26SAPC    C1 3413   2.077   4.720   6.504 -0.8524 -0.6327 -0.0787
   26SAPC    HA 3414   2.141   4.777   6.575 -3.4763  0.0068  1.9185
   26SAPC    HB 3415   1.997   4.786   6.465  0.4088  0.8015 -0.3312
   26SAPC    C2 3416   1.997   4.602   6.568  0.2369 -0.3699 -0.2501
   26SAPC    HS 3417   1.900   4.641   6.605  0.7355 -0.3327  1.0716
   26SAPC   O21 3418   2.065   4.540   6.681 -0.3318  0.4115 -0.6042
   26SAPC   C21 3419   2.086   4.625   6.785 -0.1654  0.8034 -1.1571
   26SAPC   O22 3420   2.054   4.744   6.792  0.6601  0.1713 -0.5616
   26SAPC   C22 3421   2.158   4.546   6.890 -0.6800 -0.4342 -0.2153
   26SAPC   H2R 3422   2.167   4.604   6.985 -1.2084  1.0478 -1.0322
   26SAPC   H2S 3423   2.092   4.460   6.914 -0.7958  0.2223  2.0359
   26SAPC    C3 3424   1.960   4.495   6.466  0.3428  0.1775  0.2972
   26SAPC    HX 3425   2.051   4.441   6.431  0.7228  0.2150  1.1930
   26SAPC    HY 3426   1.907   4.534   6.377  2.5549  0.3698 -1.0154
   26SAPC   O31 3427   1.875   4.403   6.534  0.0484  0.2607 -0.3670
   26SAPC   C31 3428   1.928   4.301   6.591  0.2322  0.4481  0.4688
   26SAPC   O32 3429   2.037   4.254   6.558 -0.4175 -0.0354 -0.1283
   26SAPC   C32 3430   1.830   4.235   6.691  0.2972 -0.0032  0.4085
   26SAPC   H2X 3431   1.847   4.126   6.684  0.6394 -0.0006  1.1173
   26SAPC   H2Y 3432   1.728   4.263   6.657  0.5102 -0.5048 -0.6776
   26SAPC   C23 3433   2.290   4.479   6.845 -0.8920  0.0398  0.8803
   26SAPC   H3R 3434   2.358   4.553   6.799 -1.2968 -0.2074 -0.1367
   26SAPC   H3S 3435   2.276   4.402   6.767  1.1453 -0.5677  1.0578
   26SAPC   C24 3436   2.360   4.404   6.964 -0.5101 -0.1945  0.1734
   26SAPC   H4R 3437   2.385   4.488   7.032 -1.6173  0.5806 -0.3402
   26SAPC   H4S 3438   2.451   4.367   6.912  1.0314  1.5546  1.5201
   26SAPC   C25 3439   2.273   4.308   7.039  0.4786 -0.1361 -0.5823
   26SAPC   H5R 3440   2.218   4.237   6.976 -1.0489 -0.2425  0.8228
   26SAPC   C26 3441   2.259   4.289   7.168 -0.3654 -0.7523  0.3265
   26SAPC   H6R 3442   2.192   4.213   7.212 -0.0654 -1.1833  0.0477
   26SAPC   C27 3443   2.325   4.374   7.274  0.2095  1.0551  0.0904
   26SAPC   H7R 3444   2.252   4.432   7.335  0.6790  0.2218  1.5020
   26SAPC   H7S 3445   2.396   4.452   7.240  0.7748 -0.3584 -2.1211
   26SAPC   C28 3446   2.398   4.274   7.365 -0.1728 -0.3566  0.3836
   26SAPC   H8R 3447   2.496   4.243   7.326  1.5486  2.3672  2.1874
   26SAPC   C29 3448   2.348   4.245   7.486  0.0282  0.5594 -0.8766
   26SAPC   H9R 3449   2.409   4.172   7.542 -1.3437  1.0500  1.3642
   26SAPC  C210 3450   2.219   4.289   7.552 -0.1906 -0.6286 -0.5350
   26SAPC  H10R 3451   2.147   4.305   7.470  0.4235  1.7865 -0.6918
   26SAPC  H10S 3452   2.249   4.384   7.600  1.2189 -1.4916  0.3629
   26SAPC  C211 3453   2.172   4.184   7.650 -0.2114 -0.5601  0.0681
   26SAPC  H11R 3454   2.129   4.095   7.601  0.7295 -0.4691 -0.9861
   26SAPC  C212 3455   2.170   4.203   7.783  0.5203 -0.0951 -0.4184
   26SAPC  H12R 3456   2.137   4.120   7.847 -0.1098 -2.0722 -3.1219
   26SAPC  C213 3457   2.217   4.325   7.857  0.3243 -0.5929  0.3457
   26SAPC  H13R 3458   2.125   4.357   7.910 -0.7198 -0.7316 -1.3019
   26SAPC  H13S 3459   2.242   4.411   7.792 -0.4175 -1.1349 -0.6899
   26SAPC  C214 3460   2.327   4.293   7.954  0.2002  0.0026 -0.7503
   26SAPC  H14R 3461   2.414   4.242   7.910  0.7069 -1.3079  1.6019
   26SAPC  C215 3462   2.336   4.327   8.086 -0.9430 -0.1367  0.5409
   26SAPC  H15R 3463   2.429   4.294   8.135 -1.4504 -3.3448 -0.4208
   26SAPC  C216 3464   2.230   4.403   8.157  0.4872 -0.8764 -0.3381
   26SAPC  H16R 3465   2.128   4.374   8.125  0.5926 -0.2128 -1.2964
   26SAPC  H16S 3466   2.247   4.509   8.130  1.0877 -0.6165  0.9864
   26SAPC  C217 3467   2.234   4.396   8.306 -0.6898  0.0831 -0.1685
   26SAPC  H17R 3468   2.332   4.428   8.349 -0.7237 -1.4429  1.1216
   26SAPC  H17S 3469   2.230   4.288   8.332  1.1051  0.0237 -0.0017
   26SAPC  C218 3470   2.116   4.471   8.368  0.6019 -0.3982  0.4692
   26SAPC  H18R 3471   2.026   4.406   8.364 -0.6855  1.3629 -1.9499
   26SAPC  H18S 3472   2.091   4.553   8.297 -1.9039 -1.8839 -0.4873
   26SAPC  C219 3473   2.146   4.538   8.502 -0.1357  0.1179  0.4608
   26SAPC  H19R 3474   2.241   4.595   8.493 -0.3274  0.7197  1.9607
   26SAPC  H19S 3475   2.165   4.450   8.568 -1.6785 -1.5996 -1.2674
   26SAPC  C220 3476   2.047   4.639   8.553  0.1183 -0.4400  0.5421
   26SAPC  H20R 3477   2.062   4.732   8.493 -0.0214  0.2690  1.5761
   26SAPC  H20S 3478   2.070   4.681   8.653 -0.5111  0.2989  0.3857
   26SAPC  H20T 3479   1.944   4.598   8.547  0.5470 -1.4511 -0.1873
   26SAPC   C33 3480   1.861   4.298   6.827 -0.2227 -0.4541  0.0777
   26SAPC   H3X 3481   1.835   4.406   6.820 -2.8119 -0.9232  1.4360
   26SAPC   H3Y 3482   1.971   4.289   6.839  0.1290  1.8348 -0.8696
   26SAPC   C34 3483   1.804   4.235   6.956 -0.1204 -0.6144 -0.2982
   26SAPC   H4X 3484   1.841   4.133   6.978 -1.8607 -1.2820 -0.2945
   26SAPC   H4Y 3485   1.693   4.226   6.952 -0.4193  2.0003  0.0998
   26SAPC   C35 3486   1.846   4.317   7.082 -0.1039  0.0322  0.3022
   26SAPC   H5X 3487   1.801   4.413   7.049  0.3655  0.2362  0.2554
   26SAPC   H5Y 3488   1.956   4.330   7.084  0.2905 -2.2141 -1.8984
   26SAPC   C36 3489   1.786   4.243   7.202  0.6196 -0.3339 -0.0635
   26SAPC   H6X 3490   1.827   4.140   7.193  1.2885  0.0298 -1.6311
   26SAPC   H6Y 3491   1.676   4.234   7.199  0.5626 -0.4612  1.5137
   26SAPC   C37 3492   1.832   4.288   7.345 -0.1438 -0.8889 -0.0118
   26SAPC   H7X 3493   1.807   4.396   7.354  1.8032 -0.5048  1.4898
   26SAPC   H7Y 3494   1.941   4.269   7.354 -0.0848 -0.6963 -0.3159
   26SAPC   C38 3495   1.772   4.223   7.468  0.8397  0.2920  0.8489
   26SAPC   H8X 3496   1.790   4.113   7.471  0.6960  0.0817 -2.4510
   26SAPC   H8Y 3497   1.661   4.221   7.461  0.9058 -1.9291 -0.9687
   26SAPC   C39 3498   1.814   4.285   7.604 -0.2616 -0.3450  0.2578
   26SAPC   H9X 3499   1.787   4.391   7.621 -0.0880 -0.4769  1.4480
   26SAPC   H9Y 3500   1.925   4.286   7.602 -0.2565 -0.2728  0.5217
   26SAPC  C310 3501   1.767   4.208   7.727 -0.0070 -0.4476  0.1886
   26SAPC  H10X 3502   1.818   4.109   7.738 -1.5488 -1.2715  0.2045
   26SAPC  H10Y 3503   1.660   4.185   7.708 -0.1971  1.2505 -0.9707
   26SAPC  C311 3504   1.772   4.269   7.858  0.3377 -0.2245 -0.2179
   26SAPC  H11X 3505   1.716   4.365   7.849 -0.2533 -0.6471 -1.2164
   26SAPC  H11Y 3506   1.873   4.294   7.896  0.9685  0.7823 -2.3750
   26SAPC  C312 3507   1.702   4.204   7.982 -0.5045  0.4397 -0.7491
   26SAPC  H12X 3508   1.732   4.101   7.953 -2.0583 -0.5765  0.9810
   26SAPC  H12Y 3509   1.592   4.211   7.976 -0.9614 -2.5506  1.5830
   26SAPC  C313 3510   1.754   4.224   8.128 -0.3905 -0.1592 -0.4120
   26SAPC  H13X 3511   1.742   4.333   8.147  1.8236 -0.0250  0.4563
   26SAPC  H13Y 3512   1.859   4.194   8.149  0.0324  0.5311 -1.4644
   26SAPC  C314 3513   1.669   4.147   8.234 -0.2206 -0.0492 -0.3327
   26SAPC  H14X 3514   1.695   4.039   8.230 -0.5006 -0.1021 -0.9887
   26SAPC  H14Y 3515   1.561   4.153   8.208  0.3391  1.8132 -2.5336
   26SAPC  C315 3516   1.682   4.206   8.381 -0.3365  0.2420 -0.0095
   26SAPC  H15X 3517   1.607   4.168   8.454  0.4730  1.1479  1.3199
   26SAPC  H15Y 3518   1.651   4.312   8.373  1.8598  0.9446  0.3467
   26SAPC  C316 3519   1.826   4.191   8.448  0.6980 -0.5147 -0.3125
   26SAPC  H16X 3520   1.893   4.229   8.367 -1.3971  3.1975 -0.5455
   26SAPC  H16Y 3521   1.847   4.086   8.478 -0.5618 -1.3026 -1.9919
   26SAPC  C317 3522   1.845   4.283   8.568  0.4151 -0.0094 -0.0393
   26SAPC  H17X 3523   1.762   4.271   8.641  1.1377 -0.6648  0.7007
   26SAPC  H17Y 3524   1.853   4.388   8.534  0.1316 -0.0048 -0.0948
   26SAPC  C318 3525   1.976   4.249   8.648  0.4156 -0.2463  0.3952
   26SAPC  H18X 3526   1.949   4.157   8.704  1.3997 -0.2950  0.8231
   26SAPC  H18Y 3527   2.001   4.328   8.722  1.3104 -0.4641  0.3383
   26SAPC  H18Z 3528   2.057   4.218   8.578  0.4496  1.3959 -0.3496
   27SAPC     N 3529   6.080   0.575   6.485  1.0327  0.0393  0.4377
   27SAPC   C12 3530   6.160   0.624   6.609 -0.2470  0.5815  0.2652
   27SAPC  H12A 3531   6.260   0.640   6.571 -0.3557 -1.1352 -0.9009
   27SAPC  H12B 3532   6.176   0.538   6.672  3.7699 -1.2754 -2.8169
   27SAPC   C13 3533   6.114   0.431   6.469 -0.5967  0.4925 -0.0709
   27SAPC  H13A 3534   6.080   0.363   6.545 -0.4042 -0.2595 -0.6399
   27SAPC  H13B 3535   6.061   0.385   6.387  0.2144  0.0415 -0.3576
   27SAPC  H13C 3536   6.221   0.433   6.454 -0.5223  2.3043  0.3957
   27SAPC   C14 3537   5.935   0.597   6.516  0.3565  0.6801  0.1506
   27SAPC  H14A 3538   5.904   0.546   6.606 -0.8572 -0.0691 -0.6634
   27SAPC  H14B 3539   5.912   0.699   6.541  0.2735  0.9053 -0.8354
   27SAPC  H14C 3540   5.882   0.556   6.431  1.0034 -0.2627  0.1814
   27SAPC   C15 3541   6.118   0.655   6.367 -0.0327  0.5898  0.3495
   27SAPC  H15A 3542   6.226   0.658   6.359 -0.1195 -0.1756 -1.4340
   27SAPC  H15B 3543   6.080   0.611   6.276 -2.8950 -0.8353  2.1064
   27SAPC  H15C 3544   6.093   0.758   6.383 -0.8648  0.5290 -0.5299
   27SAPC   C11 3545   6.123   0.760   6.672  1.1025  0.2481 -0.0503
   27SAPC  H11A 3546   6.198   0.772   6.752  0.7203  0.7672  0.2385
   27SAPC  H11B 3547   6.021   0.750   6.715  1.5952  0.0730  1.1135
   27SAPC     P 3548   6.068   1.011   6.599 -0.0692 -0.2215 -0.2496
   27SAPC   O13 3549   6.141   1.091   6.704  0.5113 -0.4408 -0.1360
   27SAPC   O14 3550   6.065   1.080   6.467  1.0431  0.1079  0.0943
   27SAPC   O12 3551   6.138   0.872   6.579 -0.2123  0.4417 -0.2997
   27SAPC   O11 3552   5.927   0.970   6.648  0.1524 -0.0002  0.3690
   27SAPC    C1 3553   5.888   0.985   6.785  0.3758  0.1532 -0.4459
   27SAPC    HA 3554   5.819   0.903   6.816 -0.6733  1.1777  0.0490
   27SAPC    HB 3555   5.964   0.983   6.866  0.8895  0.5092 -0.9167
   27SAPC    C2 3556   5.795   1.117   6.798 -0.5495  0.6147  0.2473
   27SAPC    HS 3557   5.737   1.112   6.704  1.1076  0.6146 -0.8008
   27SAPC   O21 3558   5.882   1.235   6.811 -0.5641  0.9021  0.0777
   27SAPC   C21 3559   5.835   1.341   6.740 -0.2174  0.0170 -0.6656
   27SAPC   O22 3560   5.732   1.339   6.670 -0.4964  0.4936  0.4084
   27SAPC   C22 3561   5.935   1.455   6.767  0.2893  0.3831 -1.1028
   27SAPC   H2R 3562   6.034   1.416   6.801 -0.0135  2.5210  2.7409
   27SAPC   H2S 3563   5.955   1.515   6.676 -0.2850  0.6138 -1.0786
   27SAPC    C3 3564   5.705   1.096   6.928  0.4329  0.4501 -0.3122
   27SAPC    HX 3565   5.650   1.187   6.959 -1.6132 -0.6315 -0.5911
   27SAPC    HY 3566   5.778   1.075   7.009 -1.3340  0.6569  1.4030
   27SAPC   O31 3567   5.610   0.985   6.919 -0.0835 -0.0733  0.0169
   27SAPC   C31 3568   5.496   0.995   6.851 -1.0950  0.2179  0.1741
   27SAPC   O32 3569   5.463   1.082   6.772  0.0441 -0.1118 -0.1354
   27SAPC   C32 3570   5.435   0.859   6.873 -0.5874 -0.6191  0.4423
   27SAPC   H2X 3571   5.491   0.783   6.814  1.4188  2.0633 -1.3569
   27SAPC   H2Y 3572   5.338   0.855   6.818  0.0575 -2.5742 -0.6434
   27SAPC   C23 3573   5.886   1.542   6.886  0.1660 -0.2729  0.5733
   27SAPC   H3R 3574   5.775   1.537   6.897  0.1072  0.7407  0.5527
   27SAPC   H3S 3575   5.909   1.648   6.860 -0.5484  0.4047  2.5082
   27SAPC   C24 3576   5.966   1.504   7.013  0.5330  0.5857  0.4251
   27SAPC   H4R 3577   6.075   1.514   6.991  0.7040 -1.1420  0.3036
   27SAPC   H4S 3578   5.953   1.398   7.044  0.8528  1.4013  3.7192
   27SAPC   C25 3579   5.928   1.595   7.126  0.0615  0.2934  0.3133
   27SAPC   H5R 3580   5.934   1.704   7.116 -1.8561  0.4924  1.0263
   27SAPC   C26 3581   5.870   1.563   7.243  0.4115  0.4429 -0.2188
   27SAPC   H6R 3582   5.842   1.643   7.313 -2.9397  0.4972 -1.4260
   27SAPC   C27 3583   5.830   1.429   7.289 -0.9287 -0.1149 -0.5442
   27SAPC   H7R 3584   5.828   1.439   7.399  0.1539 -0.8994 -0.4365
   27SAPC   H7S 3585   5.908   1.355   7.263 -0.3199 -0.7838  2.8064
   27SAPC   C28 3586   5.700   1.367   7.243 -0.5647 -0.8990  0.6656
   27SAPC   H8R 3587   5.640   1.415   7.165 -0.4428 -1.5397  0.1649
   27SAPC   C29 3588   5.662   1.246   7.280  0.9462  0.6809 -0.7069
   27SAPC   H9R 3589   5.563   1.211   7.245  0.1426  2.2911 -0.1460
   27SAPC  C210 3590   5.727   1.149   7.374 -0.1383 -0.6154 -0.4300
   27SAPC  H10R 3591   5.757   1.208   7.463  0.4639 -0.1610 -0.9312
   27SAPC  H10S 3592   5.828   1.113   7.344 -0.1151  0.0035 -1.1196
   27SAPC  C211 3593   5.653   1.016   7.405 -0.2766  0.1597 -0.5389
   27SAPC  H11R 3594   5.669   0.933   7.334 -1.2500  1.1618 -1.9859
   27SAPC  C212 3595   5.591   0.986   7.519  0.1846  1.0084 -0.6214
   27SAPC  H12R 3596   5.525   0.899   7.535 -0.2703  1.5973  0.8609
   27SAPC  C213 3597   5.571   1.082   7.632 -0.8254 -0.0457 -0.1416
   27SAPC  H13R 3598   5.533   1.180   7.597 -1.1619 -1.0467 -2.7721
   27SAPC  H13S 3599   5.675   1.101   7.667  0.4871  1.2817 -4.1741
   27SAPC  C214 3600   5.477   1.051   7.743 -0.0995  0.0843  0.3227
   27SAPC  H14R 3601   5.404   0.971   7.728 -1.5873  1.1715  1.4956
   27SAPC  C215 3602   5.460   1.104   7.862 -0.9290 -0.0980  0.0505
   27SAPC  H15R 3603   5.375   1.077   7.927 -0.4370  1.0582  1.2152
   27SAPC  C216 3604   5.546   1.218   7.923  0.5474 -0.6734  0.1716
   27SAPC  H16R 3605   5.497   1.316   7.910 -0.8458 -1.2747  0.6510
   27SAPC  H16S 3606   5.631   1.241   7.857 -0.8276  0.7142 -1.2026
   27SAPC  C217 3607   5.577   1.182   8.075  0.5498 -0.6501  0.3123
   27SAPC  H17R 3608   5.639   1.091   8.082  2.0170  0.2396 -0.6813
   27SAPC  H17S 3609   5.476   1.180   8.121  0.2891  2.1957  0.0668
   27SAPC  C218 3610   5.661   1.276   8.156  1.0744 -0.3299 -0.3982
   27SAPC  H18R 3611   5.604   1.372   8.158 -0.0296 -0.8920 -2.5167
   27SAPC  H18S 3612   5.748   1.316   8.099 -1.1590  2.7117 -2.0145
   27SAPC  C219 3613   5.706   1.221   8.299  0.0619 -0.5755 -0.3024
   27SAPC  H19R 3614   5.758   1.304   8.352  0.7162 -1.2307  0.0922
   27SAPC  H19S 3615   5.780   1.138   8.293  0.0623 -0.6584  0.7328
   27SAPC  C220 3616   5.590   1.170   8.385 -0.2415  0.4727  0.0918
   27SAPC  H20R 3617   5.536   1.089   8.331  0.5494 -0.6409  0.9187
   27SAPC  H20S 3618   5.506   1.241   8.398 -0.3297  0.4407 -0.3006
   27SAPC  H20T 3619   5.629   1.121   8.477 -0.7556 -0.1874 -0.0330
   27SAPC   C33 3620   5.423   0.822   7.026  0.4595 -0.1131  0.6666
   27SAPC   H3X 3621   5.518   0.841   7.081  0.9473  1.7088 -0.7130
   27SAPC   H3Y 3622   5.400   0.713   7.028  1.8129 -0.4362 -0.1676
   27SAPC   C34 3623   5.317   0.899   7.104  0.2940  0.2848  0.0448
   27SAPC   H4X 3624   5.226   0.916   7.042  0.6742 -0.0478 -0.6075
   27SAPC   H4Y 3625   5.362   0.998   7.127 -0.4212  0.4838  0.6329
   27SAPC   C35 3626   5.302   0.837   7.245  0.1200 -0.6473 -0.3080
   27SAPC   H5X 3627   5.392   0.797   7.296  0.8342  0.2138 -0.8841
   27SAPC   H5Y 3628   5.247   0.740   7.246  0.3237 -0.7622  0.6922
   27SAPC   C36 3629   5.228   0.939   7.347 -0.4015  0.2944  0.2408
   27SAPC   H6X 3630   5.138   0.972   7.291  1.3851  1.0381 -2.3920
   27SAPC   H6Y 3631   5.294   1.027   7.361 -1.3296  0.5519  3.7237
   27SAPC   C37 3632   5.202   0.867   7.483 -0.4168  0.3477  0.0929
   27SAPC   H7X 3633   5.297   0.829   7.526 -0.4928  0.8311  0.6941
   27SAPC   H7Y 3634   5.136   0.778   7.475  0.5054 -0.3587  0.2696
   27SAPC   C38 3635   5.145   0.964   7.580  0.3841 -0.4779 -0.6480
   27SAPC   H8X 3636   5.061   1.012   7.526  0.0519 -1.2375 -0.8314
   27SAPC   H8Y 3637   5.210   1.046   7.615  0.4280 -0.9219  0.3385
   27SAPC   C39 3638   5.072   0.899   7.703 -0.6051  0.4581 -0.2140
   27SAPC   H9X 3639   4.988   0.837   7.664 -0.5992  1.1638 -1.4090
   27SAPC   H9Y 3640   5.032   0.978   7.770  1.6295  0.4089  1.2908
   27SAPC  C310 3641   5.162   0.813   7.795 -0.1012 -0.4599  0.4764
   27SAPC  H10X 3642   5.230   0.888   7.839  0.5073 -0.5629 -0.2576
   27SAPC  H10Y 3643   5.232   0.750   7.736 -1.6840 -2.8629  0.9729
   27SAPC  C311 3644   5.089   0.724   7.891 -0.3860 -0.4151  0.4849
   27SAPC  H11X 3645   5.008   0.783   7.939  1.0595  1.1693  1.0690
   27SAPC  H11Y 3646   5.160   0.687   7.968 -1.2008 -1.6973  0.6594
   27SAPC  C312 3647   5.037   0.599   7.824  0.1766  0.8650  0.4017
   27SAPC  H12X 3648   5.119   0.546   7.770 -1.6377 -0.1906 -1.4576
   27SAPC  H12Y 3649   4.970   0.635   7.743  2.1846  1.8799 -0.9071
   27SAPC  C313 3650   4.947   0.508   7.908 -1.1206  0.0378 -0.4679
   27SAPC  H13X 3651   4.902   0.433   7.840  0.7740 -0.6132 -1.0757
   27SAPC  H13Y 3652   4.862   0.566   7.951  0.1664  1.0638  0.7810
   27SAPC  C314 3653   5.016   0.441   8.029  0.0791  0.4770 -0.6904
   27SAPC  H14X 3654   5.018   0.511   8.115  0.3190  2.1922 -2.0368
   27SAPC  H14Y 3655   5.123   0.424   8.003  0.5050  1.0077  0.6532
   27SAPC  C315 3656   4.955   0.318   8.086 -0.5441 -0.2731  0.8159
   27SAPC  H15X 3657   4.948   0.242   8.005  0.0552  0.4521  0.0717
   27SAPC  H15Y 3658   4.845   0.331   8.098 -0.6072  0.2268 -0.2223
   27SAPC  C316 3659   5.018   0.283   8.223 -0.1790 -0.7453  0.3414
   27SAPC  H16X 3660   4.968   0.201   8.279 -1.6055  0.3045  0.6608
   27SAPC  H16Y 3661   5.005   0.375   8.283  0.8091  0.3821 -1.0972
   27SAPC  C317 3662   5.172   0.266   8.216 -0.6230 -0.7024 -0.7058
   27SAPC  H17X 3663   5.226   0.352   8.171  1.6570 -0.9037  1.3946
   27SAPC  H17Y 3664   5.203   0.177   8.157  0.4976 -0.6538 -0.2286
   27SAPC  C318 3665   5.230   0.241   8.356  0.2033  0.4887 -0.2223
   27SAPC  H18X 3666   5.212   0.327   8.424 -0.5410  0.7058 -0.6749
   27SAPC  H18Y 3667   5.340   0.222   8.354  0.5550  2.2837  0.2726
   27SAPC  H18Z 3668   5.187   0.152   8.406  1.4623  0.0619  0.1573
   28SAPC     N 3669   6.373   2.953   5.917  0.1312 -0.5283  0.3021
   28SAPC   C12 3670   6.475   2.890   6.011  0.5195  0.1820 -0.3711
   28SAPC  H12A 3671   6.574   2.928   5.989  0.1393 -0.0654 -2.8173
   28SAPC  H12B 3672   6.464   2.786   5.986 -0.7199  0.3161 -0.4558
   28SAPC   C13 3673   6.376   3.103   5.922 -0.3780  0.5652 -0.5984
   28SAPC  H13A 3674   6.285   3.148   5.885 -1.5777 -0.8220  0.5554
   28SAPC  H13B 3675   6.388   3.132   6.026  1.5099 -2.8438  0.2776
   28SAPC  H13C 3676   6.460   3.138   5.864  1.1146 -1.2582  0.3667
   28SAPC   C14 3677   6.420   2.916   5.776 -0.0884 -0.9711 -0.4411
   28SAPC  H14A 3678   6.521   2.953   5.768 -0.1833 -0.7193 -0.4650
   28SAPC  H14B 3679   6.413   2.810   5.757  1.1517 -1.0992 -0.2390
   28SAPC  H14C 3680   6.364   2.967   5.699 -0.1621  2.1017  1.4952
   28SAPC   C15 3681   6.236   2.899   5.927  0.7388  0.7548  0.2736
   28SAPC  H15A 3682   6.168   2.943   5.856  2.7517  0.4892 -1.9251
   28SAPC  H15B 3683   6.238   2.792   5.912 -3.0576  0.1087  2.9469
   28SAPC  H15C 3684   6.202   2.914   6.029  1.7522  0.1367  0.7232
   28SAPC   C11 3685   6.460   2.917   6.166  0.0709 -0.1633 -0.6629
   28SAPC  H11A 3686   6.519   2.853   6.235 -1.3027  0.8440  1.5620
   28SAPC  H11B 3687   6.355   2.897   6.194 -0.2401  1.9345 -0.1785
   28SAPC     P 3688   6.622   3.119   6.178  0.1337  0.2354 -0.2635
   28SAPC   O13 3689   6.700   3.035   6.088 -0.4884 -0.6474  0.6631
   28SAPC   O14 3690   6.609   3.268   6.146 -0.1208  0.4841 -0.1048
   28SAPC   O12 3691   6.482   3.055   6.201  0.2464 -0.0429 -0.1100
   28SAPC   O11 3692   6.688   3.109   6.319 -0.0849 -0.1645 -0.2637
   28SAPC    C1 3693   6.615   3.073   6.442 -0.6656  0.1048  0.1141
   28SAPC    HA 3694   6.525   3.137   6.442 -0.1051  0.9356 -1.6587
   28SAPC    HB 3695   6.587   2.965   6.448  1.6114 -0.4867  1.3311
   28SAPC    C2 3696   6.712   3.086   6.564  0.0142  0.2794  0.3633
   28SAPC    HS 3697   6.786   3.003   6.569  1.5580  1.6069  0.5198
   28SAPC   O21 3698   6.637   3.094   6.686  1.0257 -0.2061  0.4117
   28SAPC   C21 3699   6.585   2.970   6.724  0.4118 -0.4442  0.1590
   28SAPC   O22 3700   6.600   2.870   6.660 -0.0570  0.0114  0.2679
   28SAPC   C22 3701   6.504   2.982   6.853 -0.6490 -0.6894 -0.3802
   28SAPC   H2R 3702   6.399   2.989   6.819 -0.1098  1.4048 -1.8202
   28SAPC   H2S 3703   6.530   2.896   6.919  0.1336  1.7824  2.8106
   28SAPC    C3 3704   6.798   3.215   6.542 -0.2285  0.5032 -0.0657
   28SAPC    HX 3705   6.741   3.297   6.493  1.3605  2.7976  1.7310
   28SAPC    HY 3706   6.868   3.203   6.456  0.7561 -0.7025  0.8702
   28SAPC   O31 3707   6.871   3.258   6.657  0.0861 -0.4150  0.4515
   28SAPC   C31 3708   6.965   3.172   6.699 -0.9681  0.0932 -1.2495
   28SAPC   O32 3709   6.995   3.064   6.649 -0.4071  0.0932  0.5091
   28SAPC   C32 3710   7.037   3.224   6.832 -0.4005  0.2469  0.9158
   28SAPC   H2X 3711   7.061   3.332   6.821 -1.5121  0.5606  1.4340
   28SAPC   H2Y 3712   7.133   3.166   6.829 -0.2386  0.4695  1.7294
   28SAPC   C23 3713   6.542   3.107   6.950  0.4876 -0.5192  0.5993
   28SAPC   H3R 3714   6.549   3.205   6.899 -1.3863 -0.0985  1.0597
   28SAPC   H3S 3715   6.643   3.079   6.987  0.2399  1.3174  2.8918
   28SAPC   C24 3716   6.440   3.127   7.062  0.7564 -0.3957 -0.2470
   28SAPC   H4R 3717   6.345   3.172   7.024  0.2501 -1.6349 -0.5073
   28SAPC   H4S 3718   6.431   3.024   7.103  0.8016  0.0768  0.9893
   28SAPC   C25 3719   6.499   3.223   7.164 -0.3867  0.0628  0.9518
   28SAPC   H5R 3720   6.600   3.252   7.133 -1.3133 -0.4954 -3.1086
   28SAPC   C26 3721   6.449   3.284   7.272  0.4173  0.9217 -0.2102
   28SAPC   H6R 3722   6.510   3.348   7.338 -0.5616  1.8102 -0.1332
   28SAPC   C27 3723   6.309   3.286   7.331  0.7120  0.2520 -0.0968
   28SAPC   H7R 3724   6.244   3.278   7.242  0.0558 -0.2336  0.4237
   28SAPC   H7S 3725   6.283   3.384   7.378 -1.7389  0.1539 -1.1557
   28SAPC   C28 3726   6.262   3.182   7.427 -0.1954 -0.6025 -0.3207
   28SAPC   H8R 3727   6.223   3.088   7.384 -2.8340  0.6556 -0.8661
   28SAPC   C29 3728   6.267   3.182   7.560 -0.0406 -0.6215 -0.3965
   28SAPC   H9R 3729   6.219   3.104   7.621 -2.6353 -1.0151 -2.7317
   28SAPC  C210 3730   6.329   3.299   7.641  0.5175 -0.5457  0.5650
   28SAPC  H10R 3731   6.250   3.331   7.713 -1.5685 -1.1974 -1.3309
   28SAPC  H10S 3732   6.354   3.389   7.582  3.1865 -0.6540  1.4130
   28SAPC  C211 3733   6.447   3.262   7.727 -0.2113  0.4703 -0.2168
   28SAPC  H11R 3734   6.493   3.170   7.686  0.9524  1.2245 -0.6767
   28SAPC  C212 3735   6.491   3.316   7.844  0.2679 -0.0428  0.0475
   28SAPC  H12R 3736   6.572   3.265   7.898 -1.6459 -3.2673  0.1092
   28SAPC  C213 3737   6.421   3.430   7.913  0.2219  0.1035 -0.0651
   28SAPC  H13R 3738   6.389   3.399   8.014  2.6995  1.3668  1.1861
   28SAPC  H13S 3739   6.329   3.452   7.854  1.1819 -1.8562 -2.5012
   28SAPC  C214 3740   6.503   3.561   7.919  1.0061 -0.0188  0.0156
   28SAPC  H14R 3741   6.447   3.644   7.874 -0.9839 -1.2130  0.2142
   28SAPC  C215 3742   6.625   3.584   7.963  0.1890  0.1153 -0.7949
   28SAPC  H15R 3743   6.668   3.685   7.959 -0.5853  0.4471 -1.1253
   28SAPC  C216 3744   6.728   3.493   8.020 -0.2683  0.3825  0.2155
   28SAPC  H16R 3745   6.805   3.482   7.942  1.1076  2.4156  1.2031
   28SAPC  H16S 3746   6.679   3.401   8.060  1.1026 -0.4428  0.0416
   28SAPC  C217 3747   6.804   3.548   8.138 -0.5679 -0.3353  0.5580
   28SAPC  H17R 3748   6.852   3.643   8.107  1.6420 -0.9245  1.9554
   28SAPC  H17S 3749   6.895   3.490   8.166  1.8076  3.4746  1.4960
   28SAPC  C218 3750   6.721   3.564   8.262 -0.1431 -0.3992  0.5625
   28SAPC  H18R 3751   6.649   3.479   8.271 -0.2470 -0.3195  0.4966
   28SAPC  H18S 3752   6.659   3.655   8.246  0.1475  0.3180  3.1754
   28SAPC  C219 3753   6.799   3.586   8.390  0.5767 -0.0045  0.4089
   28SAPC  H19R 3754   6.886   3.518   8.388 -0.2921 -1.2898 -4.0489
   28SAPC  H19S 3755   6.737   3.577   8.482  1.3435  1.2311  1.0889
   28SAPC  C220 3756   6.851   3.731   8.397 -0.3249 -0.1864  0.2360
   28SAPC  H20R 3757   6.767   3.796   8.364  0.4493  0.5497 -0.3252
   28SAPC  H20S 3758   6.941   3.748   8.335 -0.3171  0.7876  0.5031
   28SAPC  H20T 3759   6.883   3.756   8.500  4.9207 -4.0514 -0.0872
   28SAPC   C33 3760   6.969   3.184   6.961  0.1682 -0.1798 -0.0670
   28SAPC   H3X 3761   6.969   3.073   6.968 -0.2013 -0.1320  0.7809
   28SAPC   H3Y 3762   6.863   3.217   6.957 -0.0511 -0.6025  1.4370
   28SAPC   C34 3763   7.030   3.253   7.089 -0.2127 -0.2240 -0.3106
   28SAPC   H4X 3764   6.966   3.228   7.177  1.4350  0.5368  1.1563
   28SAPC   H4Y 3765   7.023   3.362   7.072  2.0872 -0.0848 -0.6482
   28SAPC   C35 3766   7.175   3.218   7.128 -0.0407  0.0905  0.3631
   28SAPC   H5X 3767   7.199   3.240   7.234  1.8553 -2.5173  0.5944
   28SAPC   H5Y 3768   7.255   3.269   7.069  1.4123 -2.5027 -0.0928
   28SAPC   C36 3769   7.211   3.063   7.132  0.8266  0.2946  0.3904
   28SAPC   H6X 3770   7.186   3.013   7.036 -1.1500 -1.1757  1.5817
   28SAPC   H6Y 3771   7.158   3.007   7.213  0.6668 -1.0463 -0.6012
   28SAPC   C37 3772   7.363   3.037   7.154 -0.0039 -0.1260  0.1320
   28SAPC   H7X 3773   7.403   3.073   7.056 -1.1369 -0.3712 -0.4439
   28SAPC   H7Y 3774   7.381   2.928   7.164  0.3844 -0.2280 -1.3580
   28SAPC   C38 3775   7.424   3.092   7.277 -0.3722 -0.0043 -0.4356
   28SAPC   H8X 3776   7.414   3.203   7.276 -1.3309  0.0446  2.9016
   28SAPC   H8Y 3777   7.532   3.067   7.281  0.0921  1.9544  1.7266
   28SAPC   C39 3778   7.363   3.055   7.412 -0.2423  0.4139 -0.0605
   28SAPC   H9X 3779   7.370   2.950   7.449 -0.6831  0.2963 -0.2981
   28SAPC   H9Y 3780   7.256   3.073   7.388  0.0366  0.4888 -1.3176
   28SAPC  C310 3781   7.408   3.150   7.522  0.0623 -0.4027  0.2445
   28SAPC  H10X 3782   7.393   3.250   7.476 -0.6293 -0.2722  0.7405
   28SAPC  H10Y 3783   7.515   3.138   7.549 -0.1513  1.0336  1.8828
   28SAPC  C311 3784   7.324   3.143   7.648  0.1110  0.2013  0.3901
   28SAPC  H11X 3785   7.325   3.046   7.701 -2.6136 -0.4065 -0.5131
   28SAPC  H11Y 3786   7.219   3.156   7.616 -0.2313 -0.7917  1.0894
   28SAPC  C312 3787   7.345   3.252   7.753 -0.4725 -0.1796  0.3539
   28SAPC  H12X 3788   7.274   3.231   7.836 -2.3554 -0.7420 -1.2996
   28SAPC  H12Y 3789   7.322   3.345   7.696  0.0339 -0.4881 -0.3662
   28SAPC  C313 3790   7.487   3.263   7.813 -1.4566  0.3155 -0.0494
   28SAPC  H13X 3791   7.558   3.291   7.732 -2.0857 -0.0174 -0.7329
   28SAPC  H13Y 3792   7.508   3.165   7.859 -2.0945  0.7575  1.2171
   28SAPC  C314 3793   7.495   3.367   7.930 -0.6549  0.4460  1.0092
   28SAPC  H14X 3794   7.407   3.342   7.993 -2.0260 -1.3024 -1.4470
   28SAPC  H14Y 3795   7.478   3.464   7.879 -1.5060  0.1970  0.8021
   28SAPC  C315 3796   7.622   3.359   8.008 -0.1429  0.8680  0.2620
   28SAPC  H15X 3797   7.625   3.440   8.084  1.1490  1.2562 -0.1748
   28SAPC  H15Y 3798   7.713   3.362   7.946 -0.2119  0.3158  0.1242
   28SAPC  C316 3799   7.643   3.225   8.085 -0.0810 -0.4761 -0.0731
   28SAPC  H16X 3800   7.660   3.134   8.023 -0.2534 -0.7609  0.2905
   28SAPC  H16Y 3801   7.552   3.203   8.146 -0.0291  2.9571  1.4391
   28SAPC  C317 3802   7.759   3.221   8.179 -0.1546  0.6751  0.1572
   28SAPC  H17X 3803   7.762   3.296   8.261 -0.7181  0.5517  0.2909
   28SAPC  H17Y 3804   7.854   3.229   8.122  0.5103 -0.9550  0.9481
   28SAPC  C318 3805   7.766   3.083   8.244  0.2643 -0.4031  0.2572
   28SAPC  H18X 3806   7.848   3.074   8.318 -0.0033 -1.0043  0.4866
   28SAPC  H18Y 3807   7.784   3.007   8.166  0.5957 -0.3327  0.2650
   28SAPC  H18Z 3808   7.667   3.053   8.285  0.3571 -0.0042  0.7787
   29SAPC     N 3809   0.840   0.067   6.082  0.3510 -0.2040 -0.3284
   29SAPC   C12 3810   0.782   0.088   6.227 -0.3453  0.1166 -0.1004
   29SAPC  H12A 3811   0.867   0.084   6.294 -0.6423 -2.3952  0.2318
   29SAPC  H12B 3812   0.727  -0.002   6.252  1.0571 -0.2086  2.0550
   29SAPC   C13 3813   0.940   0.171   6.049 -0.8350 -0.3470 -0.6408
   29SAPC  H13A 3814   0.883   0.261   6.066 -1.0432 -0.5370 -0.3307
   29SAPC  H13B 3815   1.015   0.180   6.126 -1.7479 -1.1969  0.3876
   29SAPC  H13C 3816   0.995   0.162   5.956  0.9092 -0.0329  0.3051
   29SAPC   C14 3817   0.911  -0.069   6.085  0.0516 -0.2779 -0.0424
   29SAPC  H14A 3818   0.992  -0.066   6.156  1.5500 -1.5854 -1.6061
   29SAPC  H14B 3819   0.838  -0.146   6.104 -0.6093  0.4770  0.5554
   29SAPC  H14C 3820   0.945  -0.081   5.983 -3.2282 -2.2729 -1.0440
   29SAPC   C15 3821   0.727   0.063   5.987  0.1419  0.6699  0.0968
   29SAPC  H15A 3822   0.781   0.051   5.894 -1.2205 -2.5964 -0.4195
   29SAPC  H15B 3823   0.677  -0.030   6.010  2.2426  0.0250  2.5846
   29SAPC  H15C 3824   0.666   0.151   5.980  0.8212  1.1085 -0.4470
   29SAPC   C11 3825   0.695   0.223   6.251  0.5582 -1.0514 -0.2493
   29SAPC  H11A 3826   0.652   0.210   6.352  1.5370 -2.0120  0.0663
   29SAPC  H11B 3827   0.609   0.217   6.181  0.3842  0.6955 -0.2184
   29SAPC     P 3828   0.873   0.406   6.326 -0.0402 -0.1022 -0.1280
   29SAPC   O13 3829   1.011   0.378   6.272  0.7683 -0.1834  0.7205
   29SAPC   O14 3830   0.844   0.548   6.343  0.4170 -0.4460  0.6190
   29SAPC   O12 3831   0.762   0.350   6.229  0.0517  0.1647  0.1002
   29SAPC   O11 3832   0.858   0.324   6.460 -0.5435 -0.3077  0.2887
   29SAPC    C1 3833   0.784   0.369   6.571  0.7611  0.2966 -0.3785
   29SAPC    HA 3834   0.706   0.443   6.544  1.4973  0.9317 -0.8144
   29SAPC    HB 3835   0.742   0.286   6.631 -0.0402  1.0431  0.1049
   29SAPC    C2 3836   0.876   0.454   6.663  0.0432  0.0557 -0.0538
   29SAPC    HS 3837   0.902   0.544   6.602 -1.0399  2.2707  2.5550
   29SAPC   O21 3838   0.990   0.381   6.711  0.3823 -0.1469 -0.3242
   29SAPC   C21 3839   1.084   0.457   6.753 -0.3596 -0.9205 -0.4086
   29SAPC   O22 3840   1.094   0.577   6.736  0.5505  0.1603 -0.7898
   29SAPC   C22 3841   1.202   0.365   6.812  0.2483  0.5149 -0.1638
   29SAPC   H2R 3842   1.157   0.269   6.845  2.6566 -1.1787 -1.5384
   29SAPC   H2S 3843   1.274   0.341   6.731  1.7513 -0.2009  1.3247
   29SAPC    C3 3844   0.801   0.522   6.783 -0.8986  0.3458  0.4223
   29SAPC    HX 3845   0.712   0.580   6.749 -2.3765 -1.0719  1.7152
   29SAPC    HY 3846   0.861   0.610   6.816  0.0919  0.0917 -0.6497
   29SAPC   O31 3847   0.759   0.434   6.887  0.7089 -0.5588 -0.7094
   29SAPC   C31 3848   0.652   0.367   6.890 -0.0261 -0.3841  0.4299
   29SAPC   O32 3849   0.567   0.353   6.801 -0.4812  0.3103  0.3190
   29SAPC   C32 3850   0.641   0.290   7.028  0.1916 -0.4244 -0.3174
   29SAPC   H2X 3851   0.744   0.250   7.042  0.6582  0.5624 -0.8660
   29SAPC   H2Y 3852   0.568   0.206   7.020  1.4686 -1.7040  0.8653
   29SAPC   C23 3853   1.271   0.431   6.938 -0.7302  0.5338  0.2102
   29SAPC   H3R 3854   1.342   0.509   6.905  0.2664 -1.3079 -2.3877
   29SAPC   H3S 3855   1.327   0.350   6.991 -1.2754 -0.0164 -0.0412
   29SAPC   C24 3856   1.171   0.493   7.040  0.3040  0.0961 -0.5086
   29SAPC   H4R 3857   1.114   0.582   7.008 -1.4742 -0.7406  0.2233
   29SAPC   H4S 3858   1.235   0.528   7.124 -1.4800  0.8694  0.5735
   29SAPC   C25 3859   1.066   0.393   7.079 -0.1125 -0.0636 -0.1742
   29SAPC   H5R 3860   1.019   0.335   6.998  0.2561  1.1687 -1.3026
   29SAPC   C26 3861   1.024   0.369   7.205 -0.4811  0.2266 -0.5143
   29SAPC   H6R 3862   0.942   0.296   7.212 -0.1974 -0.3048 -2.1676
   29SAPC   C27 3863   1.080   0.445   7.327 -0.0786  0.2832 -0.5454
   29SAPC   H7R 3864   0.997   0.463   7.398 -1.9992 -0.1543 -2.5906
   29SAPC   H7S 3865   1.112   0.548   7.300  1.6177 -0.5549 -1.9845
   29SAPC   C28 3866   1.187   0.360   7.392  0.1650  0.2044 -0.0530
   29SAPC   H8R 3867   1.261   0.324   7.320  0.7856  0.2118  0.5713
   29SAPC   C29 3868   1.199   0.326   7.521 -0.0792 -0.0925  0.4891
   29SAPC   H9R 3869   1.283   0.263   7.556  1.0234  1.2423  0.3398
   29SAPC  C210 3870   1.106   0.368   7.635 -0.0044 -0.2216  0.2051
   29SAPC  H10R 3871   1.043   0.280   7.663  0.3126  0.5472  3.9129
   29SAPC  H10S 3872   1.028   0.439   7.600 -0.7508 -0.5790  1.0875
   29SAPC  C211 3873   1.165   0.412   7.771  0.0406 -0.0853 -0.0411
   29SAPC  H11R 3874   1.221   0.507   7.760  0.7419 -0.2857  1.5827
   29SAPC  C212 3875   1.142   0.365   7.895  0.0168 -0.1398  0.1472
   29SAPC  H12R 3876   1.197   0.413   7.977  0.0138 -1.5263  0.9884
   29SAPC  C213 3877   1.054   0.246   7.929 -0.6653 -0.1334  0.2582
   29SAPC  H13R 3878   1.116   0.154   7.931 -0.8783 -0.3415 -1.3554
   29SAPC  H13S 3879   0.978   0.225   7.851  0.8832  0.3204 -1.4514
   29SAPC  C214 3880   0.991   0.275   8.061  0.3161 -0.8351  1.4943
   29SAPC  H14R 3881   0.885   0.301   8.063  0.2199 -0.4816 -2.0440
   29SAPC  C215 3882   1.052   0.248   8.175  0.6843 -0.1930 -0.0253
   29SAPC  H15R 3883   0.995   0.286   8.261  0.2792  2.6574 -1.4019
   29SAPC  C216 3884   1.191   0.205   8.206  0.3296  0.0624 -0.0783
   29SAPC  H16R 3885   1.228   0.289   8.267 -1.1276  1.4100 -0.9630
   29SAPC  H16S 3886   1.244   0.209   8.108 -2.0388 -1.1130 -1.5120
   29SAPC  C217 3887   1.215   0.073   8.282  0.2416 -0.1588  0.8430
   29SAPC  H17R 3888   1.323   0.052   8.295  0.4667 -0.6530 -1.3528
   29SAPC  H17S 3889   1.180  -0.003   8.209 -2.9182  1.3916  0.5690
   29SAPC  C218 3890   1.141   0.068   8.421 -0.5451  0.1327 -0.2044
   29SAPC  H18R 3891   1.039   0.110   8.415 -1.0829 -0.7994  1.6487
   29SAPC  H18S 3892   1.198   0.131   8.493  0.0800 -0.9711  0.2914
   29SAPC  C219 3893   1.132  -0.068   8.481 -0.3447 -0.5183  0.5274
   29SAPC  H19R 3894   1.065  -0.131   8.419  1.5338 -0.5786 -1.5530
   29SAPC  H19S 3895   1.090  -0.060   8.583 -0.4483 -1.2126  0.5422
   29SAPC  C220 3896   1.267  -0.154   8.488  0.0186 -0.6245  0.6655
   29SAPC  H20R 3897   1.253  -0.250   8.541 -2.0207 -0.3303  0.7329
   29SAPC  H20S 3898   1.348  -0.103   8.544 -0.6700 -3.1338  4.2850
   29SAPC  H20T 3899   1.300  -0.175   8.384 -2.6535  0.4698 -0.5108
   29SAPC   C33 3900   0.585   0.389   7.134 -0.4912 -0.3200  0.1183
   29SAPC   H3X 3901   0.508   0.464   7.110  0.4563  0.7734  0.4121
   29SAPC   H3Y 3902   0.671   0.457   7.151  2.0285 -2.8036 -1.6655
   29SAPC   C34 3903   0.547   0.335   7.272  0.5047  0.0909 -0.2086
   29SAPC   H4X 3904   0.459   0.268   7.262  0.1366  0.7093 -1.2483
   29SAPC   H4Y 3905   0.519   0.418   7.340  1.0064  1.0614 -1.1611
   29SAPC   C35 3906   0.654   0.271   7.361 -0.0895 -0.4226  0.0544
   29SAPC   H5X 3907   0.744   0.335   7.358 -0.6176  0.5399  2.3630
   29SAPC   H5Y 3908   0.686   0.171   7.325  0.6273  0.0209 -0.5563
   29SAPC   C36 3909   0.610   0.248   7.510  0.1029 -0.0641 -0.2068
   29SAPC   H6X 3910   0.515   0.189   7.506  0.1045  0.0070 -3.4561
   29SAPC   H6Y 3911   0.582   0.342   7.563 -0.6598 -1.2660  1.6589
   29SAPC   C37 3912   0.709   0.165   7.593  0.5211  0.0923 -0.0867
   29SAPC   H7X 3913   0.811   0.208   7.587  0.1172  1.3658  1.4688
   29SAPC   H7Y 3914   0.718   0.074   7.530 -0.9058  1.4764 -2.4565
   29SAPC   C38 3915   0.672   0.130   7.740 -0.1887 -0.4506 -0.1960
   29SAPC   H8X 3916   0.746   0.057   7.777 -0.2633  0.8710  2.8354
   29SAPC   H8Y 3917   0.570   0.085   7.735 -1.0613  1.4293 -0.5622
   29SAPC   C39 3918   0.656   0.263   7.824 -0.5456 -0.1408 -0.1770
   29SAPC   H9X 3919   0.584   0.320   7.761 -0.7440 -0.7851 -0.5393
   29SAPC   H9Y 3920   0.754   0.316   7.819 -1.4058  1.4248 -1.5581
   29SAPC  C310 3921   0.619   0.237   7.971 -0.0071 -0.5295 -0.8782
   29SAPC  H10X 3922   0.695   0.170   8.018 -0.2335 -0.2598 -0.1226
   29SAPC  H10Y 3923   0.528   0.174   7.965  1.3019 -2.5699 -0.5144
   29SAPC  C311 3924   0.602   0.361   8.059  0.2885 -0.2346 -0.2444
   29SAPC  H11X 3925   0.522   0.431   8.025  0.6560  1.3563  1.9468
   29SAPC  H11Y 3926   0.698   0.415   8.074 -0.2035  0.5128  0.2682
   29SAPC  C312 3927   0.548   0.325   8.195  0.8166  0.2574 -0.1515
   29SAPC  H12X 3928   0.617   0.259   8.251 -0.0320  0.2173  0.8747
   29SAPC  H12Y 3929   0.454   0.272   8.171  1.5061 -0.7085 -0.7753
   29SAPC  C313 3930   0.510   0.459   8.277  0.2147  0.1569  0.7901
   29SAPC  H13X 3931   0.437   0.413   8.347  1.3339 -1.6673  0.8440
   29SAPC  H13Y 3932   0.456   0.534   8.216  0.3955 -0.8788 -0.6978
   29SAPC  C314 3933   0.629   0.499   8.355  0.6743 -0.0464  0.4134
   29SAPC  H14X 3934   0.721   0.474   8.298  0.9317 -1.2233  1.3150
   29SAPC  H14Y 3935   0.637   0.430   8.441  0.0697 -1.2049 -0.4388
   29SAPC  C315 3936   0.638   0.650   8.399 -0.5235  0.2947 -0.0080
   29SAPC  H15X 3937   0.547   0.670   8.459  0.3467  0.6183  1.2581
   29SAPC  H15Y 3938   0.639   0.715   8.308  1.7867  2.2456  1.2786
   29SAPC  C316 3939   0.770   0.675   8.479  0.4025 -0.6052 -0.3146
   29SAPC  H16X 3940   0.857   0.628   8.427  1.2293 -1.2392  1.5367
   29SAPC  H16Y 3941   0.768   0.621   8.576  1.8761 -1.8704 -0.9450
   29SAPC  C317 3942   0.803   0.823   8.502  0.2509  0.7709  0.3645
   29SAPC  H17X 3943   0.736   0.880   8.570 -0.0536 -1.8982  2.4606
   29SAPC  H17Y 3944   0.797   0.869   8.401 -1.1527  1.2889  0.6617
   29SAPC  C318 3945   0.943   0.827   8.565 -0.1395 -0.0396  0.4243
   29SAPC  H18X 3946   1.018   0.770   8.506  0.4432  1.5556 -0.4553
   29SAPC  H18Y 3947   0.933   0.775   8.662 -0.0214  1.1854  1.1152
   29SAPC  H18Z 3948   0.970   0.933   8.586 -1.4369  0.5492 -0.6556
   30SAPC     N 3949   2.755   3.262   6.344  0.1620  0.6783 -0.0541
   30SAPC   C12 3950   2.895   3.321   6.328  0.5849 -0.8592 -0.5889
   30SAPC  H12A 3951   2.918   3.361   6.426 -0.6702  1.8560 -1.3117
   30SAPC  H12B 3952   2.884   3.403   6.259 -0.0581 -1.5131 -1.2812
   30SAPC   C13 3953   2.656   3.365   6.409  0.5811  0.5478 -0.7340
   30SAPC  H13A 3954   2.554   3.331   6.406  0.4990  0.8347 -1.2443
   30SAPC  H13B 3955   2.682   3.383   6.512  1.0541  0.1540 -0.7800
   30SAPC  H13C 3956   2.655   3.463   6.363 -1.2048  2.2236  2.4866
   30SAPC   C14 3957   2.698   3.228   6.210 -0.2417  0.0525  0.3303
   30SAPC  H14A 3958   2.699   3.310   6.139  2.8030 -0.5904 -0.5424
   30SAPC  H14B 3959   2.764   3.156   6.164 -0.4800  0.3679 -0.5269
   30SAPC  H14C 3960   2.603   3.182   6.229 -0.4706 -0.5505 -2.0037
   30SAPC   C15 3961   2.752   3.140   6.430  0.2094  0.4035  0.0545
   30SAPC  H15A 3962   2.778   3.154   6.534  0.0635 -0.4501  0.2088
   30SAPC  H15B 3963   2.650   3.104   6.432  0.5742 -0.6406  1.2421
   30SAPC  H15C 3964   2.819   3.068   6.385  1.0891  0.0133  1.9202
   30SAPC   C11 3965   3.010   3.224   6.288 -0.2973 -0.2891 -0.2575
   30SAPC  H11A 3966   3.037   3.157   6.372  0.4446 -0.0965 -0.3398
   30SAPC  H11B 3967   3.102   3.287   6.291 -0.3776 -0.1780  2.5267
   30SAPC     P 3968   3.019   3.005   6.149 -0.0896 -0.1067 -0.0761
   30SAPC   O13 3969   2.954   2.948   6.035  0.0397  0.3390  0.1569
   30SAPC   O14 3970   3.164   2.998   6.152 -0.5390 -0.2288  0.0922
   30SAPC   O12 3971   2.982   3.158   6.161  0.0638 -0.1430 -0.0351
   30SAPC   O11 3972   2.949   2.940   6.282 -0.5172 -0.2209 -0.5283
   30SAPC    C1 3973   3.021   2.839   6.350 -0.3218  0.9989  0.4080
   30SAPC    HA 3974   3.039   2.758   6.276  0.2151  0.5027  1.0702
   30SAPC    HB 3975   3.125   2.872   6.371 -0.6332  1.7532  0.8132
   30SAPC    C2 3976   2.942   2.790   6.477  0.4689 -0.7939  0.1416
   30SAPC    HS 3977   2.935   2.875   6.548  2.5747  1.3958 -2.0784
   30SAPC   O21 3978   3.020   2.682   6.535  0.1613 -0.4426 -0.2019
   30SAPC   C21 3979   3.123   2.709   6.608 -0.8323 -0.6598 -0.3681
   30SAPC   O22 3980   3.153   2.821   6.645 -0.3973 -0.3408  0.2801
   30SAPC   C22 3981   3.195   2.577   6.635  0.0656  0.5873 -0.4982
   30SAPC   H2R 3982   3.188   2.512   6.545 -3.6954  0.3947 -0.2192
   30SAPC   H2S 3983   3.298   2.600   6.668  0.3356 -0.8008 -0.3351
   30SAPC    C3 3984   2.797   2.743   6.437  0.0257  0.1459 -0.2877
   30SAPC    HX 3985   2.815   2.670   6.355 -0.7981 -1.9221  1.2585
   30SAPC    HY 3986   2.735   2.827   6.400 -1.4782 -1.2708 -1.1047
   30SAPC   O31 3987   2.720   2.674   6.535 -0.3650 -0.3134  0.5995
   30SAPC   C31 3988   2.667   2.748   6.637 -0.3320  0.2344 -0.3906
   30SAPC   O32 3989   2.696   2.864   6.654 -0.2607 -0.3300  0.3032
   30SAPC   C32 3990   2.564   2.664   6.702 -0.1054  0.0423 -0.3082
   30SAPC   H2X 3991   2.591   2.557   6.692  2.0393  0.6067 -1.1415
   30SAPC   H2Y 3992   2.468   2.674   6.646 -0.8645 -3.3616  0.1878
   30SAPC   C23 3993   3.116   2.481   6.731 -0.4413 -0.7178 -0.3363
   30SAPC   H3R 3994   3.188   2.397   6.742 -0.5384 -1.3153 -3.3937
   30SAPC   H3S 3995   3.030   2.429   6.684 -1.5457  0.5198  0.2683
   30SAPC   C24 3996   3.086   2.541   6.875 -0.1120  0.1602 -0.3476
   30SAPC   H4R 3997   3.005   2.617   6.866  0.6485  0.9130 -1.0123
   30SAPC   H4S 3998   3.173   2.598   6.912  0.2223 -0.2045 -0.5672
   30SAPC   C25 3999   3.033   2.431   6.966  0.4118  0.1343 -0.1183
   30SAPC   H5R 4000   2.970   2.358   6.912  0.7456  1.0531 -1.7982
   30SAPC   C26 4001   3.056   2.409   7.096 -0.1386 -0.4831  1.0493
   30SAPC   H6R 4002   3.031   2.315   7.148 -0.5388 -0.5983  0.6509
   30SAPC   C27 4003   3.138   2.509   7.175  0.4726  0.3887  0.5386
   30SAPC   H7R 4004   3.150   2.602   7.117  3.7119 -0.8897 -1.0503
   30SAPC   H7S 4005   3.237   2.459   7.183  0.0989 -0.6995 -1.1643
   30SAPC   C28 4006   3.096   2.549   7.312 -0.0527  0.1405  0.4228
   30SAPC   H8R 4007   3.083   2.657   7.332  0.2810  0.0337  1.2843
   30SAPC   C29 4008   3.074   2.470   7.421 -0.4465 -0.5619 -0.0920
   30SAPC   H9R 4009   3.052   2.525   7.513  2.0655  0.5904 -0.0908
   30SAPC  C210 4010   3.091   2.324   7.421 -0.1616 -0.8833 -0.5919
   30SAPC  H10R 4011   3.186   2.305   7.365  0.0996 -0.9452 -0.1309
   30SAPC  H10S 4012   3.016   2.273   7.357  1.0006 -0.7143 -2.1526
   30SAPC  C211 4013   3.074   2.253   7.552  0.4323 -0.4333  0.2225
   30SAPC  H11R 4014   2.977   2.210   7.579 -1.6456  2.0759 -2.5864
   30SAPC  C212 4015   3.177   2.234   7.633 -0.6790 -0.0115 -0.1850
   30SAPC  H12R 4016   3.165   2.189   7.733  1.5276  1.7747  0.9568
   30SAPC  C213 4017   3.319   2.282   7.608 -0.2678  0.4851 -0.7411
   30SAPC  H13R 4018   3.319   2.362   7.531 -0.5445  0.2955 -0.9369
   30SAPC  H13S 4019   3.376   2.196   7.566  1.5276  2.5006 -2.7166
   30SAPC  C214 4020   3.397   2.328   7.728  0.3116 -0.4013  0.4589
   30SAPC  H14R 4021   3.462   2.247   7.763  1.0574 -0.1238 -0.2535
   30SAPC  C215 4022   3.409   2.453   7.787  0.2289  0.6468 -0.1950
   30SAPC  H15R 4023   3.461   2.453   7.884  0.3794 -0.3518 -0.2634
   30SAPC  C216 4024   3.341   2.586   7.756  0.6488 -0.4035 -0.2654
   30SAPC  H16R 4025   3.302   2.582   7.652  0.0044  1.4892 -0.1303
   30SAPC  H16S 4026   3.417   2.667   7.760 -0.4094  0.5660  1.0215
   30SAPC  C217 4027   3.218   2.623   7.841  0.5818  0.1047 -0.3713
   30SAPC  H17R 4028   3.133   2.555   7.823  0.2558 -0.1767  1.8733
   30SAPC  H17S 4029   3.173   2.722   7.816 -3.0412 -1.3301 -0.1068
   30SAPC  C218 4030   3.250   2.624   7.987 -0.4071  0.7516  0.2503
   30SAPC  H18R 4031   3.292   2.524   8.009  0.1717  1.5610  3.3948
   30SAPC  H18S 4032   3.154   2.621   8.042  0.0951  0.3597  1.1303
   30SAPC  C219 4033   3.351   2.731   8.034 -0.6809 -0.3020  0.2525
   30SAPC  H19R 4034   3.304   2.831   8.024 -0.4718 -0.2495 -0.2612
   30SAPC  H19S 4035   3.442   2.740   7.971 -0.6905  2.6632  0.5327
   30SAPC  C220 4036   3.379   2.720   8.182 -0.5885  0.0828 -0.0764
   30SAPC  H20R 4037   3.439   2.629   8.205  0.2732  1.1929  2.4062
   30SAPC  H20S 4038   3.283   2.720   8.238  1.0622  1.6672  3.0146
   30SAPC  H20T 4039   3.436   2.805   8.226 -0.4389 -0.9296  1.7451
   30SAPC   C33 4040   2.528   2.710   6.847 -0.3279  0.4227 -0.3350
   30SAPC   H3X 4041   2.456   2.636   6.887  0.5035 -0.3805 -0.2936
   30SAPC   H3Y 4042   2.486   2.812   6.833 -1.0745  0.5248  2.2175
   30SAPC   C34 4043   2.650   2.693   6.932  0.3144 -0.4915  0.3818
   30SAPC   H4X 4044   2.727   2.769   6.905 -0.1341 -0.1961 -0.1003
   30SAPC   H4Y 4045   2.699   2.597   6.906 -1.2591 -1.2850  0.1956
   30SAPC   C35 4046   2.621   2.712   7.084  0.3814 -0.4423 -0.0371
   30SAPC   H5X 4047   2.549   2.795   7.097 -1.2291 -1.6036 -1.1267
   30SAPC   H5Y 4048   2.719   2.729   7.132 -0.2954  0.6625  0.9909
   30SAPC   C36 4049   2.561   2.592   7.154  0.3904  0.1623  0.1522
   30SAPC   H6X 4050   2.606   2.497   7.119  0.4062  0.4404 -0.5931
   30SAPC   H6Y 4051   2.451   2.590   7.135  0.6205 -0.5821 -1.2819
   30SAPC   C37 4052   2.570   2.587   7.303  0.0862 -0.3568 -0.3272
   30SAPC   H7X 4053   2.517   2.501   7.348 -0.7660 -0.9181 -2.3018
   30SAPC   H7Y 4054   2.519   2.673   7.352  1.0959 -0.3506  0.7779
   30SAPC   C38 4055   2.714   2.585   7.351  0.7380  0.8077  0.0845
   30SAPC   H8X 4056   2.741   2.693   7.356  0.2077  0.8922  2.5909
   30SAPC   H8Y 4057   2.776   2.544   7.268 -1.1394 -0.8866 -0.5521
   30SAPC   C39 4058   2.738   2.540   7.494 -0.2807 -0.0997  0.2167
   30SAPC   H9X 4059   2.845   2.546   7.521 -0.7673  1.6830  1.9635
   30SAPC   H9Y 4060   2.714   2.434   7.514  0.9311 -0.1145  1.7064
   30SAPC  C310 4061   2.659   2.632   7.592  0.3495 -0.1565 -0.4730
   30SAPC  H10X 4062   2.552   2.610   7.570  0.2916 -1.4164  0.8878
   30SAPC  H10Y 4063   2.683   2.738   7.571 -1.0015  0.5375  1.2058
   30SAPC  C311 4064   2.691   2.605   7.741  0.5641  0.5573 -0.6523
   30SAPC  H11X 4065   2.685   2.494   7.751  1.1527  0.5537 -0.3010
   30SAPC  H11Y 4066   2.618   2.663   7.801  0.4465  3.7769 -3.6201
   30SAPC  C312 4067   2.823   2.652   7.793 -0.7897  1.0787 -0.7542
   30SAPC  H12X 4068   2.842   2.760   7.809 -2.2811  1.3753 -0.8379
   30SAPC  H12Y 4069   2.912   2.623   7.733 -0.0835  2.5100 -0.4253
   30SAPC  C313 4070   2.845   2.577   7.930 -0.4193 -0.1383  0.0154
   30SAPC  H13X 4071   2.947   2.603   7.966 -0.2960  0.0742 -0.4705
   30SAPC  H13Y 4072   2.849   2.467   7.912  0.1403 -0.0812 -0.2598
   30SAPC  C314 4073   2.754   2.612   8.047 -0.3816 -0.1797  0.1221
   30SAPC  H14X 4074   2.647   2.610   8.019 -0.7820 -0.1695  1.5395
   30SAPC  H14Y 4075   2.779   2.717   8.076  0.1783 -0.1928 -0.2944
   30SAPC  C315 4076   2.774   2.516   8.163  0.9572  0.7396 -0.5064
   30SAPC  H15X 4077   2.879   2.519   8.200  1.3681  1.8257 -1.6899
   30SAPC  H15Y 4078   2.758   2.414   8.123  1.6807  0.7287 -0.7686
   30SAPC  C316 4079   2.683   2.541   8.278 -0.4319 -0.1145 -0.1090
   30SAPC  H16X 4080   2.708   2.460   8.351  2.3972  0.4974 -0.2576
   30SAPC  H16Y 4081   2.578   2.540   8.244  0.3283 -0.7841 -2.6321
   30SAPC  C317 4082   2.720   2.670   8.353 -0.3331  0.1340 -0.0334
   30SAPC  H17X 4083   2.716   2.752   8.279  3.6409  1.4531  0.9480
   30SAPC  H17Y 4084   2.829   2.664   8.377 -0.5522 -2.8284  0.5920
   30SAPC  C318 4085   2.622   2.693   8.468 -0.3727 -0.6679  0.0504
   30SAPC  H18X 4086   2.647   2.786   8.523 -1.5057 -0.5261  0.3495
   30SAPC  H18Y 4087   2.619   2.598   8.526 -0.9474 -1.5386 -1.3482
   30SAPC  H18Z 4088   2.518   2.703   8.430 -0.7730 -1.9381  0.7412
   31SAPC     N 4089   3.648   0.749   5.882  0.3713 -0.0698 -0.3650
   31SAPC   C12 4090   3.709   0.686   6.012  0.1374  0.6137 -1.1676
   31SAPC  H12A 4091   3.814   0.713   6.013 -0.3120  2.5381  1.3359
   31SAPC  H12B 4092   3.705   0.580   5.990  0.0522  0.5503 -0.8454
   31SAPC   C13 4093   3.508   0.708   5.872 -0.4055 -0.3902 -0.5092
   31SAPC  H13A 4094   3.458   0.746   5.784 -0.2549 -0.4375 -0.6152
   31SAPC  H13B 4095   3.518   0.600   5.873  0.8062 -0.3166 -1.7249
   31SAPC  H13C 4096   3.453   0.733   5.962 -3.0757 -0.4697 -2.0386
   31SAPC   C14 4097   3.661   0.899   5.882 -0.2254  0.5956  0.0025
   31SAPC  H14A 4098   3.641   0.938   5.981  0.1330 -0.9221  0.7023
   31SAPC  H14B 4099   3.760   0.932   5.857  0.4862 -0.0471  1.8671
   31SAPC  H14C 4100   3.593   0.934   5.805 -1.7084 -1.2091  0.4222
   31SAPC   C15 4101   3.722   0.689   5.763 -0.0815 -0.0940  0.0850
   31SAPC  H15A 4102   3.678   0.740   5.679  0.1121 -0.1418 -0.0454
   31SAPC  H15B 4103   3.825   0.715   5.779 -0.6685  2.1393  0.5974
   31SAPC  H15C 4104   3.703   0.582   5.769  1.9158 -0.5054 -0.2805
   31SAPC   C11 4105   3.635   0.717   6.152  0.2117 -0.0549 -0.9818
   31SAPC  H11A 4106   3.705   0.671   6.225  0.3503 -2.4933 -2.5315
   31SAPC  H11B 4107   3.534   0.671   6.155 -0.2298  0.8866 -0.9554
   31SAPC     P 4108   3.487   0.935   6.202 -0.0025  0.2284  0.1282
   31SAPC   O13 4109   3.511   1.083   6.183  0.0141 -0.3470 -0.3276
   31SAPC   O14 4110   3.383   0.873   6.115  0.7390 -0.2205 -0.1940
   31SAPC   O12 4111   3.627   0.858   6.186 -0.3182 -0.1663 -0.0951
   31SAPC   O11 4112   3.456   0.898   6.354 -0.0502  0.2207  0.0297
   31SAPC    C1 4113   3.551   0.937   6.450  0.2170 -0.0802 -0.4877
   31SAPC    HA 4114   3.644   0.877   6.438 -0.2105 -0.9561  0.4027
   31SAPC    HB 4115   3.587   1.042   6.450 -1.5936  0.5665 -0.4125
   31SAPC    C2 4116   3.494   0.911   6.590 -0.1922  0.2736 -0.1764
   31SAPC    HS 4117   3.470   0.802   6.589 -0.4625  0.3201  0.5168
   31SAPC   O21 4118   3.377   0.988   6.616 -0.8444 -0.5516  0.8085
   31SAPC   C21 4119   3.260   0.926   6.603 -0.5932  0.3115  0.3250
   31SAPC   O22 4120   3.237   0.816   6.548  0.0187  0.0694 -0.5625
   31SAPC   C22 4121   3.151   1.020   6.652 -0.2953  0.1396  0.2708
   31SAPC   H2R 4122   3.197   1.078   6.735  0.8052 -1.6545  0.9882
   31SAPC   H2S 4123   3.137   1.090   6.568 -0.2068  0.2184  0.3219
   31SAPC    C3 4124   3.589   0.947   6.707 -0.3112  0.3875  0.4342
   31SAPC    HX 4125   3.547   0.920   6.806  1.4143  0.0647  1.1075
   31SAPC    HY 4126   3.590   1.058   6.700  0.2845  0.3254 -0.6936
   31SAPC   O31 4127   3.711   0.872   6.686 -0.0669  0.3497  0.4970
   31SAPC   C31 4128   3.824   0.935   6.731  0.7062  0.4632 -0.0923
   31SAPC   O32 4129   3.832   1.051   6.760  0.2916  0.4670 -0.2189
   31SAPC   C32 4130   3.943   0.834   6.752  0.8166 -0.2943 -0.4370
   31SAPC   H2X 4131   4.023   0.907   6.777 -1.4174  2.6881 -1.3729
   31SAPC   H2Y 4132   3.966   0.793   6.651  1.5110 -1.1925  0.0679
   31SAPC   C23 4133   3.020   0.951   6.696 -0.1212 -0.4417  0.1665
   31SAPC   H3R 4134   2.983   0.884   6.616  0.9038  0.3500 -1.0090
   31SAPC   H3S 4135   2.946   1.032   6.713 -1.7718 -1.4088 -1.9549
   31SAPC   C24 4136   3.020   0.865   6.824  0.0079 -0.2759  0.2890
   31SAPC   H4R 4137   3.112   0.805   6.842  0.3361  0.4374  1.0825
   31SAPC   H4S 4138   2.939   0.790   6.816  1.8571 -2.2299 -1.4776
   31SAPC   C25 4139   3.006   0.956   6.944  0.4898  0.0838  0.3658
   31SAPC   H5R 4140   3.094   1.021   6.953  0.2029  0.5376 -0.0615
   31SAPC   C26 4141   2.895   0.985   7.009  0.0138  0.2230 -0.2313
   31SAPC   H6R 4142   2.904   1.040   7.104  1.2915  1.0178 -0.7759
   31SAPC   C27 4143   2.762   0.930   6.980 -0.1352 -0.6305  0.1648
   31SAPC   H7R 4144   2.750   0.843   7.048  2.4659 -0.2912  1.1961
   31SAPC   H7S 4145   2.757   0.904   6.872  0.3677  1.4894 -0.4214
   31SAPC   C28 4146   2.654   1.037   6.987 -0.2731 -0.7772 -0.0215
   31SAPC   H8R 4147   2.652   1.115   6.910 -0.7571 -0.1118  0.6566
   31SAPC   C29 4148   2.556   1.045   7.083 -0.0190 -0.2215  0.2658
   31SAPC   H9R 4149   2.497   1.137   7.084  1.5789  0.8985 -1.2178
   31SAPC  C210 4150   2.553   0.959   7.205  0.4855  0.2756 -0.0358
   31SAPC  H10R 4151   2.553   0.849   7.190 -1.4686  0.3299 -0.7406
   31SAPC  H10S 4152   2.453   0.978   7.249  0.7574  2.6677 -0.3084
   31SAPC  C211 4153   2.653   0.965   7.313 -0.2174 -0.3838 -0.4111
   31SAPC  H11R 4154   2.753   0.931   7.282  0.5587  1.3885  0.0182
   31SAPC  C212 4155   2.638   0.998   7.446 -0.1310  0.4908 -0.8302
   31SAPC  H12R 4156   2.730   0.991   7.507  0.5043  1.7165 -1.6061
   31SAPC  C213 4157   2.504   1.031   7.512  0.2002 -0.8793 -0.3969
   31SAPC  H13R 4158   2.459   0.930   7.525 -1.0096 -0.2418  0.5334
   31SAPC  H13S 4159   2.443   1.088   7.439 -0.7981  0.2190  1.2353
   31SAPC  C214 4160   2.504   1.108   7.635 -0.5491 -0.5725 -0.6804
   31SAPC  H14R 4161   2.498   1.217   7.623 -1.9703 -0.7155 -1.4462
   31SAPC  C215 4162   2.528   1.056   7.764 -0.4693  0.4714 -0.4655
   31SAPC  H15R 4163   2.542   1.127   7.847  1.1876  1.1824 -1.2989
   31SAPC  C216 4164   2.562   0.913   7.787  0.2104 -0.9459 -0.1045
   31SAPC  H16R 4165   2.577   0.862   7.690  2.4231  3.5523 -2.4479
   31SAPC  H16S 4166   2.470   0.877   7.838  1.4359  0.9018  3.8292
   31SAPC  C217 4167   2.698   0.895   7.868  1.0633 -0.2009  0.2690
   31SAPC  H17R 4168   2.765   0.965   7.814  1.6088 -0.8131  0.1321
   31SAPC  H17S 4169   2.716   0.791   7.833 -1.6348  0.4173 -3.6362
   31SAPC  C218 4170   2.697   0.903   8.024 -0.1415  0.4510 -0.1216
   31SAPC  H18R 4171   2.602   0.857   8.059 -0.0650 -0.0605 -0.5781
   31SAPC  H18S 4172   2.700   1.008   8.060 -0.5284  0.4640 -0.1309
   31SAPC  C219 4173   2.826   0.845   8.079  0.1001  0.6723 -0.5036
   31SAPC  H19R 4174   2.910   0.907   8.043 -0.4029  1.1208 -0.9329
   31SAPC  H19S 4175   2.830   0.740   8.044  0.0680 -0.3262  2.2796
   31SAPC  C220 4176   2.834   0.860   8.232  0.3831 -0.5885 -0.0297
   31SAPC  H20R 4177   2.745   0.814   8.281 -0.1493  0.6475  0.2112
   31SAPC  H20S 4178   2.827   0.970   8.246 -2.1256 -0.5388 -1.1327
   31SAPC  H20T 4179   2.922   0.812   8.279  0.8539  1.0122  0.8185
   31SAPC   C33 4180   3.912   0.719   6.850 -0.5632  0.2060 -0.0107
   31SAPC   H3X 4181   4.003   0.660   6.874 -0.7589  0.6450  2.0277
   31SAPC   H3Y 4182   3.840   0.647   6.804  1.1726 -0.6848 -1.4376
   31SAPC   C34 4183   3.855   0.763   6.982 -0.5154 -0.6773 -0.1292
   31SAPC   H4X 4184   3.770   0.831   6.959  0.7958  0.6469 -1.2363
   31SAPC   H4Y 4185   3.930   0.828   7.032 -1.2389 -0.6905  1.0076
   31SAPC   C35 4186   3.820   0.656   7.088  0.6076  0.1022 -0.7589
   31SAPC   H5X 4187   3.911   0.598   7.112  1.3384  2.6275  3.8898
   31SAPC   H5Y 4188   3.748   0.582   7.048 -1.1976  1.1832  0.3284
   31SAPC   C36 4189   3.767   0.715   7.225 -0.7929  0.2843  0.9790
   31SAPC   H6X 4190   3.699   0.801   7.207  0.3330  0.4569 -3.4135
   31SAPC   H6Y 4191   3.860   0.752   7.274 -0.0321  1.4225 -1.2042
   31SAPC   C37 4192   3.691   0.605   7.303 -0.2617  0.2578 -0.0962
   31SAPC   H7X 4193   3.752   0.516   7.329 -2.3118 -1.1039  0.2810
   31SAPC   H7Y 4194   3.610   0.573   7.234  0.5332  0.3545 -1.0795
   31SAPC   C38 4195   3.635   0.654   7.440  0.0247  0.2025  0.5757
   31SAPC   H8X 4196   3.586   0.572   7.497  0.5007 -0.5170 -0.0385
   31SAPC   H8Y 4197   3.556   0.729   7.415 -0.6717 -0.8015 -0.3310
   31SAPC   C39 4198   3.741   0.719   7.532 -0.2151 -0.3532 -0.3672
   31SAPC   H9X 4199   3.764   0.817   7.484 -0.0285 -0.2318 -0.0331
   31SAPC   H9Y 4200   3.833   0.657   7.535  0.0524  0.0632  2.0000
   31SAPC  C310 4201   3.714   0.722   7.683  0.2380 -0.0939 -0.3435
   31SAPC  H10X 4202   3.628   0.788   7.706  0.8300  0.8171 -0.6862
   31SAPC  H10Y 4203   3.807   0.758   7.732  1.4793 -1.7740 -1.3467
   31SAPC  C311 4204   3.718   0.586   7.750 -0.4784 -0.5451  0.5465
   31SAPC  H11X 4205   3.823   0.551   7.753  0.4548  1.9781 -0.1804
   31SAPC  H11Y 4206   3.674   0.507   7.686 -0.0058 -0.4575  0.1051
   31SAPC  C312 4207   3.657   0.575   7.887  0.1574  0.0421 -0.0160
   31SAPC  H12X 4208   3.656   0.469   7.922 -2.9309  0.6443  2.1364
   31SAPC  H12Y 4209   3.554   0.617   7.879 -0.0916 -0.1678  1.7643
   31SAPC  C313 4210   3.725   0.655   7.997  0.8577  0.0483 -0.1348
   31SAPC  H13X 4211   3.735   0.760   7.961  1.3004 -0.5500 -1.8302
   31SAPC  H13Y 4212   3.828   0.620   8.018  1.1167  0.8179 -0.0948
   31SAPC  C314 4213   3.649   0.657   8.132  0.6117 -0.6100  0.1537
   31SAPC  H14X 4214   3.611   0.554   8.154 -1.6671 -0.3137 -1.9127
   31SAPC  H14Y 4215   3.545   0.695   8.124  1.3640  1.2917 -1.2415
   31SAPC  C315 4216   3.740   0.697   8.248  0.0935  0.1931 -0.3447
   31SAPC  H15X 4217   3.787   0.797   8.232  1.7881 -0.5875 -0.4018
   31SAPC  H15Y 4218   3.826   0.627   8.252  0.6975  0.7503 -2.3509
   31SAPC  C316 4219   3.659   0.709   8.374  0.2724 -0.1779  0.6331
   31SAPC  H16X 4220   3.561   0.758   8.357  2.4316  3.5873 -2.6302
   31SAPC  H16Y 4221   3.723   0.773   8.439 -0.9541  2.5052 -0.6546
   31SAPC  C317 4222   3.645   0.573   8.447  0.5408 -0.0972  0.2699
   31SAPC  H17X 4223   3.611   0.499   8.372  0.8721  1.1650 -1.1881
   31SAPC  H17Y 4224   3.564   0.584   8.522 -0.9709  1.1524 -1.4533
   31SAPC  C318 4225   3.778   0.529   8.507  0.4798  0.8830  0.2748
   31SAPC  H18X 4226   3.816   0.613   8.570  0.6371  2.0777 -1.3575
   31SAPC  H18Y 4227   3.855   0.491   8.437 -0.2605 -1.1881  0.5055
   31SAPC  H18Z 4228   3.754   0.451   8.582  3.0119 -0.5627 -0.3204
   32SAPC     N 4229   0.717   2.300   6.072  0.2981 -0.3917  0.5202
   32SAPC   C12 4230   0.761   2.338   6.214  0.4231 -0.3125 -0.2330
   32SAPC  H12A 4231   0.795   2.251   6.268  2.3257  2.0482  2.7211
   32SAPC  H12B 4232   0.676   2.379   6.268  0.5532  1.1827 -1.1156
   32SAPC   C13 4233   0.812   2.205   6.002 -0.2488 -0.3223  0.2795
   32SAPC  H13A 4234   0.765   2.191   5.906  0.3167 -0.8134  0.0687
   32SAPC  H13B 4235   0.905   2.254   5.980  1.5370 -3.5846 -0.0392
   32SAPC  H13C 4236   0.832   2.114   6.056  1.5594 -0.1552 -0.0503
   32SAPC   C14 4237   0.593   2.235   6.085 -0.4140  0.1906  0.2232
   32SAPC  H14A 4238   0.518   2.275   6.151 -3.5933 -2.2194 -1.6350
   32SAPC  H14B 4239   0.552   2.214   5.987  3.2381 -0.2284 -1.3882
   32SAPC  H14C 4240   0.616   2.136   6.123  0.7615 -0.1110 -1.1923
   32SAPC   C15 4241   0.704   2.421   5.985 -1.3806  0.0726 -0.5578
   32SAPC  H15A 4242   0.660   2.496   6.049 -0.7485 -0.2934  0.3365
   32SAPC  H15B 4243   0.800   2.459   5.954 -0.2304 -2.5941 -0.5299
   32SAPC  H15C 4244   0.667   2.390   5.888 -2.2610  1.5007 -0.7026
   32SAPC   C11 4245   0.871   2.453   6.222  0.5882 -0.0786 -0.1827
   32SAPC  H11A 4246   0.951   2.424   6.151  0.5199  1.0349 -0.7313
   32SAPC  H11B 4247   0.923   2.446   6.320 -1.5824  0.3490  1.0631
   32SAPC     P 4248   0.710   2.640   6.273  0.3177  0.0869  0.2287
   32SAPC   O13 4249   0.746   2.771   6.324 -0.7377  0.2273  0.2277
   32SAPC   O14 4250   0.597   2.638   6.176  0.4042 -0.1073  0.0922
   32SAPC   O12 4251   0.836   2.586   6.203  0.2022  0.2915  0.3727
   32SAPC   O11 4252   0.680   2.545   6.392 -0.4773 -0.4126 -0.3774
   32SAPC    C1 4253   0.758   2.557   6.520  0.5939 -0.0725  0.2373
   32SAPC    HA 4254   0.763   2.456   6.566 -0.5079 -0.4729 -0.4936
   32SAPC    HB 4255   0.857   2.608   6.514  0.4069  0.3387  0.5723
   32SAPC    C2 4256   0.682   2.651   6.616  0.0511 -0.6478  0.4148
   32SAPC    HS 4257   0.688   2.756   6.580  0.1307 -1.3762 -1.8355
   32SAPC   O21 4258   0.744   2.634   6.746  0.2355 -0.6558 -0.2885
   32SAPC   C21 4259   0.744   2.737   6.823 -0.1703  0.1749 -0.2050
   32SAPC   O22 4260   0.691   2.842   6.792  0.2303 -0.5296 -0.0462
   32SAPC   C22 4261   0.837   2.705   6.941  0.2395 -0.0366  0.7465
   32SAPC   H2R 4262   0.901   2.619   6.912 -0.5791  0.0792 -1.5552
   32SAPC   H2S 4263   0.905   2.793   6.954  1.6828 -1.0393  0.2765
   32SAPC    C3 4264   0.528   2.617   6.622 -0.1939 -0.5405 -0.2632
   32SAPC    HX 4265   0.527   2.506   6.619  0.8245 -0.5341 -2.0577
   32SAPC    HY 4266   0.475   2.644   6.529 -1.6773  1.3776  1.0555
   32SAPC   O31 4267   0.466   2.667   6.740  0.2723 -0.4460 -0.2769
   32SAPC   C31 4268   0.404   2.769   6.719  0.5609 -0.2139  0.3689
   32SAPC   O32 4269   0.421   2.840   6.616  0.7830  0.9301  0.2275
   32SAPC   C32 4270   0.315   2.791   6.839  0.2125  0.6860  0.6432
   32SAPC   H2X 4271   0.271   2.891   6.819  0.1531  0.4990 -0.2030
   32SAPC   H2Y 4272   0.390   2.804   6.920  0.9581 -0.3134  0.1394
   32SAPC   C23 4273   0.757   2.695   7.069 -0.0899  0.0141 -0.2274
   32SAPC   H3R 4274   0.687   2.610   7.085  0.3446 -0.1237  1.0413
   32SAPC   H3S 4275   0.684   2.779   7.074 -0.9507 -0.7703  0.9887
   32SAPC   C24 4276   0.851   2.694   7.191  0.4318  0.1894 -0.5136
   32SAPC   H4R 4277   0.945   2.751   7.173 -0.1562  1.5969  0.6136
   32SAPC   H4S 4278   0.877   2.587   7.207  1.7523  0.5746  0.0891
   32SAPC   C25 4279   0.776   2.749   7.310  0.0777  0.9696 -0.2372
   32SAPC   H5R 4280   0.713   2.833   7.279 -2.1102 -1.1629 -2.0263
   32SAPC   C26 4281   0.766   2.700   7.437  0.2326  0.0857 -0.3395
   32SAPC   H6R 4282   0.709   2.762   7.508 -1.4670 -0.5530 -1.0824
   32SAPC   C27 4283   0.832   2.576   7.499 -0.5564 -0.2369  0.1798
   32SAPC   H7R 4284   0.912   2.610   7.567 -1.0076  0.8296  0.1998
   32SAPC   H7S 4285   0.884   2.508   7.428 -1.2033 -0.8009  0.2356
   32SAPC   C28 4286   0.738   2.490   7.582 -0.5495  0.4135  0.0502
   32SAPC   H8R 4287   0.654   2.448   7.523  0.7831 -1.8687 -0.3462
   32SAPC   C29 4288   0.739   2.472   7.720 -0.1549 -0.3990  0.3103
   32SAPC   H9R 4289   0.675   2.390   7.758 -0.8439 -0.1140 -0.2083
   32SAPC  C210 4290   0.827   2.530   7.823 -0.8442  0.6131 -0.2369
   32SAPC  H10R 4291   0.924   2.553   7.773 -1.1940 -1.7186 -2.1905
   32SAPC  H10S 4292   0.849   2.451   7.898 -0.0831 -0.7415 -1.8181
   32SAPC  C211 4293   0.771   2.657   7.886  0.2904  0.9301  0.7921
   32SAPC  H11R 4294   0.756   2.740   7.815  1.7973 -2.7835 -4.4420
   32SAPC  C212 4295   0.757   2.680   8.014  0.0181 -0.2996 -0.1958
   32SAPC  H12R 4296   0.717   2.778   8.045  2.0296  0.0131  1.6853
   32SAPC  C213 4297   0.783   2.599   8.136 -0.9195  0.3869 -0.5774
   32SAPC  H13R 4298   0.745   2.496   8.120  0.6074 -0.2347 -0.3775
   32SAPC  H13S 4299   0.713   2.636   8.214  0.8518  0.4143  1.0675
   32SAPC  C214 4300   0.925   2.603   8.194  0.5516  0.1264 -0.9481
   32SAPC  H14R 4301   0.997   2.556   8.126 -0.2340 -0.6560 -1.2565
   32SAPC  C215 4302   0.978   2.666   8.303  1.0238  0.3705  0.3098
   32SAPC  H15R 4303   1.086   2.654   8.322  1.1457 -0.3484 -0.7527
   32SAPC  C216 4304   0.907   2.747   8.413 -0.3328  0.4803  0.2177
   32SAPC  H16R 4305   0.797   2.742   8.395 -0.1192 -3.9701 -1.0529
   32SAPC  H16S 4306   0.943   2.852   8.407  1.0273  0.1151  1.3468
   32SAPC  C217 4307   0.948   2.692   8.552  1.2794  0.4281 -0.2508
   32SAPC  H17R 4308   0.984   2.587   8.554 -1.9773 -0.8101  1.7945
   32SAPC  H17S 4309   0.849   2.678   8.600 -0.4105  1.0245 -3.3297
   32SAPC  C218 4310   1.031   2.794   8.626  0.1570 -0.5235 -0.0200
   32SAPC  H18R 4311   1.123   2.808   8.565 -0.3695  0.7686 -0.5484
   32SAPC  H18S 4312   1.062   2.753   8.724 -0.2040  1.1629  0.8228
   32SAPC  C219 4313   0.979   2.941   8.647 -0.3791 -0.3668 -0.4661
   32SAPC  H19R 4314   0.889   2.936   8.712 -0.3699 -0.9353 -0.4906
   32SAPC  H19S 4315   0.942   2.994   8.556  0.3420 -1.7890 -1.6430
   32SAPC  C220 4316   1.080   3.031   8.720  0.0141 -0.0559 -0.0822
   32SAPC  H20R 4317   1.069   3.135   8.683  1.3955  0.2935  0.4228
   32SAPC  H20S 4318   1.184   2.997   8.700  0.3305  0.6310  0.3645
   32SAPC  H20T 4319   1.054   3.041   8.828 -1.2779 -2.0663 -0.1557
   32SAPC   C33 4320   0.195   2.691   6.858 -0.1499  0.4562  0.2357
   32SAPC   H3X 4321   0.229   2.599   6.912 -1.3149  0.8859  1.7657
   32SAPC   H3Y 4322   0.165   2.660   6.756  0.7744 -0.6448  0.2747
   32SAPC   C34 4323   0.069   2.747   6.928 -0.3251 -0.5527 -0.0529
   32SAPC   H4X 4324  -0.017   2.679   6.911 -2.1013  1.7309 -0.6701
   32SAPC   H4Y 4325   0.042   2.836   6.867 -1.6265 -1.7644 -1.3214
   32SAPC   C35 4326   0.092   2.779   7.071  0.3987 -0.5207  0.3245
   32SAPC   H5X 4327   0.167   2.860   7.076 -0.2439  0.1098 -0.1539
   32SAPC   H5Y 4328   0.124   2.687   7.125 -0.8466 -1.7684 -0.9857
   32SAPC   C36 4329  -0.039   2.829   7.129 -0.1117  0.2339 -0.5828
   32SAPC   H6X 4330  -0.132   2.786   7.086  0.1335  0.4887 -1.3811
   32SAPC   H6Y 4331  -0.040   2.934   7.094  0.1744 -0.0482 -1.4663
   32SAPC   C37 4332  -0.049   2.832   7.282  0.2021 -0.0437  0.3602
   32SAPC   H7X 4333   0.021   2.908   7.321 -0.4514  0.7383  0.0542
   32SAPC   H7Y 4334  -0.004   2.744   7.331  2.2112  1.8178  2.0803
   32SAPC   C38 4335  -0.192   2.869   7.333  0.0070 -0.5250  0.3217
   32SAPC   H8X 4336  -0.257   2.780   7.321  0.3842 -0.8103  0.3595
   32SAPC   H8Y 4337  -0.218   2.954   7.265  0.3640 -0.7705 -0.1265
   32SAPC   C39 4338  -0.182   2.934   7.474  0.6390 -0.2923  0.7555
   32SAPC   H9X 4339  -0.260   3.012   7.485  0.0630 -0.0381 -3.4462
   32SAPC   H9Y 4340  -0.086   2.984   7.499 -0.3861  2.3968 -0.2440
   32SAPC  C310 4341  -0.200   2.823   7.576  0.1239 -0.5118 -0.0074
   32SAPC  H10X 4342  -0.100   2.778   7.591  0.9189  0.9824 -0.5306
   32SAPC  H10Y 4343  -0.273   2.753   7.531 -2.1777  0.6072  1.8021
   32SAPC  C311 4344  -0.250   2.867   7.712  0.0264  0.0503  0.0531
   32SAPC  H11X 4345  -0.274   2.770   7.759 -0.3771  0.4963  0.8013
   32SAPC  H11Y 4346  -0.343   2.921   7.684  0.0410 -0.4684 -1.0254
   32SAPC  C312 4347  -0.152   2.950   7.796  0.2891 -0.0763  0.6097
   32SAPC  H12X 4348  -0.119   3.046   7.751  2.0816 -0.6548  0.5932
   32SAPC  H12Y 4349  -0.061   2.886   7.801  0.1772 -0.3113 -0.1656
   32SAPC  C313 4350  -0.210   2.980   7.931  0.1921  0.1273  0.6473
   32SAPC  H13X 4351  -0.264   2.893   7.973 -0.2754  0.2831  0.3722
   32SAPC  H13Y 4352  -0.285   3.061   7.918  1.0996  0.6256 -1.9884
   32SAPC  C314 4353  -0.102   3.010   8.029  0.4917  0.5044 -0.3748
   32SAPC  H14X 4354  -0.040   3.088   7.980 -0.1026 -1.2699 -4.3199
   32SAPC  H14Y 4355  -0.050   2.921   8.070 -0.7806  0.7472  1.9469
   32SAPC  C315 4356  -0.156   3.075   8.160  0.4581 -0.0315  0.1364
   32SAPC  H15X 4357  -0.206   2.989   8.210  1.8621 -1.3952 -0.6960
   32SAPC  H15Y 4358  -0.230   3.156   8.145  0.2564 -0.2167  0.1117
   32SAPC  C316 4359  -0.045   3.132   8.245 -0.5121  0.2877  0.6127
   32SAPC  H16X 4360   0.013   3.215   8.198 -0.6784  2.2897  3.7220
   32SAPC  H16Y 4361   0.027   3.049   8.261 -0.5024 -0.1530 -1.3713
   32SAPC  C317 4362  -0.104   3.181   8.383  0.0222 -0.4455 -0.4319
   32SAPC  H17X 4363  -0.184   3.114   8.420  0.1631  0.7744  2.2547
   32SAPC  H17Y 4364  -0.158   3.273   8.351 -0.0810 -0.3769 -0.0619
   32SAPC  C318 4365   0.003   3.220   8.491  0.1206 -0.7045  0.3163
   32SAPC  H18X 4366  -0.046   3.228   8.590 -1.8943  1.6262 -0.7628
   32SAPC  H18Y 4367   0.053   3.319   8.480 -0.8539 -0.1986  0.3659
   32SAPC  H18Z 4368   0.081   3.141   8.500  2.1591  1.0199 -1.2221
   33POPC     N 4369   3.651   4.091  10.972  0.5939  0.0420  0.4029
   33POPC   C12 4370   3.601   4.071  10.834  0.7288 -0.1067 -0.2300
   33POPC  H12A 4371   3.497   4.044  10.822  1.1870 -2.5298  0.7620
   33POPC  H12B 4372   3.657   3.984  10.805  0.0866 -0.5375 -0.2063
   33POPC   C13 4373   3.577   4.202  11.037  0.4476 -0.8034 -0.9331
   33POPC  H13A 4374   3.587   4.189  11.144 -1.9474  3.4678  0.0157
   33POPC  H13B 4375   3.623   4.297  11.012 -0.6424 -0.7405 -2.8983
   33POPC  H13C 4376   3.474   4.214  11.007  0.5639  3.1613 -0.3037
   33POPC   C14 4377   3.627   3.972  11.051  0.2650 -0.4780 -0.1992
   33POPC  H14A 4378   3.654   3.886  10.991  0.0715 -0.4384 -0.3446
   33POPC  H14B 4379   3.674   3.979  11.148  0.6499  2.2353 -0.5041
   33POPC  H14C 4380   3.522   3.963  11.077  0.4581  0.5692  1.0860
   33POPC   C15 4381   3.793   4.118  10.976 -0.0503 -0.4956 -0.0418
   33POPC  H15A 4382   3.829   4.106  11.077  1.0458 -3.3429 -0.6820
   33POPC  H15B 4383   3.808   4.218  10.940  0.8491 -0.9220 -0.8916
   33POPC  H15C 4384   3.852   4.049  10.917  4.3238  2.9315 -0.1677
   33POPC   C11 4385   3.617   4.200  10.744 -0.3495  1.0387  0.5585
   33POPC  H11A 4386   3.625   4.163  10.639 -0.2189  0.4441  0.7783
   33POPC  H11B 4387   3.714   4.250  10.768 -0.3492  0.5731  1.5416
   33POPC     P 4388   3.374   4.274  10.686 -0.0321  0.0180 -0.0859
   33POPC   O13 4389   3.274   4.361  10.757 -0.0082 -0.0359  0.4144
   33POPC   O14 4390   3.344   4.128  10.689  0.0054 -0.2393 -0.0525
   33POPC   O12 4391   3.510   4.290  10.755 -0.4110  0.3749 -0.5636
   33POPC   O11 4392   3.408   4.317  10.535 -0.0442 -0.0497  0.1648
   33POPC    C1 4393   3.458   4.442  10.512  0.6238 -0.2658  0.1971
   33POPC    HA 4394   3.379   4.514  10.542  0.7537  0.1337 -0.4074
   33POPC    HB 4395   3.553   4.453  10.569  0.5710 -0.0716  0.2502
   33POPC    C2 4396   3.488   4.443  10.360 -0.4614  0.1770 -0.1825
   33POPC    HS 4397   3.584   4.495  10.343  0.0395 -0.3086  1.0066
   33POPC   O21 4398   3.385   4.517  10.294 -0.1608 -0.3625  0.1469
   33POPC   C21 4399   3.389   4.645  10.305 -0.2177  0.9157 -0.2935
   33POPC   O22 4400   3.477   4.714  10.355 -0.2894 -0.3961  0.3982
   33POPC   C22 4401   3.263   4.699  10.237  0.2454 -0.0121  0.7875
   33POPC   H2R 4402   3.239   4.805  10.260 -0.7785 -0.1367  0.3028
   33POPC   H2S 4403   3.178   4.635  10.271 -0.0200 -1.3942 -2.1852
   33POPC    C3 4404   3.509   4.307  10.289 -0.5426 -0.3598 -0.3894
   33POPC    HX 4405   3.414   4.255  10.314 -1.9699  2.7686  1.2704
   33POPC    HY 4406   3.588   4.238  10.327 -0.4656 -0.2897 -0.4215
   33POPC   O31 4407   3.509   4.317  10.151  0.6481 -0.2832  0.2441
   33POPC   C31 4408   3.621   4.365  10.101  0.1375 -0.8867  0.4311
   33POPC   O32 4409   3.710   4.422  10.162 -0.1604 -0.1617  0.7579
   33POPC   C32 4410   3.610   4.354   9.950 -0.3578 -0.0461 -0.1153
   33POPC   H2X 4411   3.520   4.416   9.926 -0.1321  0.1804 -0.3823
   33POPC   H2Y 4412   3.575   4.251   9.927  1.6270 -0.2823 -2.4696
   33POPC   C23 4413   3.270   4.674  10.084  0.4649  0.2523  0.4677
   33POPC   H3R 4414   3.248   4.566  10.072  1.9004 -0.1364  1.1270
   33POPC   H3S 4415   3.364   4.705  10.034  0.5126  1.4450  1.2482
   33POPC   C24 4416   3.157   4.748  10.009  0.3878  0.0273 -0.2827
   33POPC   H4R 4417   3.180   4.856  10.024 -0.0675  0.2286 -0.9930
   33POPC   H4S 4418   3.061   4.735  10.063  1.5367 -1.9570  1.4497
   33POPC   C25 4419   3.157   4.728   9.857 -0.4844 -0.3773 -0.4588
   33POPC   H5R 4420   3.098   4.636   9.834 -1.5792  0.0068  0.7031
   33POPC   H5S 4421   3.260   4.717   9.818 -0.2636  0.2899 -0.0720
   33POPC   C26 4422   3.085   4.835   9.780 -0.2280  0.2363  0.1067
   33POPC   H6R 4423   3.133   4.933   9.798 -1.5759  0.8500  0.5199
   33POPC   H6S 4424   2.982   4.857   9.815 -1.3776 -3.3138 -0.5850
   33POPC   C27 4425   3.089   4.822   9.622 -0.8445  0.2346 -0.7233
   33POPC   H7R 4426   3.015   4.745   9.591  0.3438 -0.6723 -1.4485
   33POPC   H7S 4427   3.187   4.785   9.585  0.2031  0.9294  1.2042
   33POPC   C28 4428   3.077   4.956   9.554  0.2569  0.3390  0.1580
   33POPC   H8R 4429   3.136   4.945   9.460 -1.5685  0.1464 -1.0240
   33POPC   H8S 4430   3.121   5.039   9.612  0.2301  0.6136 -0.2069
   33POPC   C29 4431   2.938   4.994   9.529  0.2207  0.1717 -0.2550
   33POPC   H91 4432   2.869   4.960   9.608 -0.4039 -0.9419 -1.2477
   33POPC  C210 4433   2.900   5.049   9.410  1.0562 -0.1075 -0.4713
   33POPC  H101 4434   2.791   5.050   9.395  1.2491 -0.8559 -2.0932
   33POPC  C211 4435   2.981   5.087   9.290  0.3585 -0.7937  0.0785
   33POPC  H11R 4436   2.980   5.001   9.219 -0.9441 -2.6526  2.2412
   33POPC  H11S 4437   3.087   5.108   9.316  0.0509 -0.5811  1.2109
   33POPC  C212 4438   2.917   5.215   9.218 -0.4824 -0.1509  0.1952
   33POPC  H12R 4439   2.923   5.299   9.291 -1.9468  0.1574 -0.0150
   33POPC  H12S 4440   2.810   5.189   9.200 -0.5614  0.7840 -0.7907
   33POPC  C213 4441   2.983   5.257   9.086  0.4305 -0.0950  0.2514
   33POPC  H13R 4442   2.950   5.177   9.017 -2.2134 -1.6753  3.1196
   33POPC  H13S 4443   3.088   5.248   9.123  0.8794 -0.8052 -1.1383
   33POPC  C214 4444   2.948   5.399   9.042  0.3675  0.1574 -0.4060
   33POPC  H14R 4445   2.999   5.414   8.945  1.6872  1.0549  0.4074
   33POPC  H14S 4446   2.978   5.483   9.108  2.2745 -0.4308 -0.4694
   33POPC  C215 4447   2.798   5.400   9.008  0.2672  0.1617  0.2207
   33POPC  H15R 4448   2.747   5.415   9.105 -0.5588 -0.4630 -0.0981
   33POPC  H15S 4449   2.769   5.297   8.977  0.1604  1.0124 -2.8948
   33POPC  C216 4450   2.745   5.504   8.909  0.3201 -0.9416  0.1773
   33POPC  H16R 4451   2.812   5.505   8.820 -1.1983 -1.3721 -0.9957
   33POPC  H16S 4452   2.767   5.600   8.961  0.3521 -0.7749 -0.1403
   33POPC  C217 4453   2.605   5.499   8.863  0.2251 -0.3240  0.3943
   33POPC  H17R 4454   2.594   5.407   8.801 -1.7483 -0.6053  1.0894
   33POPC  H17S 4455   2.594   5.584   8.792 -0.2701  0.8533  1.8363
   33POPC  C218 4456   2.499   5.507   8.973  0.1506 -0.0316  0.3317
   33POPC  H18R 4457   2.496   5.410   9.029  2.4896 -0.0852  0.4633
   33POPC  H18S 4458   2.401   5.525   8.924  0.8220  2.7160 -0.1588
   33POPC  H18T 4459   2.520   5.582   9.052 -0.6068  0.4004  0.1335
   33POPC   C33 4460   3.729   4.392   9.864 -0.4897 -0.0953  0.5351
   33POPC   H3X 4461   3.784   4.299   9.837 -0.5507 -0.0657  0.3014
   33POPC   H3Y 4462   3.801   4.465   9.906  0.3111 -0.3896 -0.2839
   33POPC   C34 4463   3.695   4.455   9.723 -0.3813  0.3651  0.0835
   33POPC   H4X 4464   3.790   4.449   9.665  0.5204  1.4468  1.3667
   33POPC   H4Y 4465   3.674   4.564   9.731  1.8376  1.1091 -2.5590
   33POPC   C35 4466   3.586   4.387   9.645 -0.1190 -0.2693 -0.1059
   33POPC   H5X 4467   3.489   4.420   9.687 -0.2486  0.3165 -0.8387
   33POPC   H5Y 4468   3.587   4.276   9.640  0.7167 -0.3414  1.1352
   33POPC   C36 4469   3.578   4.434   9.494  0.2530  0.1381 -0.0551
   33POPC   H6X 4470   3.498   4.366   9.459  0.1848  0.2460 -0.1093
   33POPC   H6Y 4471   3.674   4.400   9.449  1.4072  2.3520  0.5802
   33POPC   C37 4472   3.534   4.575   9.468 -0.2686 -0.2249  0.0709
   33POPC   H7X 4473   3.604   4.645   9.519 -1.7122  1.1934  0.2038
   33POPC   H7Y 4474   3.437   4.604   9.512 -0.3180  0.0869 -0.2354
   33POPC   C38 4475   3.541   4.622   9.324  0.7221 -0.2808 -0.1063
   33POPC   H8X 4476   3.476   4.554   9.265 -0.1642  1.0929 -0.7785
   33POPC   H8Y 4477   3.641   4.613   9.277  1.0545 -0.5928  0.6518
   33POPC   C39 4478   3.481   4.762   9.314  0.0468 -0.8163  0.1003
   33POPC   H9X 4479   3.508   4.837   9.392 -2.3467  1.2943 -0.9736
   33POPC   H9Y 4480   3.371   4.748   9.308 -0.3444  2.1597 -4.5669
   33POPC  C310 4481   3.510   4.825   9.178 -0.6884 -0.3555  0.1722
   33POPC  H10X 4482   3.447   4.770   9.104  0.4816 -1.4169 -0.0659
   33POPC  H10Y 4483   3.617   4.802   9.161 -0.4702  1.2007 -0.6544
   33POPC  C311 4484   3.463   4.972   9.168 -0.5279 -0.0398  0.4883
   33POPC  H11X 4485   3.510   5.029   9.085  1.5191  0.8005  2.1308
   33POPC  H11Y 4486   3.494   5.019   9.264  0.2940 -0.1862  0.3085
   33POPC  C312 4487   3.309   4.981   9.163 -0.7407  0.3932 -0.3644
   33POPC  H12X 4488   3.281   5.086   9.186  0.2733  0.5532  0.2170
   33POPC  H12Y 4489   3.275   4.908   9.240 -0.4957  0.5300 -0.1201
   33POPC  C313 4490   3.249   4.945   9.025 -0.3649  0.4596 -0.1915
   33POPC  H13X 4491   3.139   4.939   9.044 -0.2347  0.9097  0.7888
   33POPC  H13Y 4492   3.287   4.845   8.996  1.3821  0.5397  1.5817
   33POPC  C314 4493   3.298   5.039   8.914 -0.1869 -0.0675 -0.4503
   33POPC  H14X 4494   3.404   5.010   8.898 -0.1204  0.0750 -0.2783
   33POPC  H14Y 4495   3.301   5.142   8.955 -3.7148 -1.0593  2.8130
   33POPC  C315 4496   3.225   5.053   8.780 -0.0056  0.6204 -0.3432
   33POPC  H15X 4497   3.280   5.130   8.722  3.1693  0.1013  1.6998
   33POPC  H15Y 4498   3.127   5.091   8.816 -0.1192 -1.4503  1.7645
   33POPC  C316 4499   3.206   4.927   8.697 -0.0571 -1.0425  0.2744
   33POPC  H16X 4500   3.168   4.957   8.598  1.1712 -0.5607 -0.0742
   33POPC  H16Y 4501   3.138   4.851   8.740 -0.1450 -0.8836  0.4161
   33POPC  H16Z 4502   3.308   4.886   8.680  0.1522 -0.6086  0.4566
   34POPC     N 4503   2.230   6.201  10.640  0.2312 -0.0750 -0.1750
   34POPC   C12 4504   2.343   6.111  10.658 -0.1692 -0.1850  1.0860
   34POPC  H12A 4505   2.345   6.041  10.576  0.6689  2.0829 -0.9784
   34POPC  H12B 4506   2.335   6.052  10.748  2.5031  1.1163  2.2831
   34POPC   C13 4507   2.100   6.127  10.628 -0.5513 -0.1725  0.2888
   34POPC  H13A 4508   2.102   6.075  10.533 -1.2538  2.6054 -1.3649
   34POPC  H13B 4509   2.074   6.052  10.701 -1.6595 -0.4611 -0.3750
   34POPC  H13C 4510   2.020   6.200  10.629  1.0706  1.6697  0.3506
   34POPC   C14 4511   2.219   6.292  10.762  0.3650  0.0089 -0.3374
   34POPC  H14A 4512   2.132   6.353  10.744  0.4076  0.0983 -0.2427
   34POPC  H14B 4513   2.214   6.228  10.849  2.5054  0.4860  0.1862
   34POPC  H14C 4514   2.312   6.347  10.763 -0.8576  2.3442 -2.6077
   34POPC   C15 4515   2.255   6.275  10.518  0.5550  0.0644  0.3473
   34POPC  H15A 4516   2.243   6.220  10.426 -1.7333 -0.0701  0.6697
   34POPC  H15B 4517   2.349   6.329  10.524  0.4401  0.1287  1.9008
   34POPC  H15C 4518   2.177   6.350  10.514  1.8243  1.4064 -0.2997
   34POPC   C11 4519   2.484   6.180  10.671  0.0967  1.2136 -0.3372
   34POPC  H11A 4520   2.555   6.104  10.711 -0.4876 -0.4907 -2.2944
   34POPC  H11B 4521   2.473   6.263  10.743 -1.2178  0.6371  0.1659
   34POPC     P 4522   2.600   6.161  10.437 -0.6042  0.1591  0.2892
   34POPC   O13 4523   2.525   6.039  10.410  0.1855 -0.0172  0.1134
   34POPC   O14 4524   2.743   6.145  10.469  0.3752  0.7089 -0.1053
   34POPC   O12 4525   2.537   6.240  10.550  0.2865 -0.7456  0.0289
   34POPC   O11 4526   2.593   6.257  10.312  0.2128 -0.1292 -0.9756
   34POPC    C1 4527   2.617   6.393  10.323 -0.2974 -0.3732 -0.6809
   34POPC    HA 4528   2.709   6.416  10.381 -1.8270  3.3028  0.6060
   34POPC    HB 4529   2.531   6.451  10.362  0.3182  0.6270 -0.7709
   34POPC    C2 4530   2.649   6.457  10.184  0.8023  1.1581 -0.1401
   34POPC    HS 4531   2.637   6.567  10.187 -0.9310  0.9816  1.4922
   34POPC   O21 4532   2.553   6.399  10.097  0.6419  0.1663  0.2539
   34POPC   C21 4533   2.421   6.427  10.107  0.0134 -0.3119  0.0646
   34POPC   O22 4534   2.361   6.479  10.199  0.3665 -0.2806  0.1764
   34POPC   C22 4535   2.351   6.390   9.979  0.1531 -0.6212  0.0885
   34POPC   H2R 4536   2.284   6.475   9.954 -0.7177 -1.8861 -2.1075
   34POPC   H2S 4537   2.308   6.288   9.988 -0.2000 -0.4061  0.9026
   34POPC    C3 4538   2.790   6.407  10.139 -0.3803  0.3960 -0.3702
   34POPC    HX 4539   2.800   6.297  10.133  3.5193  0.5894  0.0153
   34POPC    HY 4540   2.863   6.423  10.221 -0.4675 -1.1431  0.0249
   34POPC   O31 4541   2.830   6.473  10.015  0.3174  0.0971  0.2653
   34POPC   C31 4542   2.828   6.406   9.902 -0.3535  0.3104  0.2637
   34POPC   O32 4543   2.768   6.304   9.883 -0.0738 -0.3997  0.2985
   34POPC   C32 4544   2.928   6.475   9.796 -0.1716  0.0119  0.3043
   34POPC   H2X 4545   2.997   6.404   9.745 -1.7717 -0.6736 -0.9755
   34POPC   H2Y 4546   2.997   6.527   9.866 -0.1272 -0.7566  0.8408
   34POPC   C23 4547   2.444   6.371   9.858  0.8570 -0.4444  1.0844
   34POPC   H3R 4548   2.519   6.294   9.885  1.1697  0.1831  2.0830
   34POPC   H3S 4549   2.488   6.471   9.834  2.0556 -1.1537  0.2418
   34POPC   C24 4550   2.365   6.333   9.735  0.3706 -0.3205  0.1144
   34POPC   H4R 4551   2.265   6.381   9.726  0.4841  0.1445  1.1606
   34POPC   H4S 4552   2.334   6.227   9.740  2.2334 -0.8466  1.4815
   34POPC   C25 4553   2.439   6.358   9.598  0.3795  0.3115  0.4171
   34POPC   H5R 4554   2.534   6.303   9.615  0.0258 -0.0651  1.2591
   34POPC   H5S 4555   2.461   6.464   9.576  0.3287  0.0664 -0.8972
   34POPC   C26 4556   2.369   6.292   9.474  0.3815  0.2549  0.4650
   34POPC   H6R 4557   2.346   6.184   9.489  1.0797  0.0953  0.3863
   34POPC   H6S 4558   2.443   6.296   9.392 -0.9154  0.0601 -0.7428
   34POPC   C27 4559   2.240   6.357   9.422  0.4924 -0.9441 -0.2583
   34POPC   H7R 4560   2.272   6.462   9.438 -2.1918  0.3013 -2.2413
   34POPC   H7S 4561   2.157   6.335   9.491  0.1462  1.9824  0.3905
   34POPC   C28 4562   2.212   6.329   9.272 -0.5999  0.5963 -0.2882
   34POPC   H8R 4563   2.201   6.220   9.251  1.6927  0.6346 -2.0214
   34POPC   H8S 4564   2.303   6.368   9.222  0.3969 -0.0066  0.9998
   34POPC   C29 4565   2.090   6.404   9.221 -0.4975 -0.7224  0.2599
   34POPC   H91 4566   2.004   6.423   9.287 -1.8227 -0.3676 -1.5160
   34POPC  C210 4567   2.080   6.473   9.106  0.5535  0.0681  0.0421
   34POPC  H101 4568   1.985   6.528   9.095  0.3523 -0.5168 -1.2922
   34POPC  C211 4569   2.189   6.491   9.006  0.4699  0.6724  0.1926
   34POPC  H11R 4570   2.231   6.390   8.987 -1.1429 -0.7180  3.3603
   34POPC  H11S 4571   2.270   6.546   9.060  1.9019 -1.4459  0.3234
   34POPC  C212 4572   2.135   6.576   8.884 -0.1180 -0.3844 -0.9454
   34POPC  H12R 4573   2.222   6.622   8.832 -0.3720 -0.1755 -1.1887
   34POPC  H12S 4574   2.084   6.668   8.919  2.0611  0.7862 -0.6348
   34POPC  C213 4575   2.050   6.498   8.796  0.1992  0.4861 -1.1420
   34POPC  H13R 4576   1.966   6.454   8.854 -0.3546  2.2745 -0.4952
   34POPC  H13S 4577   2.114   6.423   8.745 -2.2371 -0.8591 -2.3899
   34POPC  C214 4578   1.995   6.581   8.680  0.0632  0.2870 -0.4890
   34POPC  H14R 4579   1.938   6.674   8.699 -1.8212 -1.0937  1.1378
   34POPC  H14S 4580   1.917   6.521   8.629 -0.1139  1.1031 -1.1907
   34POPC  C215 4581   2.110   6.609   8.584 -0.7014  0.6899  0.1592
   34POPC  H15R 4582   2.155   6.508   8.576  0.6879  1.0599  2.4061
   34POPC  H15S 4583   2.184   6.685   8.617 -1.9713  2.2231 -0.3772
   34POPC  C216 4584   2.060   6.661   8.448  0.1849 -0.2494  0.6346
   34POPC  H16R 4585   2.015   6.761   8.468 -0.0496  0.0076 -1.0404
   34POPC  H16S 4586   1.971   6.604   8.411  0.5495  0.0589 -0.7591
   34POPC  C217 4587   2.157   6.674   8.329  0.2363 -0.5238  0.4520
   34POPC  H17R 4588   2.093   6.716   8.249  1.4914  0.0383 -0.2777
   34POPC  H17S 4589   2.175   6.568   8.299 -1.7761 -0.9822  0.6987
   34POPC  C218 4590   2.274   6.769   8.342  0.5160  0.1953  0.2272
   34POPC  H18R 4591   2.329   6.762   8.437 -0.6546  0.4784  0.9481
   34POPC  H18S 4592   2.244   6.875   8.334  2.1109  0.5813 -1.0728
   34POPC  H18T 4593   2.351   6.753   8.264  0.4666  1.9367 -0.2116
   34POPC   C33 4594   2.861   6.583   9.700 -0.3931  0.7668 -0.1979
   34POPC   H3X 4595   2.943   6.650   9.667 -0.3166  1.4848  1.3470
   34POPC   H3Y 4596   2.789   6.644   9.759 -1.5566 -1.3231  0.6230
   34POPC   C34 4597   2.793   6.515   9.580 -0.0191  0.6539 -0.0461
   34POPC   H4X 4598   2.696   6.482   9.623  0.6881 -1.0543  0.3151
   34POPC   H4Y 4599   2.856   6.430   9.548 -2.8065 -1.6911  0.3154
   34POPC   C35 4600   2.760   6.609   9.471 -0.5096  0.7216 -0.0686
   34POPC   H5X 4601   2.829   6.697   9.467 -1.1461  1.2247 -0.1228
   34POPC   H5Y 4602   2.666   6.660   9.499 -0.2602  1.5980 -0.7674
   34POPC   C36 4603   2.755   6.535   9.337  0.0885 -0.1337 -0.1081
   34POPC   H6X 4604   2.710   6.436   9.358 -0.9206  0.2193 -0.5520
   34POPC   H6Y 4605   2.855   6.504   9.302 -0.2517 -1.1697 -0.1785
   34POPC   C37 4606   2.676   6.605   9.235 -0.9469 -0.1279  0.4294
   34POPC   H7X 4607   2.682   6.713   9.261 -0.2042 -0.2316  0.6988
   34POPC   H7Y 4608   2.569   6.575   9.243 -0.9634  0.2316  1.7717
   34POPC   C38 4609   2.724   6.564   9.093  0.4484 -0.5139 -0.2662
   34POPC   H8X 4610   2.730   6.453   9.100  2.6822 -0.4068  0.2815
   34POPC   H8Y 4611   2.827   6.600   9.073 -0.5515  2.3412 -0.7234
   34POPC   C39 4612   2.637   6.614   8.984  0.7972  0.5866 -0.1359
   34POPC   H9X 4613   2.650   6.724   8.982  1.2000  0.5311 -0.8774
   34POPC   H9Y 4614   2.531   6.589   9.008  0.6204  0.5033 -0.9721
   34POPC  C310 4615   2.666   6.557   8.843 -0.0499 -1.3094 -0.5449
   34POPC  H10X 4616   2.600   6.468   8.838 -0.2999 -1.3097  1.6638
   34POPC  H10Y 4617   2.775   6.543   8.833  0.1848 -0.4741  0.5906
   34POPC  C311 4618   2.613   6.646   8.718  0.0660 -0.4393 -0.0272
   34POPC  H11X 4619   2.662   6.745   8.724  0.1986 -0.4403 -0.9519
   34POPC  H11Y 4620   2.506   6.658   8.742 -0.3174 -3.3818  0.0717
   34POPC  C312 4621   2.622   6.581   8.576 -0.4564  0.1205  0.2316
   34POPC  H12X 4622   2.712   6.520   8.553  0.4546  2.0737 -1.7781
   34POPC  H12Y 4623   2.632   6.661   8.500 -1.5079 -0.7702 -0.8883
   34POPC  C313 4624   2.487   6.513   8.539 -0.0829  0.4405 -0.1417
   34POPC  H13X 4625   2.407   6.590   8.549  0.9572  1.6406 -0.7720
   34POPC  H13Y 4626   2.481   6.437   8.620  2.5592 -0.0086 -0.2700
   34POPC  C314 4627   2.481   6.452   8.398  0.2157 -0.1224 -0.8536
   34POPC  H14X 4628   2.527   6.527   8.330  1.1610  3.4444  3.2765
   34POPC  H14Y 4629   2.374   6.435   8.371  0.5162 -0.8059 -1.6489
   34POPC  C315 4630   2.547   6.312   8.379 -0.1502 -0.1853 -0.7941
   34POPC  H15X 4631   2.657   6.330   8.387 -0.3021  0.2237  1.0030
   34POPC  H15Y 4632   2.511   6.275   8.282 -1.6910 -0.6200 -0.0824
   34POPC  C316 4633   2.510   6.211   8.489  0.1693  0.4519  0.1423
   34POPC  H16X 4634   2.588   6.206   8.568  0.4496 -0.6610 -0.1914
   34POPC  H16Y 4635   2.506   6.115   8.434 -0.8750 -0.0174  1.0091
   34POPC  H16Z 4636   2.404   6.232   8.515  0.1652  0.0808  0.4241
   35POPC     N 4637   2.324   2.626  11.058 -0.2408  0.1735 -0.0104
   35POPC   C12 4638   2.276   2.477  11.041  0.7623 -0.2819 -0.7705
   35POPC  H12A 4639   2.243   2.450  11.140 -0.5805  1.3655 -0.7148
   35POPC  H12B 4640   2.359   2.416  11.010  2.4414  1.0611  0.8565
   35POPC   C13 4641   2.456   2.632  11.121 -0.0155  0.1205 -0.3186
   35POPC  H13A 4642   2.457   2.638  11.229 -0.3422 -1.4421 -0.1923
   35POPC  H13B 4643   2.512   2.541  11.104  0.4197  0.3807 -0.2902
   35POPC  H13C 4644   2.513   2.713  11.080  1.6266 -1.7023 -1.8305
   35POPC   C14 4645   2.358   2.680  10.924  0.1596 -0.1796  0.6992
   35POPC  H14A 4646   2.434   2.621  10.876 -0.3688  0.2592 -0.7126
   35POPC  H14B 4647   2.273   2.688  10.858 -1.2172  3.1076  2.6165
   35POPC  H14C 4648   2.396   2.780  10.932  0.5610 -0.3431  0.8433
   35POPC   C15 4649   2.240   2.715  11.137  0.5586  0.3319 -0.3547
   35POPC  H15A 4650   2.274   2.818  11.136 -0.3390  0.7260  2.0179
   35POPC  H15B 4651   2.237   2.678  11.239  2.0992  0.6921 -0.1580
   35POPC  H15C 4652   2.139   2.712  11.100 -0.5954  0.4400  2.5351
   35POPC   C11 4653   2.159   2.452  10.932  0.1156  0.4817 -0.1006
   35POPC  H11A 4654   2.142   2.342  10.932 -0.6774  0.5922  0.4164
   35POPC  H11B 4655   2.200   2.484  10.835 -3.8604 -1.2728 -2.6143
   35POPC     P 4656   1.956   2.490  11.090  0.2221 -0.1244 -0.0794
   35POPC   O13 4657   1.928   2.618  11.161  0.6087 -0.0911 -0.2730
   35POPC   O14 4658   2.017   2.374  11.163 -0.4059  0.1460  0.2394
   35POPC   O12 4659   2.038   2.527  10.954 -0.3153  0.2465  0.3655
   35POPC   O11 4660   1.817   2.447  11.027  0.2508 -0.1071 -0.0369
   35POPC    C1 4661   1.714   2.549  10.997 -0.5039  0.7428  0.8268
   35POPC    HA 4662   1.767   2.634  10.950  0.2441 -1.2301 -2.1993
   35POPC    HB 4663   1.642   2.570  11.080 -3.3221 -2.9207 -0.4123
   35POPC    C2 4664   1.629   2.487  10.882 -0.5637 -0.4372  1.1194
   35POPC    HS 4665   1.556   2.421  10.934  0.7797 -3.6305 -0.7393
   35POPC   O21 4666   1.711   2.418  10.777 -0.2800 -0.2288 -0.1664
   35POPC   C21 4667   1.646   2.325  10.713 -0.5080  0.1571 -0.5590
   35POPC   O22 4668   1.536   2.272  10.745 -0.7713 -0.4096  0.6546
   35POPC   C22 4669   1.745   2.278  10.596 -1.1959  0.9170 -0.1581
   35POPC   H2R 4670   1.845   2.272  10.644 -0.9333  2.9248 -0.3794
   35POPC   H2S 4671   1.756   2.369  10.534 -1.3578  0.8887 -0.2283
   35POPC    C3 4672   1.545   2.597  10.814 -0.0343 -0.6175  0.4332
   35POPC    HX 4673   1.620   2.675  10.788 -0.1858 -0.5413  0.2249
   35POPC    HY 4674   1.470   2.638  10.885 -2.1650 -1.8891 -0.9839
   35POPC   O31 4675   1.478   2.555  10.692 -0.5382 -0.1782 -0.5103
   35POPC   C31 4676   1.361   2.505  10.714  0.0979  0.2065 -0.3814
   35POPC   O32 4677   1.309   2.488  10.824  0.0999 -0.4550 -0.4490
   35POPC   C32 4678   1.320   2.453  10.583  0.4053 -1.0770 -0.0103
   35POPC   H2X 4679   1.384   2.366  10.558  1.2828 -1.0732  2.0174
   35POPC   H2Y 4680   1.347   2.528  10.505  3.3609 -0.5465  1.4089
   35POPC   C23 4681   1.714   2.140  10.528 -0.4466 -0.3202 -0.3840
   35POPC   H3R 4682   1.712   2.057  10.602  1.0467 -0.9981 -1.0648
   35POPC   H3S 4683   1.788   2.121  10.448 -1.4101 -1.2142 -1.0891
   35POPC   C24 4684   1.577   2.139  10.453  0.1073 -0.3546 -0.7241
   35POPC   H4R 4685   1.500   2.197  10.508  0.5814 -2.0141  1.8286
   35POPC   H4S 4686   1.534   2.038  10.434 -2.8132  0.4785  0.8966
   35POPC   C25 4687   1.586   2.218  10.324 -0.2258 -0.1286 -0.2050
   35POPC   H5R 4688   1.678   2.179  10.275  0.3686  0.9418  0.0219
   35POPC   H5S 4689   1.612   2.324  10.346 -2.5424  0.7673 -1.4616
   35POPC   C26 4690   1.465   2.201  10.234 -0.2856  0.1676  0.0263
   35POPC   H6R 4691   1.370   2.200  10.292  0.1900 -0.4837  0.8050
   35POPC   H6S 4692   1.465   2.101  10.187  0.9223  0.4052 -0.5166
   35POPC   C27 4693   1.447   2.306  10.118 -0.1377 -0.9239 -0.3956
   35POPC   H7R 4694   1.541   2.343  10.072 -0.6241  3.8391  1.7440
   35POPC   H7S 4695   1.416   2.403  10.163 -0.1140 -0.3586 -1.5527
   35POPC   C28 4696   1.347   2.270  10.014  0.3660  0.5632 -0.3581
   35POPC   H8R 4697   1.298   2.356   9.966 -1.8919  0.0397  0.8914
   35POPC   H8S 4698   1.263   2.212  10.058  0.2634  0.7014 -0.3745
   35POPC   C29 4699   1.416   2.188   9.906  0.1703 -0.7981  0.0630
   35POPC   H91 4700   1.475   2.107   9.950 -1.9179 -2.2326  0.3118
   35POPC  C210 4701   1.399   2.195   9.771 -0.0431  0.5746  0.0922
   35POPC  H101 4702   1.450   2.114   9.717  0.2089  0.3878  0.6006
   35POPC  C211 4703   1.314   2.284   9.683 -0.2205  0.7878 -0.4238
   35POPC  H11R 4704   1.263   2.355   9.750 -0.1838  0.4060  0.0135
   35POPC  H11S 4705   1.237   2.226   9.628 -1.0378 -0.2288  1.6883
   35POPC  C212 4706   1.395   2.369   9.587  0.0640 -0.4785  0.6286
   35POPC  H12R 4707   1.455   2.304   9.519 -0.9185 -1.5169  0.7258
   35POPC  H12S 4708   1.463   2.432   9.648  0.0863  0.6718 -0.5462
   35POPC  C213 4709   1.312   2.468   9.493 -0.0365  0.8146 -0.2308
   35POPC  H13R 4710   1.242   2.532   9.551 -0.6733  0.6715 -0.8266
   35POPC  H13S 4711   1.249   2.401   9.431  0.3219 -0.2920  0.5728
   35POPC  C214 4712   1.409   2.549   9.405  0.0741  0.3776  0.1501
   35POPC  H14R 4713   1.480   2.490   9.343 -1.3497 -2.3634  0.9757
   35POPC  H14S 4714   1.475   2.605   9.474 -2.3989  0.0359  3.0378
   35POPC  C215 4715   1.357   2.665   9.319 -0.1732 -0.3085 -0.5272
   35POPC  H15R 4716   1.438   2.707   9.255  0.2829  1.9681  1.4154
   35POPC  H15S 4717   1.313   2.740   9.387  1.4964  0.8097 -0.6199
   35POPC  C216 4718   1.236   2.630   9.234 -0.0819 -0.0426  0.1150
   35POPC  H16R 4719   1.161   2.598   9.310  0.6383 -0.5426  0.6363
   35POPC  H16S 4720   1.242   2.541   9.168 -2.1910 -1.0618  1.1927
   35POPC  C217 4721   1.194   2.752   9.144 -0.0252  0.4641 -0.4394
   35POPC  H17R 4722   1.184   2.837   9.214  0.2103 -1.3010  1.8575
   35POPC  H17S 4723   1.096   2.726   9.098 -0.6069  1.4026  0.2434
   35POPC  C218 4724   1.293   2.789   9.031  0.2594 -0.5363 -0.1180
   35POPC  H18R 4725   1.239   2.856   8.961  1.9459  0.1631 -0.7978
   35POPC  H18S 4726   1.335   2.706   8.970 -0.7914 -0.3923 -1.0707
   35POPC  H18T 4727   1.370   2.848   9.083 -1.0454  0.4474  0.7526
   35POPC   C33 4728   1.176   2.413  10.575 -0.0642  0.3131 -0.8442
   35POPC   H3X 4729   1.118   2.496  10.619  0.5389  0.9635 -1.2459
   35POPC   H3Y 4730   1.151   2.319  10.629 -0.4264  0.3350 -0.9734
   35POPC   C34 4731   1.124   2.401  10.428  0.0710 -0.1172 -0.1086
   35POPC   H4X 4732   1.203   2.345  10.374  0.6548  0.9268 -0.3803
   35POPC   H4Y 4733   1.129   2.499  10.376  1.2599 -0.2875 -0.3356
   35POPC   C35 4734   0.992   2.323  10.410 -0.2242 -1.0514 -0.5479
   35POPC   H5X 4735   0.920   2.403  10.437  2.7258  1.7905 -0.4914
   35POPC   H5Y 4736   0.985   2.228  10.467  1.2803 -0.5055  0.6097
   35POPC   C36 4737   0.962   2.281  10.258 -0.3865  0.0714 -0.4359
   35POPC   H6X 4738   0.888   2.200  10.266 -0.5419  0.3687  1.7720
   35POPC   H6Y 4739   1.061   2.245  10.223  0.1951  0.5356  0.6766
   35POPC   C37 4740   0.919   2.400  10.172  0.0076  0.2831 -0.4631
   35POPC   H7X 4741   0.987   2.383  10.086  1.7710 -0.7322  1.0796
   35POPC   H7Y 4742   0.939   2.498  10.221  0.8103  0.1164 -0.4481
   35POPC   C38 4743   0.768   2.388  10.135 -0.1789 -0.2936 -0.1249
   35POPC   H8X 4744   0.704   2.394  10.225  1.2947 -0.5913  0.9628
   35POPC   H8Y 4745   0.751   2.286  10.095 -0.0793 -0.1443 -0.5550
   35POPC   C39 4746   0.731   2.503  10.036  0.3810 -0.3146 -0.7990
   35POPC   H9X 4747   0.755   2.603  10.079 -2.4273  1.1090 -2.2581
   35POPC   H9Y 4748   0.622   2.513  10.017  0.8099  3.0733 -2.1779
   35POPC  C310 4749   0.808   2.493   9.907 -0.5600  0.3866  0.1797
   35POPC  H10X 4750   0.797   2.389   9.870 -0.3806  0.2252  0.5799
   35POPC  H10Y 4751   0.916   2.518   9.919 -0.2241 -1.2297  0.6800
   35POPC  C311 4752   0.765   2.599   9.799  0.1764 -0.3102 -0.2339
   35POPC  H11X 4753   0.765   2.699   9.849 -0.0458  0.1833 -1.1835
   35POPC  H11Y 4754   0.658   2.574   9.784 -0.0217 -0.0329  0.6419
   35POPC  C312 4755   0.845   2.601   9.667  0.2211 -0.1192 -0.0752
   35POPC  H12X 4756   0.950   2.625   9.697  0.6352 -0.5785 -1.1273
   35POPC  H12Y 4757   0.810   2.679   9.596 -0.2036 -0.5736 -0.3582
   35POPC  C313 4758   0.834   2.467   9.591  0.1525  0.4631  0.1134
   35POPC  H13X 4759   0.727   2.448   9.566  0.1212 -1.8686  1.7325
   35POPC  H13Y 4760   0.859   2.386   9.663 -2.1591  0.6761  1.2674
   35POPC  C314 4761   0.939   2.473   9.474 -0.4297 -0.0092 -0.2161
   35POPC  H14X 4762   1.034   2.502   9.524  0.0968  1.0296 -1.7425
   35POPC  H14Y 4763   0.906   2.554   9.406 -3.4225  0.4839  1.6445
   35POPC  C315 4764   0.944   2.342   9.400 -0.7244  0.4483 -0.4543
   35POPC  H15X 4765   0.959   2.259   9.472  2.2362 -0.6424 -2.1854
   35POPC  H15Y 4766   1.024   2.357   9.325 -0.7161 -0.5942 -0.6646
   35POPC  C316 4767   0.816   2.298   9.327 -0.3715 -0.2828 -0.1796
   35POPC  H16X 4768   0.731   2.299   9.398  0.3001 -1.8266  0.6967
   35POPC  H16Y 4769   0.815   2.204   9.268  0.0775 -0.2692 -0.2120
   35POPC  H16Z 4770   0.800   2.368   9.242 -0.0549 -0.9439 -0.7949
   36POPC     N 4771   0.787   0.590  11.078 -0.2599  0.5984  0.1075
   36POPC   C12 4772   0.673   0.611  10.979 -0.2672 -0.4683  0.5922
   36POPC  H12A 4773   0.670   0.716  10.955  3.9026 -0.4968 -0.8393
   36POPC  H12B 4774   0.585   0.569  11.027 -1.3946  0.8181 -0.2692
   36POPC   C13 4775   0.919   0.616  11.009 -0.3597 -0.0923 -0.2739
   36POPC  H13A 4776   0.996   0.584  11.077  0.8879 -0.0070 -1.5899
   36POPC  H13B 4777   0.929   0.555  10.920 -0.0243  3.0233 -2.5520
   36POPC  H13C 4778   0.931   0.721  10.986 -1.0585 -0.0212 -0.3387
   36POPC   C14 4779   0.766   0.697  11.185  0.0158  0.2544 -0.1023
   36POPC  H14A 4780   0.828   0.681  11.271  0.2382  0.4656 -0.2219
   36POPC  H14B 4781   0.788   0.800  11.162  1.2753  0.0206  0.0273
   36POPC  H14C 4782   0.664   0.695  11.221  0.3051 -0.0787  0.7191
   36POPC   C15 4783   0.773   0.450  11.137  0.3155  0.1436 -0.2377
   36POPC  H15A 4784   0.796   0.370  11.069 -1.9869 -0.2123 -0.6801
   36POPC  H15B 4785   0.673   0.430  11.173 -0.2745  0.5411 -1.5840
   36POPC  H15C 4786   0.853   0.437  11.208  2.1879  0.2650 -2.2212
   36POPC   C11 4787   0.673   0.533  10.852  0.1837 -0.7076  0.5027
   36POPC  H11A 4788   0.768   0.550  10.797  0.6396  2.5312  2.0554
   36POPC  H11B 4789   0.589   0.562  10.785 -0.2021 -0.4559  1.0918
   36POPC     P 4790   0.529   0.321  10.885  0.1024 -0.0320  0.4687
   36POPC   O13 4791   0.458   0.373  11.007 -0.6528  0.4205  0.8235
   36POPC   O14 4792   0.558   0.177  10.874 -0.0371  0.0930 -0.1433
   36POPC   O12 4793   0.667   0.392  10.876  0.0105  0.2096 -0.1766
   36POPC   O11 4794   0.441   0.366  10.757  0.2221  1.1985  0.3633
   36POPC    C1 4795   0.394   0.276  10.657  0.4950 -0.3543  0.6777
   36POPC    HA 4796   0.283   0.264  10.657  0.3349  1.0203  1.0376
   36POPC    HB 4797   0.422   0.170  10.676  0.9636 -0.3677 -0.0383
   36POPC    C2 4798   0.439   0.314  10.512 -0.1650  0.6961 -0.0740
   36POPC    HS 4799   0.423   0.233  10.438  0.8321  0.2015  0.2342
   36POPC   O21 4800   0.571   0.361  10.519 -0.2918  0.2752 -0.1910
   36POPC   C21 4801   0.661   0.266  10.518  0.1753  0.3520 -0.2383
   36POPC   O22 4802   0.635   0.144  10.509  0.0333 -0.2773  0.9011
   36POPC   C22 4803   0.795   0.334  10.532 -0.4554 -0.6269  0.1487
   36POPC   H2R 4804   0.861   0.248  10.558 -0.8180 -0.5606  1.3311
   36POPC   H2S 4805   0.799   0.411  10.612  1.8828  0.5557 -1.0196
   36POPC    C3 4806   0.336   0.420  10.446 -0.1563 -0.0833 -0.5445
   36POPC    HX 4807   0.330   0.508  10.515 -1.1107 -0.2382 -0.4172
   36POPC    HY 4808   0.232   0.380  10.443 -0.1705 -0.1184  0.2213
   36POPC   O31 4809   0.375   0.473  10.322  0.5632 -0.6373 -0.1276
   36POPC   C31 4810   0.347   0.398  10.219 -0.0954 -0.0660 -0.0868
   36POPC   O32 4811   0.282   0.295  10.215  0.1426 -0.0607 -0.2481
   36POPC   C32 4812   0.424   0.446  10.097 -0.4239  0.3740 -1.0945
   36POPC   H2X 4813   0.523   0.408  10.128 -0.7984 -0.5114 -0.9515
   36POPC   H2Y 4814   0.429   0.557  10.097 -0.1268  0.3625 -0.6690
   36POPC   C23 4815   0.829   0.399  10.401 -0.2802 -0.3674  0.5744
   36POPC   H3R 4816   0.925   0.454  10.410 -0.8438  0.4101  2.4415
   36POPC   H3S 4817   0.756   0.478  10.374  0.8695  1.2903  2.1034
   36POPC   C24 4818   0.859   0.301  10.283  0.3472  0.3347  0.5286
   36POPC   H4R 4819   0.765   0.243  10.279  0.5682 -0.1361  1.6307
   36POPC   H4S 4820   0.950   0.238  10.295 -0.3782 -0.8254  0.0696
   36POPC   C25 4821   0.886   0.376  10.149  0.2874 -0.1903  0.2342
   36POPC   H5R 4822   0.955   0.463  10.159 -0.0238  0.4064 -2.0452
   36POPC   H5S 4823   0.793   0.426  10.112 -0.0513 -0.3651  0.8494
   36POPC   C26 4824   0.943   0.281  10.049  0.2487 -0.2311  0.5698
   36POPC   H6R 4825   0.923   0.330   9.952 -0.3464 -1.4673  0.0466
   36POPC   H6S 4826   0.886   0.186  10.048 -4.0573  2.0604  2.0656
   36POPC   C27 4827   1.094   0.255  10.066  0.6776 -0.0087  0.1178
   36POPC   H7R 4828   1.115   0.200  10.160 -3.5844 -1.0623  0.6355
   36POPC   H7S 4829   1.137   0.358  10.062 -0.8059  0.6199 -0.2225
   36POPC   C28 4830   1.145   0.185   9.942 -0.7480 -0.1536  0.2202
   36POPC   H8R 4831   1.256   0.190   9.955 -0.8358 -2.0176  2.1767
   36POPC   H8S 4832   1.108   0.235   9.851 -1.7054 -1.8058 -0.3408
   36POPC   C29 4833   1.109   0.038   9.913  0.7272  0.1686 -0.2052
   36POPC   H91 4834   1.030  -0.004   9.978 -0.7008  0.3923 -1.7151
   36POPC  C210 4835   1.143  -0.047   9.813 -0.1920 -0.0808 -0.5296
   36POPC  H101 4836   1.101  -0.148   9.817 -0.0560 -0.0972  1.2542
   36POPC  C211 4837   1.241  -0.007   9.699 -0.9093  0.5761 -0.1741
   36POPC  H11R 4838   1.345  -0.044   9.715 -0.2497  1.3332 -2.3211
   36POPC  H11S 4839   1.244   0.104   9.693  2.4747  0.6955  1.4062
   36POPC  C212 4840   1.201  -0.071   9.569 -0.3467  0.4228 -0.6889
   36POPC  H12R 4841   1.090  -0.081   9.567 -0.4808 -0.3742  3.1846
   36POPC  H12S 4842   1.245  -0.173   9.560 -2.8025 -0.6867 -1.2043
   36POPC  C213 4843   1.243   0.019   9.454  0.5682 -0.3846 -0.3563
   36POPC  H13R 4844   1.353   0.036   9.453  0.1177  3.2239 -0.0840
   36POPC  H13S 4845   1.204   0.120   9.476 -1.4531 -0.7659 -1.9458
   36POPC  C214 4846   1.181  -0.046   9.328  0.6989  0.0984 -0.1716
   36POPC  H14R 4847   1.070  -0.052   9.328  0.7045 -0.1490  0.5761
   36POPC  H14S 4848   1.225  -0.148   9.325 -0.7479 -0.5322 -0.8671
   36POPC  C215 4849   1.239   0.022   9.205 -0.1048  0.2461  0.6518
   36POPC  H15R 4850   1.349   0.027   9.211 -0.0089 -1.2288  0.4831
   36POPC  H15S 4851   1.205   0.128   9.204  0.8837  0.6287  2.5052
   36POPC  C216 4852   1.191  -0.052   9.075  0.0657  1.0495 -0.0144
   36POPC  H16R 4853   1.080  -0.050   9.071  0.0849  0.9511 -2.7075
   36POPC  H16S 4854   1.221  -0.158   9.091 -2.0786  0.0761 -1.8607
   36POPC  C217 4855   1.256   0.003   8.946  0.5571 -0.9471  0.0210
   36POPC  H17R 4856   1.364  -0.009   8.970  0.0093 -1.3847  2.5176
   36POPC  H17S 4857   1.227   0.111   8.943  1.1587 -0.5304  3.8531
   36POPC  C218 4858   1.222  -0.057   8.813  0.1222  0.1404  0.0629
   36POPC  H18R 4859   1.112  -0.071   8.802  0.2274  0.4810 -1.6087
   36POPC  H18S 4860   1.255  -0.163   8.805 -0.1770 -0.0457  1.0694
   36POPC  H18T 4861   1.263   0.009   8.734  0.4693 -1.7598 -1.4378
   36POPC   C33 4862   0.369   0.380   9.970  0.4882 -0.4611 -0.0854
   36POPC   H3X 4863   0.261   0.400   9.951  0.8023  1.9755  0.3377
   36POPC   H3Y 4864   0.382   0.270   9.973  2.0314 -0.2736  1.6349
   36POPC   C34 4865   0.440   0.432   9.841 -0.4085  0.0986 -0.0901
   36POPC   H4X 4866   0.547   0.408   9.853 -0.4344 -0.1416 -0.3370
   36POPC   H4Y 4867   0.423   0.541   9.830  0.9854  0.2291 -1.1105
   36POPC   C35 4868   0.389   0.346   9.725 -0.0117 -0.3602  0.7245
   36POPC   H5X 4869   0.283   0.374   9.709  0.0415  0.5366  1.8297
   36POPC   H5Y 4870   0.382   0.240   9.758 -4.2184 -0.0355  1.3338
   36POPC   C36 4871   0.472   0.366   9.596 -0.7932  0.0740  0.0829
   36POPC   H6X 4872   0.562   0.301   9.596 -0.7240  0.1389 -1.5720
   36POPC   H6Y 4873   0.489   0.476   9.591 -1.3091  0.1087 -2.9488
   36POPC   C37 4874   0.403   0.338   9.463 -0.5139  0.2839 -0.8255
   36POPC   H7X 4875   0.309   0.398   9.454 -0.6588  0.6480  2.1540
   36POPC   H7Y 4876   0.363   0.234   9.468 -0.7040  0.4082  0.6065
   36POPC   C38 4877   0.489   0.368   9.333  0.0473  0.5004 -0.5914
   36POPC   H8X 4878   0.592   0.326   9.342 -0.5219 -0.6455  0.9449
   36POPC   H8Y 4879   0.500   0.478   9.329 -0.3632  0.9130  4.0961
   36POPC   C39 4880   0.433   0.286   9.218 -0.8022 -0.6976  0.1943
   36POPC   H9X 4881   0.324   0.310   9.226 -0.7962  0.2034 -1.9112
   36POPC   H9Y 4882   0.447   0.176   9.229  0.9738 -0.5042  0.0643
   36POPC  C310 4883   0.490   0.330   9.079 -0.5217  1.1558  0.0389
   36POPC  H10X 4884   0.442   0.264   9.004  0.2887 -1.2902  1.5642
   36POPC  H10Y 4885   0.600   0.315   9.072 -0.8442 -1.7130  0.0071
   36POPC  C311 4886   0.453   0.480   9.048 -0.3429 -0.4380  0.8596
   36POPC  H11X 4887   0.499   0.544   9.127  1.0091 -1.8828  1.2947
   36POPC  H11Y 4888   0.342   0.487   9.043 -0.2325  0.3586 -1.5354
   36POPC  C312 4889   0.485   0.522   8.901  0.3915 -0.3520 -0.0323
   36POPC  H12X 4890   0.595   0.514   8.888  0.1469 -1.7126 -1.5809
   36POPC  H12Y 4891   0.457   0.630   8.899  0.8222 -0.2018  1.2069
   36POPC  C313 4892   0.421   0.456   8.784 -0.0101  0.7824  0.9585
   36POPC  H13X 4893   0.441   0.525   8.699  0.0022 -0.3479  0.0290
   36POPC  H13Y 4894   0.314   0.433   8.800 -0.2025  0.7960 -0.2251
   36POPC  C314 4895   0.500   0.333   8.733  0.5601  0.2446 -0.0934
   36POPC  H14X 4896   0.519   0.253   8.808 -0.8733 -1.5512 -1.5568
   36POPC  H14Y 4897   0.603   0.365   8.707  1.1385 -0.6276  1.0197
   36POPC  C315 4898   0.425   0.265   8.608  0.6313  0.1535 -0.4554
   36POPC  H15X 4899   0.506   0.230   8.540  2.2172  2.9180 -0.1507
   36POPC  H15Y 4900   0.372   0.346   8.555  0.3053 -0.7867 -1.6214
   36POPC  C316 4901   0.321   0.159   8.652  0.3445  0.2325 -0.3056
   36POPC  H16X 4902   0.366   0.075   8.709 -1.6799 -0.8063 -0.1446
   36POPC  H16Y 4903   0.274   0.114   8.562  0.5083 -0.6340  0.0354
   36POPC  H16Z 4904   0.240   0.208   8.712  0.5100  1.1376 -0.8014
   37POPC     N 4905   1.483   3.381   6.321  0.1913  0.0233  0.0827
   37POPC   C12 4906   1.422   3.433   6.446  0.8485 -0.4731  0.2017
   37POPC  H12A 4907   1.473   3.420   6.541 -0.7052  1.8628  1.4673
   37POPC  H12B 4908   1.331   3.379   6.467  0.5118  0.3703  0.9534
   37POPC   C13 4909   1.594   3.471   6.290 -0.0434  0.0623  0.5206
   37POPC  H13A 4910   1.562   3.568   6.255 -0.6185 -0.3724 -0.2067
   37POPC  H13B 4911   1.666   3.478   6.370  3.8975  0.9886 -2.7888
   37POPC  H13C 4912   1.644   3.418   6.210 -1.0582 -1.2202  0.6833
   37POPC   C14 4913   1.533   3.241   6.331 -0.6012  0.0914 -0.9549
   37POPC  H14A 4914   1.621   3.223   6.391  0.0828  0.6730 -1.7592
   37POPC  H14B 4915   1.458   3.188   6.386 -1.1724  1.9195  0.0841
   37POPC  H14C 4916   1.546   3.193   6.235  1.1923  0.1743 -0.8022
   37POPC   C15 4917   1.377   3.379   6.216  0.1464  0.1968 -0.7625
   37POPC  H15A 4918   1.421   3.340   6.125  1.7668 -3.1796  1.2806
   37POPC  H15B 4919   1.339   3.479   6.200  0.3594  0.3125 -0.5540
   37POPC  H15C 4920   1.307   3.305   6.253  1.3171 -0.0253  1.1536
   37POPC   C11 4921   1.374   3.584   6.443 -0.8315  0.1718  0.2215
   37POPC  H11A 4922   1.461   3.645   6.410  0.4811 -1.1435  1.1033
   37POPC  H11B 4923   1.362   3.610   6.550 -1.7139  0.0392  0.1582
   37POPC     P 4924   1.115   3.615   6.401 -0.3110 -0.0364 -0.0886
   37POPC   O13 4925   1.075   3.474   6.413 -0.4601  0.4068 -0.0056
   37POPC   O14 4926   1.036   3.698   6.296  0.1210  0.5389  0.0803
   37POPC   O12 4927   1.258   3.609   6.356  0.3292 -0.0610 -0.1476
   37POPC   O11 4928   1.128   3.674   6.541 -0.1770 -0.1039  0.0116
   37POPC    C1 4929   1.000   3.672   6.610 -0.4156  0.3457  0.1480
   37POPC    HA 4930   0.951   3.574   6.627  0.6445 -0.3221 -0.5230
   37POPC    HB 4931   0.931   3.737   6.552 -0.9469  0.9108  1.3760
   37POPC    C2 4932   1.014   3.727   6.752 -1.2516 -0.2986 -0.4872
   37POPC    HS 4933   1.089   3.809   6.761 -0.1221 -1.4436  1.3435
   37POPC   O21 4934   1.048   3.616   6.842 -0.8108  0.2751 -0.0072
   37POPC   C21 4935   1.172   3.561   6.836 -0.4163 -0.5359  0.8687
   37POPC   O22 4936   1.266   3.606   6.778 -0.6643  0.0440  0.0454
   37POPC   C22 4937   1.192   3.446   6.924  0.0489 -0.2930 -0.5255
   37POPC   H2R 4938   1.276   3.386   6.882 -0.9145 -2.1408  0.0766
   37POPC   H2S 4939   1.095   3.392   6.924 -0.7005  0.9991 -1.1699
   37POPC    C3 4940   0.882   3.781   6.809 -0.3284  0.2860  0.2060
   37POPC    HX 4941   0.814   3.697   6.836  1.1199 -0.0774  3.0980
   37POPC    HY 4942   0.833   3.851   6.738  0.0514  2.9403  2.4232
   37POPC   O31 4943   0.912   3.846   6.929 -0.5297 -0.2546  0.3410
   37POPC   C31 4944   0.829   3.932   6.980 -0.3839 -0.6586  0.1619
   37POPC   O32 4945   0.721   3.960   6.933 -0.3125 -0.1773 -0.2674
   37POPC   C32 4946   0.894   3.990   7.109  0.2593  0.0060  0.1160
   37POPC   H2X 4947   0.946   4.085   7.083 -1.5076  0.3115 -2.6223
   37POPC   H2Y 4948   0.972   3.920   7.146  1.0429  0.8702  0.1548
   37POPC   C23 4949   1.229   3.485   7.072 -0.2266 -0.1832  0.2182
   37POPC   H3R 4950   1.326   3.539   7.083 -1.4889  2.3142 -0.1168
   37POPC   H3S 4951   1.241   3.386   7.122  2.2832  0.3016  0.7106
   37POPC   C24 4952   1.126   3.569   7.149 -0.3153  0.4521 -0.7260
   37POPC   H4R 4953   1.046   3.500   7.182  0.9939 -0.7998 -0.0797
   37POPC   H4S 4954   1.085   3.655   7.091 -0.2861  0.8297 -0.1959
   37POPC   C25 4955   1.200   3.631   7.272  0.8913 -0.4884  0.0863
   37POPC   H5R 4956   1.154   3.717   7.324  0.0634 -1.9735  1.8970
   37POPC   H5S 4957   1.290   3.679   7.228  0.8907 -0.6218 -0.0635
   37POPC   C26 4958   1.255   3.526   7.365 -0.2980 -0.2212 -0.2490
   37POPC   H6R 4959   1.342   3.469   7.326 -1.0107 -1.6063  0.1166
   37POPC   H6S 4960   1.181   3.444   7.369 -1.8712  1.1028 -1.1880
   37POPC   C27 4961   1.287   3.581   7.502  0.1112 -0.3672 -0.5205
   37POPC   H7R 4962   1.201   3.631   7.551  1.4832  1.2729  0.3634
   37POPC   H7S 4963   1.356   3.667   7.484 -0.8274  1.0085  2.0125
   37POPC   C28 4964   1.359   3.489   7.599 -0.5764  0.2100  0.5306
   37POPC   H8R 4965   1.386   3.560   7.680 -2.0668 -0.5181  1.7336
   37POPC   H8S 4966   1.439   3.448   7.534 -1.3602 -1.0334  0.3128
   37POPC   C29 4967   1.276   3.382   7.656  0.5118  0.2114  0.2516
   37POPC   H91 4968   1.178   3.369   7.610  0.4886  0.8917  0.0936
   37POPC  C210 4969   1.317   3.299   7.760 -0.2563  0.0247 -0.0741
   37POPC  H101 4970   1.250   3.225   7.808 -0.4141  1.3554  1.8559
   37POPC  C211 4971   1.451   3.300   7.821 -0.3622 -0.3124 -0.6252
   37POPC  H11R 4972   1.484   3.400   7.856 -1.1089  0.4410 -1.9791
   37POPC  H11S 4973   1.523   3.285   7.738  1.0197  1.4825  0.1938
   37POPC  C212 4974   1.471   3.203   7.939  0.2943 -0.4972  1.2085
   37POPC  H12R 4975   1.574   3.161   7.949 -0.4408 -2.5924  0.5012
   37POPC  H12S 4976   1.407   3.112   7.933 -2.4745  1.4127 -1.6279
   37POPC  C213 4977   1.425   3.276   8.061  0.4133  0.0618 -0.3365
   37POPC  H13R 4978   1.396   3.199   8.136 -2.1836  0.2762 -1.0546
   37POPC  H13S 4979   1.341   3.348   8.052  0.5511  1.0121  3.8165
   37POPC  C214 4980   1.544   3.344   8.122  0.0376  0.2570 -0.2661
   37POPC  H14R 4981   1.608   3.361   8.033 -1.1764 -4.1806 -2.2849
   37POPC  H14S 4982   1.592   3.282   8.201  1.6532  0.7155 -0.8506
   37POPC  C215 4983   1.520   3.477   8.190  0.5192 -0.9604  0.7127
   37POPC  H15R 4984   1.456   3.468   8.281  0.3076 -1.4447  0.5199
   37POPC  H15S 4985   1.462   3.542   8.121  3.7460 -0.5937 -1.9046
   37POPC  C216 4986   1.651   3.552   8.214 -0.2513 -0.1488 -0.5169
   37POPC  H16R 4987   1.723   3.540   8.130 -0.7336 -0.2549 -0.9168
   37POPC  H16S 4988   1.696   3.520   8.311  1.0132 -0.2815 -1.1349
   37POPC  C217 4989   1.634   3.701   8.241  0.1072  0.5181  0.0915
   37POPC  H17R 4990   1.540   3.720   8.297  0.6601  1.3280  0.7559
   37POPC  H17S 4991   1.613   3.761   8.150 -0.2587 -0.2579 -0.3393
   37POPC  C218 4992   1.762   3.752   8.304  0.5611  0.0891 -0.0291
   37POPC  H18R 4993   1.747   3.860   8.325 -1.2968 -0.4508  1.8134
   37POPC  H18S 4994   1.846   3.749   8.232  2.6846  1.4021  2.2165
   37POPC  H18T 4995   1.796   3.702   8.398  0.0517  1.0727  0.7004
   37POPC   C33 4996   0.795   4.011   7.225 -0.4523  0.6015  0.0561
   37POPC   H3X 4997   0.737   3.919   7.251  0.1036 -0.2703 -1.6263
   37POPC   H3Y 4998   0.725   4.093   7.199  0.8924  1.2733 -1.6072
   37POPC   C34 4999   0.872   4.047   7.353 -0.0389 -0.4804  0.4598
   37POPC   H4X 5000   0.957   3.976   7.363  0.0752 -0.5097 -0.6015
   37POPC   H4Y 5001   0.815   4.017   7.443 -1.6073 -1.2155 -0.7236
   37POPC   C35 5002   0.913   4.192   7.353  0.5881 -0.0591 -0.7044
   37POPC   H5X 5003   0.826   4.259   7.334  0.6117  0.2732  0.3446
   37POPC   H5Y 5004   0.992   4.198   7.274  0.3463  1.7891 -0.8560
   37POPC   C36 5005   0.977   4.228   7.487 -0.3669 -0.1761 -0.0729
   37POPC   H6X 5006   1.030   4.325   7.482 -0.8191  0.0461 -0.6194
   37POPC   H6Y 5007   1.042   4.145   7.522 -0.1593 -0.2385 -0.5895
   37POPC   C37 5008   0.876   4.261   7.599  0.0379  0.2938 -0.1602
   37POPC   H7X 5009   0.780   4.206   7.592  0.2126  0.0926 -1.2113
   37POPC   H7Y 5010   0.841   4.367   7.592  0.8566  0.5369 -0.9059
   37POPC   C38 5011   0.933   4.247   7.742 -0.0930 -0.6012 -0.3090
   37POPC   H8X 5012   1.041   4.270   7.749 -0.1249 -0.6570  0.4976
   37POPC   H8Y 5013   0.922   4.141   7.775  0.8156 -0.5487  0.1962
   37POPC   C39 5014   0.840   4.308   7.846  0.0394 -0.5099  0.6138
   37POPC   H9X 5015   0.738   4.266   7.836 -0.9160  1.9880 -0.9328
   37POPC   H9Y 5016   0.832   4.415   7.817 -0.4126 -0.2735  1.5859
   37POPC  C310 5017   0.901   4.301   7.986 -0.3061  0.4375 -0.0318
   37POPC  H10X 5018   1.005   4.342   7.987  0.7607 -2.0482 -0.4545
   37POPC  H10Y 5019   0.915   4.196   8.020 -2.5878 -0.3245 -1.2603
   37POPC  C311 5020   0.801   4.385   8.073 -0.4450 -0.2173 -0.0916
   37POPC  H11X 5021   0.700   4.344   8.052  0.4716 -1.5681 -2.1728
   37POPC  H11Y 5022   0.800   4.492   8.042  0.2313 -0.3863 -0.7320
   37POPC  C312 5023   0.826   4.392   8.234 -0.0711  0.2991  0.2047
   37POPC  H12X 5024   0.760   4.469   8.280 -1.0100 -0.8250  0.8000
   37POPC  H12Y 5025   0.933   4.416   8.254 -0.1389 -1.2438  2.8893
   37POPC  C313 5026   0.793   4.262   8.314  0.4202 -0.3372  0.3667
   37POPC  H13X 5027   0.721   4.205   8.252  0.9079 -0.1558 -0.3906
   37POPC  H13Y 5028   0.743   4.285   8.410  0.9378 -0.5021  0.6838
   37POPC  C314 5029   0.919   4.183   8.357  0.1226  0.4291  0.2357
   37POPC  H14X 5030   0.990   4.254   8.404  0.6135 -0.1382  0.3790
   37POPC  H14Y 5031   0.962   4.127   8.271  2.5334  2.0494  0.2818
   37POPC  C315 5032   0.885   4.070   8.458  0.7212  0.0221 -0.1609
   37POPC  H15X 5033   0.830   4.112   8.545  0.3300  1.7514 -1.2036
   37POPC  H15Y 5034   0.983   4.025   8.487  0.8215  0.1643 -0.2801
   37POPC  C316 5035   0.795   3.965   8.407  0.1577 -0.3812 -0.6145
   37POPC  H16X 5036   0.694   4.011   8.403  0.8823  1.1854 -2.3508
   37POPC  H16Y 5037   0.786   3.881   8.479  1.3157  0.3135  0.3852
   37POPC  H16Z 5038   0.823   3.947   8.301  0.1160  0.2941 -0.7412
   38POPC     N 5039   2.587   0.061   5.804 -0.8250  0.3587  0.7782
   38POPC   C12 5040   2.697   0.010   5.898 -0.1847  0.1423  0.9480
   38POPC  H12A 5041   2.776  -0.034   5.838 -0.7504  0.5722 -0.1312
   38POPC  H12B 5042   2.654  -0.064   5.964  1.7551  0.3777  2.5756
   38POPC   C13 5043   2.465   0.100   5.883 -0.0452  0.4082  0.2573
   38POPC  H13A 5044   2.482   0.171   5.963 -0.1831  0.2213  0.4542
   38POPC  H13B 5045   2.394   0.156   5.825 -1.5723 -0.0388  1.6353
   38POPC  H13C 5046   2.418   0.013   5.926  1.2359  0.1396  1.1970
   38POPC   C14 5047   2.635   0.183   5.723 -0.2279  0.4677  0.6025
   38POPC  H14A 5048   2.665   0.269   5.781 -0.6612  1.3356 -0.4074
   38POPC  H14B 5049   2.710   0.151   5.652 -1.7438 -0.3597 -0.6933
   38POPC  H14C 5050   2.545   0.220   5.677 -0.7603 -1.3961  0.1038
   38POPC   C15 5051   2.554  -0.048   5.704 -0.5963 -0.1228  0.0082
   38POPC  H15A 5052   2.494  -0.008   5.623 -1.2486  0.5823  0.8168
   38POPC  H15B 5053   2.500  -0.125   5.757 -0.1409 -0.3314  0.1745
   38POPC  H15C 5054   2.651  -0.088   5.679  0.4917  1.3211  1.6526
   38POPC   C11 5055   2.784   0.104   5.991  0.4568  0.6826 -0.4926
   38POPC  H11A 5056   2.843   0.157   5.913  0.4157 -1.3142 -1.9732
   38POPC  H11B 5057   2.853   0.056   6.063 -0.4764  0.1011  0.0258
   38POPC     P 5058   2.625   0.159   6.200 -0.3747  0.1503  0.0027
   38POPC   O13 5059   2.670   0.024   6.245  0.1087 -0.0393 -0.0786
   38POPC   O14 5060   2.480   0.176   6.203  0.5467  0.1598  0.1967
   38POPC   O12 5061   2.701   0.195   6.059  0.0589 -0.3827 -0.0198
   38POPC   O11 5062   2.693   0.257   6.308 -0.6013  0.1087  0.2381
   38POPC    C1 5063   2.705   0.395   6.276  0.9081  0.8717 -0.0622
   38POPC    HA 5064   2.608   0.430   6.233  1.3341  2.2296  0.0541
   38POPC    HB 5065   2.785   0.411   6.201  1.3563  0.1610  0.2551
   38POPC    C2 5066   2.720   0.478   6.404  0.0361  0.2984  0.0451
   38POPC    HS 5067   2.711   0.586   6.379 -0.7951  0.0342 -0.8389
   38POPC   O21 5068   2.851   0.436   6.462  0.4665 -0.4791  0.9072
   38POPC   C21 5069   2.939   0.530   6.473 -0.1379  0.0175 -0.2519
   38POPC   O22 5070   2.927   0.644   6.425  0.5724 -0.4525  1.0865
   38POPC   C22 5071   3.053   0.488   6.568  0.3945  0.2717  0.5056
   38POPC   H2R 5072   3.102   0.582   6.602 -2.5004  1.5638  1.4000
   38POPC   H2S 5073   3.118   0.432   6.497 -0.1515  2.1001 -1.5297
   38POPC    C3 5074   2.593   0.436   6.496 -0.1094 -0.1485  0.5475
   38POPC    HX 5075   2.579   0.326   6.510  1.5927 -0.5495 -0.6696
   38POPC    HY 5076   2.505   0.476   6.441  0.9110 -0.0476 -1.0556
   38POPC   O31 5077   2.606   0.498   6.625 -0.4163 -0.2120  0.2737
   38POPC   C31 5078   2.502   0.492   6.705  0.1751 -0.1854 -0.3989
   38POPC   O32 5079   2.402   0.435   6.678  0.6433 -0.0040  0.1240
   38POPC   C32 5080   2.529   0.564   6.832  0.3086  0.1121 -0.7353
   38POPC   H2X 5081   2.541   0.673   6.809  0.1561 -0.0954 -1.8859
   38POPC   H2Y 5082   2.631   0.531   6.861  0.3239  0.5995 -0.2113
   38POPC   C23 5083   3.017   0.408   6.694  0.1586 -0.3249  0.3350
   38POPC   H3R 5084   3.111   0.361   6.731 -0.3599  0.3734  2.6698
   38POPC   H3S 5085   2.940   0.330   6.677  0.1755 -0.2943  0.1064
   38POPC   C24 5086   2.977   0.512   6.802  0.5712  0.6455  0.8850
   38POPC   H4R 5087   2.883   0.567   6.780 -0.2333 -0.1307  2.2309
   38POPC   H4S 5088   3.056   0.589   6.816  2.7018 -1.3724  0.6172
   38POPC   C25 5089   2.951   0.451   6.941  0.1403  0.4939  0.8261
   38POPC   H5R 5090   3.050   0.414   6.973  1.8961  2.8556 -1.4346
   38POPC   H5S 5091   2.886   0.362   6.928  1.2334 -0.1990  0.0344
   38POPC   C26 5092   2.901   0.554   7.042  0.4782  0.4972 -0.1329
   38POPC   H6R 5093   2.803   0.605   7.029 -0.2090 -0.4822  0.9230
   38POPC   H6S 5094   2.977   0.633   7.056  1.3008 -0.5343  1.5164
   38POPC   C27 5095   2.896   0.488   7.182  0.1614 -0.5964 -0.7874
   38POPC   H7R 5096   2.997   0.463   7.221  0.6781  2.3936  0.0381
   38POPC   H7S 5097   2.831   0.398   7.173 -0.4506 -0.2778  0.2472
   38POPC   C28 5098   2.829   0.584   7.287  0.2066 -0.4917  0.0178
   38POPC   H8R 5099   2.815   0.522   7.378 -0.5769  0.9623  0.9101
   38POPC   H8S 5100   2.723   0.608   7.262  0.6988  0.6733 -1.0254
   38POPC   C29 5101   2.909   0.707   7.317  0.4746 -0.1314  1.0089
   38POPC   H91 5102   2.950   0.758   7.228  1.3081 -2.2826  0.1007
   38POPC  C210 5103   2.926   0.761   7.435 -0.4360 -0.5881 -0.4129
   38POPC  H101 5104   2.996   0.844   7.451 -0.8783 -0.4956  1.2359
   38POPC  C211 5105   2.871   0.704   7.560 -0.0468  0.5067 -0.6182
   38POPC  H11R 5106   2.780   0.645   7.538 -0.1247  0.5451 -0.4023
   38POPC  H11S 5107   2.861   0.777   7.643  1.1241  1.0481 -0.9306
   38POPC  C212 5108   2.974   0.610   7.629  0.2283  0.7387  0.2818
   38POPC  H12R 5109   3.071   0.662   7.642  0.1309  0.4301  2.6958
   38POPC  H12S 5110   2.994   0.520   7.567 -1.1869  0.7968 -0.2969
   38POPC  C213 5111   2.912   0.540   7.756  0.0297 -0.2035 -0.1436
   38POPC  H13R 5112   2.878   0.615   7.831  1.6310 -1.0146  1.4945
   38POPC  H13S 5113   2.983   0.469   7.804 -0.6084 -1.9187 -1.6512
   38POPC  C214 5114   2.792   0.451   7.724  0.7121  0.0893  0.2555
   38POPC  H14R 5115   2.835   0.384   7.646  0.1757  0.8318 -0.7076
   38POPC  H14S 5116   2.708   0.511   7.684  0.0385 -1.0532 -0.0692
   38POPC  C215 5117   2.742   0.362   7.841  0.4441 -0.9204  0.5426
   38POPC  H15R 5118   2.695   0.425   7.919  0.1675  0.4855 -0.7011
   38POPC  H15S 5119   2.824   0.296   7.875  0.8090 -1.4054 -1.1862
   38POPC  C216 5120   2.633   0.266   7.788  0.8199  0.3021  0.0340
   38POPC  H16R 5121   2.667   0.190   7.714  0.2764  0.2971 -0.2174
   38POPC  H16S 5122   2.568   0.332   7.726  2.7415  0.4194 -1.9959
   38POPC  C217 5123   2.547   0.198   7.903 -0.4938  0.1770  0.8446
   38POPC  H17R 5124   2.496   0.281   7.957 -0.4216  2.4549 -2.3177
   38POPC  H17S 5125   2.621   0.145   7.966  0.2062 -0.3805 -0.4073
   38POPC  C218 5126   2.442   0.102   7.849 -0.4656 -0.0530  0.0883
   38POPC  H18R 5127   2.355   0.167   7.825  0.2502  0.1986 -2.0711
   38POPC  H18S 5128   2.421   0.020   7.921 -0.3449  0.6303  0.9183
   38POPC  H18T 5129   2.483   0.061   7.754 -1.1852  2.1721 -1.2599
   38POPC   C33 5130   2.418   0.543   6.941 -0.4931 -0.2125 -0.0029
   38POPC   H3X 5131   2.371   0.445   6.919  1.3874 -0.8205 -1.5732
   38POPC   H3Y 5132   2.347   0.626   6.920  2.8545  4.0551  3.5740
   38POPC   C34 5133   2.457   0.543   7.090  0.0078  1.0397  0.5302
   38POPC   H4X 5134   2.501   0.644   7.105  0.7100  0.6221  1.3371
   38POPC   H4Y 5135   2.524   0.460   7.121 -2.8386 -1.6652 -0.0339
   38POPC   C35 5136   2.334   0.537   7.187  0.2704  0.4255  0.0308
   38POPC   H5X 5137   2.285   0.438   7.186 -0.4717  0.7696  1.1956
   38POPC   H5Y 5138   2.257   0.609   7.152  0.6422  0.2575 -1.1676
   38POPC   C36 5139   2.371   0.576   7.336 -0.4562  0.5808  0.1973
   38POPC   H6X 5140   2.439   0.664   7.344  1.4000 -0.8107  0.3402
   38POPC   H6Y 5141   2.425   0.495   7.389  0.7554 -1.1171 -3.3106
   38POPC   C37 5142   2.242   0.626   7.409 -0.1581  0.1401  1.1973
   38POPC   H7X 5143   2.164   0.548   7.403  2.0162 -2.0765 -0.5545
   38POPC   H7Y 5144   2.201   0.709   7.348  1.5501 -0.2494 -0.6284
   38POPC   C38 5145   2.262   0.658   7.554  0.0599 -0.2327  0.1999
   38POPC   H8X 5146   2.176   0.713   7.596  0.5275  0.4584  0.2728
   38POPC   H8Y 5147   2.341   0.736   7.560 -0.4914  0.3136  0.4997
   38POPC   C39 5148   2.298   0.535   7.640  0.0471  0.1609 -0.1114
   38POPC   H9X 5149   2.366   0.470   7.581 -0.8872  0.3711 -1.4630
   38POPC   H9Y 5150   2.210   0.468   7.654  0.5478 -0.8970 -1.7203
   38POPC  C310 5151   2.366   0.587   7.768 -0.8812  0.2408 -0.5406
   38POPC  H10X 5152   2.450   0.657   7.746 -0.2634 -1.2924 -3.5330
   38POPC  H10Y 5153   2.407   0.493   7.810 -2.4928  0.8925  2.8406
   38POPC  C311 5154   2.273   0.655   7.865 -0.1447  0.3482 -0.4842
   38POPC  H11X 5155   2.241   0.756   7.829 -1.1567  0.4872  0.7325
   38POPC  H11Y 5156   2.332   0.684   7.955  0.2745  0.1149 -0.6790
   38POPC  C312 5157   2.159   0.572   7.911  0.4358 -0.2160 -0.5012
   38POPC  H12X 5158   2.190   0.465   7.913 -2.2072 -1.0713  1.7700
   38POPC  H12Y 5159   2.077   0.573   7.836  1.1558 -0.4441 -1.3087
   38POPC  C313 5160   2.098   0.609   8.056 -0.0947 -0.1454  0.1635
   38POPC  H13X 5161   2.059   0.710   8.034 -0.9613  0.0655  2.4269
   38POPC  H13Y 5162   2.187   0.628   8.121 -0.8722 -1.1331  1.5755
   38POPC  C314 5163   2.003   0.500   8.109 -0.5690  0.2493  0.3798
   38POPC  H14X 5164   2.056   0.412   8.151 -1.4589 -1.0535 -1.1250
   38POPC  H14Y 5165   1.946   0.468   8.019  0.6194  3.5386 -1.6974
   38POPC  C315 5166   1.889   0.548   8.208 -0.7040 -0.9850 -0.1561
   38POPC  H15X 5167   1.815   0.467   8.223 -0.1677 -1.8149 -1.7932
   38POPC  H15Y 5168   1.828   0.628   8.159  0.4788 -1.0083 -1.7518
   38POPC  C316 5169   1.952   0.594   8.342 -0.4328  0.2609 -0.4174
   38POPC  H16X 5170   1.957   0.512   8.416  0.1022  2.4885  2.1968
   38POPC  H16Y 5171   1.880   0.666   8.386 -1.1996 -0.9458  0.3722
   38POPC  H16Z 5172   2.056   0.631   8.327 -0.2925  0.5129  0.9952
   39POPC     N 5173   6.274   2.063   5.891 -0.0024 -0.1911 -1.0102
   39POPC   C12 5174   6.414   2.025   5.935 -0.3789  0.2415  0.6492
   39POPC  H12A 5175   6.478   2.111   5.949  0.4802 -0.5343  1.6400
   39POPC  H12B 5176   6.458   1.961   5.860 -1.5992  1.1502 -0.9324
   39POPC   C13 5177   6.193   1.945   5.852  0.2636  0.2785 -0.3205
   39POPC  H13A 5178   6.085   1.947   5.858  0.0134 -0.5374 -3.1330
   39POPC  H13B 5179   6.223   1.912   5.753  0.5542 -0.8629  0.1332
   39POPC  H13C 5180   6.216   1.866   5.921 -1.4643 -2.0296 -2.1993
   39POPC   C14 5181   6.199   2.141   6.000 -0.2834  0.2683  0.9445
   39POPC  H14A 5182   6.266   2.223   6.021  1.4129 -0.7647 -0.0868
   39POPC  H14B 5183   6.102   2.174   5.967 -1.3642 -2.1261  1.4612
   39POPC  H14C 5184   6.205   2.082   6.090  0.2415  1.1269  1.4901
   39POPC   C15 5185   6.273   2.135   5.763  0.7253 -0.0539 -0.3353
   39POPC  H15A 5186   6.169   2.162   5.748  0.7943 -0.1487 -0.9781
   39POPC  H15B 5187   6.298   2.068   5.683  0.1584  0.4602 -0.9562
   39POPC  H15C 5188   6.334   2.224   5.763  1.0146 -0.2344  0.8625
   39POPC   C11 5189   6.422   1.938   6.062 -0.5727  0.1404  0.3163
   39POPC  H11A 5190   6.530   1.910   6.062 -0.5030  0.3839  0.9804
   39POPC  H11B 5191   6.370   1.841   6.054  0.8393 -0.4979 -2.0564
   39POPC     P 5192   6.482   2.113   6.251 -0.1108  0.0632  0.1010
   39POPC   O13 5193   6.470   2.240   6.178 -0.8858  0.2965  0.5066
   39POPC   O14 5194   6.620   2.050   6.267  0.4903  0.1746  0.2962
   39POPC   O12 5195   6.387   1.998   6.188 -0.1865  0.5520 -0.8340
   39POPC   O11 5196   6.422   2.140   6.394 -0.0346 -0.3649  0.1808
   39POPC    C1 5197   6.359   2.038   6.466  0.0332 -0.0941 -0.0153
   39POPC    HA 5198   6.412   1.940   6.457 -1.0717 -0.5355 -2.3401
   39POPC    HB 5199   6.265   2.014   6.412  0.6327 -0.0585 -1.1109
   39POPC    C2 5200   6.349   2.077   6.616 -0.3473 -0.5321  0.0242
   39POPC    HS 5201   6.241   2.083   6.641 -0.4601  1.7857 -0.7634
   39POPC   O21 5202   6.414   2.205   6.645  0.0080 -0.0504  0.1390
   39POPC   C21 5203   6.362   2.271   6.750  0.1557  0.0620  0.0496
   39POPC   O22 5204   6.262   2.236   6.804 -0.0890 -0.4868 -0.4983
   39POPC   C22 5205   6.456   2.385   6.795  0.2855 -0.6315  0.2177
   39POPC   H2R 5206   6.496   2.429   6.701  1.3146 -0.2065  0.8412
   39POPC   H2S 5207   6.549   2.341   6.836  0.4593  0.3695  0.9434
   39POPC    C3 5208   6.416   1.962   6.703  0.0051 -0.6352  0.2509
   39POPC    HX 5209   6.527   1.964   6.692  0.1114 -0.7249  1.1820
   39POPC    HY 5210   6.379   1.860   6.678 -0.4018 -0.2785 -0.6314
   39POPC   O31 5211   6.389   1.993   6.845 -0.0942 -0.4697 -0.2090
   39POPC   C31 5212   6.284   1.943   6.905  0.9616  0.0986 -0.4913
   39POPC   O32 5213   6.207   1.856   6.863  0.5233 -0.9474 -0.0230
   39POPC   C32 5214   6.268   2.010   7.044 -0.7485  0.2441 -0.2328
   39POPC   H2X 5215   6.361   2.031   7.101 -0.0230  3.3305 -2.2924
   39POPC   H2Y 5216   6.226   2.110   7.020 -1.1449  0.9503  2.9519
   39POPC   C23 5217   6.392   2.499   6.873 -0.2277  0.5474 -0.4799
   39POPC   H3R 5218   6.305   2.529   6.811 -1.8933  0.0134  1.4900
   39POPC   H3S 5219   6.466   2.581   6.888 -1.2371  1.3686  0.1458
   39POPC   C24 5220   6.353   2.454   7.014 -0.9164  0.3363 -0.0808
   39POPC   H4R 5221   6.433   2.397   7.065 -0.8907  0.1561 -0.3178
   39POPC   H4S 5222   6.275   2.375   7.015 -0.1188 -0.5820 -2.4593
   39POPC   C25 5223   6.305   2.573   7.102  1.0000  0.2832 -0.1826
   39POPC   H5R 5224   6.211   2.611   7.056  0.0179 -2.0856 -0.2937
   39POPC   H5S 5225   6.385   2.649   7.099 -1.2350  2.9591  1.9176
   39POPC   C26 5226   6.277   2.548   7.251  0.0489 -0.3030 -0.0043
   39POPC   H6R 5227   6.349   2.471   7.285  0.3074 -0.8840 -1.7780
   39POPC   H6S 5228   6.176   2.506   7.270  0.0895  0.4415  2.0798
   39POPC   C27 5229   6.285   2.670   7.349 -0.2549 -0.1792  0.0834
   39POPC   H7R 5230   6.209   2.747   7.322 -2.8154 -1.4961  2.9913
   39POPC   H7S 5231   6.384   2.719   7.353 -0.8918  1.0548  1.8425
   39POPC   C28 5232   6.265   2.615   7.489 -0.1546 -0.1849 -0.6563
   39POPC   H8R 5233   6.292   2.702   7.552  1.8774 -1.7003  0.7279
   39POPC   H8S 5234   6.347   2.543   7.510  0.2804  0.8608  1.5266
   39POPC   C29 5235   6.137   2.556   7.528 -0.7761  0.3961  0.1218
   39POPC   H91 5236   6.048   2.590   7.474 -2.1773  0.3618  2.2979
   39POPC  C210 5237   6.125   2.479   7.628 -0.5009 -0.1132 -0.2112
   39POPC  H101 5238   6.028   2.428   7.636 -1.1299  1.0349 -0.3435
   39POPC  C211 5239   6.221   2.430   7.735  0.3392  0.3789  0.7382
   39POPC  H11R 5240   6.312   2.492   7.719 -0.9319  1.8501 -1.3594
   39POPC  H11S 5241   6.255   2.325   7.727  0.8266  0.4047  2.2545
   39POPC  C212 5242   6.173   2.458   7.878 -0.2985 -0.1318 -0.1469
   39POPC  H12R 5243   6.075   2.412   7.904  0.3401 -1.4747 -0.0551
   39POPC  H12S 5244   6.154   2.567   7.878 -0.0530 -0.0797  0.7498
   39POPC  C213 5245   6.286   2.424   7.979  0.8850 -0.6433  0.9563
   39POPC  H13R 5246   6.381   2.470   7.944  0.9782  1.0592  3.2087
   39POPC  H13S 5247   6.298   2.313   7.974 -1.7856 -0.9568  0.1209
   39POPC  C214 5248   6.245   2.460   8.122  0.2352 -0.7714  0.2683
   39POPC  H14R 5249   6.135   2.477   8.128  0.1515  0.0949 -2.2501
   39POPC  H14S 5250   6.295   2.557   8.144 -0.1142  0.1000 -2.3890
   39POPC  C215 5251   6.292   2.349   8.217 -0.5907  0.4624 -0.1577
   39POPC  H15R 5252   6.400   2.330   8.201  0.1842  2.3891  2.1770
   39POPC  H15S 5253   6.230   2.257   8.209 -2.1152  1.3549  0.9357
   39POPC  C216 5254   6.264   2.390   8.359 -0.3895 -0.3337 -0.1915
   39POPC  H16R 5255   6.153   2.390   8.364 -0.3372 -0.7874  1.0815
   39POPC  H16S 5256   6.308   2.488   8.384  1.3394 -1.5488  1.8391
   39POPC  C217 5257   6.313   2.298   8.472 -0.6232  0.4120  0.6753
   39POPC  H17R 5258   6.423   2.284   8.467 -0.8948 -2.9106  1.2461
   39POPC  H17S 5259   6.268   2.197   8.456 -0.8602 -0.0749  3.7837
   39POPC  C218 5260   6.268   2.347   8.602 -0.0697 -0.2672 -0.2232
   39POPC  H18R 5261   6.315   2.442   8.633  0.4916 -0.5942 -0.0631
   39POPC  H18S 5262   6.301   2.279   8.684  1.7926  0.0287 -0.6889
   39POPC  H18T 5263   6.158   2.366   8.600  0.1830  1.3922 -2.5627
   39POPC   C33 5264   6.164   1.932   7.125 -0.6451  0.1882  0.1240
   39POPC   H3X 5265   6.208   1.832   7.146 -2.0366 -0.4175  0.2482
   39POPC   H3Y 5266   6.073   1.911   7.064 -1.0307 -1.0040  1.0652
   39POPC   C34 5267   6.121   1.996   7.260 -0.8554  0.2952 -0.0455
   39POPC   H4X 5268   6.215   2.048   7.292 -0.9512  1.2180 -1.1652
   39POPC   H4Y 5269   6.099   1.912   7.329  3.3165 -0.8573  0.1862
   39POPC   C35 5270   6.001   2.085   7.256 -0.1256  0.1218  0.4014
   39POPC   H5X 5271   5.923   2.049   7.186  0.4255 -0.6382  0.1687
   39POPC   H5Y 5272   6.035   2.183   7.218  1.4691 -0.3165  0.6067
   39POPC   C36 5273   5.936   2.117   7.394  0.0904  0.3421 -0.2573
   39POPC   H6X 5274   5.849   2.185   7.381  0.0235 -0.0076 -1.8752
   39POPC   H6Y 5275   6.012   2.185   7.438  1.3933 -1.0738 -0.2659
   39POPC   C37 5276   5.917   2.005   7.500 -0.2255 -0.1235 -0.2689
   39POPC   H7X 5277   6.017   1.959   7.510 -0.1626  0.0594 -0.0709
   39POPC   H7Y 5278   5.840   1.932   7.467 -1.9122  1.7838 -0.7539
   39POPC   C38 5279   5.877   2.053   7.646  0.1481 -0.2358 -0.4992
   39POPC   H8X 5280   5.768   2.078   7.644  0.1486 -0.1577  0.1188
   39POPC   H8Y 5281   5.922   2.154   7.660 -2.8765  1.3720 -1.4961
   39POPC   C39 5282   5.911   1.957   7.760 -0.4187  0.4535 -0.6945
   39POPC   H9X 5283   6.020   1.945   7.777 -0.9322 -2.2887  1.3650
   39POPC   H9Y 5284   5.870   1.856   7.738 -0.7831  0.6644 -0.9968
   39POPC  C310 5285   5.840   2.011   7.893  0.1511 -0.2347  0.4643
   39POPC  H10X 5286   5.824   1.917   7.949 -2.1977 -0.9330 -1.1667
   39POPC  H10Y 5287   5.736   2.044   7.870 -0.4933 -2.4318 -0.0549
   39POPC  C311 5288   5.927   2.118   7.964  0.3907  0.9852 -0.5838
   39POPC  H11X 5289   5.943   2.207   7.899  2.5001  0.7644 -0.4222
   39POPC  H11Y 5290   6.028   2.084   7.992  1.2121  3.4496 -0.3269
   39POPC  C312 5291   5.852   2.153   8.090  0.3021  0.4816 -1.0941
   39POPC  H12X 5292   5.818   2.059   8.139 -0.2314 -0.2303 -2.7646
   39POPC  H12Y 5293   5.761   2.212   8.065  0.9478  1.8499 -0.3561
   39POPC  C313 5294   5.937   2.240   8.181 -0.4894  0.5486 -0.2403
   39POPC  H13X 5295   5.985   2.317   8.118  3.6076 -0.0395  1.7895
   39POPC  H13Y 5296   6.018   2.188   8.238 -1.0769  1.3718  1.4243
   39POPC  C314 5297   5.862   2.325   8.282  0.3290 -0.0136 -0.3461
   39POPC  H14X 5298   5.947   2.362   8.344 -1.4144  2.4346  0.7541
   39POPC  H14Y 5299   5.794   2.268   8.348 -2.1047  3.2772  0.2453
   39POPC  C315 5300   5.766   2.442   8.235 -0.0113  1.0908 -0.2268
   39POPC  H15X 5301   5.677   2.411   8.177 -1.7790  1.1194  2.3079
   39POPC  H15Y 5302   5.836   2.494   8.166 -1.8357  2.5737 -1.0368
   39POPC  C316 5303   5.721   2.537   8.348  0.5871 -0.3969  0.4000
   39POPC  H16X 5304   5.669   2.627   8.311  0.5062 -0.6899 -0.2162
   39POPC  H16Y 5305   5.812   2.578   8.396 -0.5061  1.0064  1.3537
   39POPC  H16Z 5306   5.669   2.487   8.433 -1.7871 -1.8273 -1.7414
   40POPC     N 5307   2.428   1.918   5.838 -0.1146  0.2193  0.4064
   40POPC   C12 5308   2.447   2.057   5.910  0.1889  0.3321  0.0423
   40POPC  H12A 5309   2.413   2.136   5.845 -1.3248  0.7279  1.2587
   40POPC  H12B 5310   2.552   2.061   5.936 -0.3013  0.5942  2.1412
   40POPC   C13 5311   2.281   1.903   5.803  0.0548  0.0550  0.0300
   40POPC  H13A 5312   2.217   1.903   5.890 -0.3427 -0.4056 -0.2556
   40POPC  H13B 5313   2.255   1.980   5.731 -0.3385  0.0035  0.1123
   40POPC  H13C 5314   2.257   1.805   5.765 -1.7328  0.3456  0.3313
   40POPC   C14 5315   2.502   1.932   5.706 -1.1083 -0.3745  0.2582
   40POPC  H14A 5316   2.466   1.858   5.637 -0.0398 -0.7103  0.0431
   40POPC  H14B 5317   2.483   2.033   5.670  1.6720  0.7063  1.4954
   40POPC  H14C 5318   2.609   1.922   5.706 -1.0093  0.5489 -0.5091
   40POPC   C15 5319   2.464   1.806   5.923 -0.4579  0.3672 -0.6864
   40POPC  H15A 5320   2.470   1.709   5.874 -1.0767 -0.2356  0.4065
   40POPC  H15B 5321   2.399   1.790   6.007  1.1445  0.5944  0.6537
   40POPC  H15C 5322   2.561   1.823   5.968 -1.6508  1.1175  1.7714
   40POPC   C11 5323   2.374   2.073   6.041 -0.1366  0.3596 -0.1638
   40POPC  H11A 5324   2.409   2.165   6.093 -0.9331  0.5783 -0.0023
   40POPC  H11B 5325   2.404   1.992   6.111 -0.2474 -0.0618 -0.6059
   40POPC     P 5326   2.131   2.004   6.137 -0.4595 -0.6017 -0.6246
   40POPC   O13 5327   2.135   1.863   6.108 -0.2353  0.8942 -0.6178
   40POPC   O14 5328   1.998   2.075   6.129 -0.4528 -0.6947 -0.2254
   40POPC   O12 5329   2.235   2.079   6.033  0.6741  0.2143  0.0435
   40POPC   O11 5330   2.203   2.043   6.275  0.1090 -0.4077 -0.0475
   40POPC    C1 5331   2.202   1.963   6.396 -0.0532  0.6663  0.0896
   40POPC    HA 5332   2.178   1.858   6.369 -1.3394  0.8681  0.3865
   40POPC    HB 5333   2.140   2.003   6.480  1.6659  0.8680  1.3179
   40POPC    C2 5334   2.342   1.943   6.462 -0.3110  0.3478 -0.8315
   40POPC    HS 5335   2.412   1.897   6.389  0.2586 -3.3590  1.7977
   40POPC   O21 5336   2.323   1.849   6.569  0.3533  0.3946  0.0296
   40POPC   C21 5337   2.430   1.775   6.597 -0.3461 -0.1499 -0.0846
   40POPC   O22 5338   2.540   1.796   6.551  0.0520 -0.1800 -0.3817
   40POPC   C22 5339   2.387   1.664   6.695 -0.0873  0.1516  0.3503
   40POPC   H2R 5340   2.477   1.600   6.709 -0.5241 -1.4144 -2.9327
   40POPC   H2S 5341   2.310   1.596   6.653  0.4002  0.0177 -0.3411
   40POPC    C3 5342   2.409   2.067   6.534  0.8320  0.1721  0.2885
   40POPC    HX 5343   2.426   2.146   6.457  0.9148 -1.0962 -1.0527
   40POPC    HY 5344   2.510   2.040   6.571  0.8440  1.9315  1.6390
   40POPC   O31 5345   2.328   2.109   6.644  0.0601 -0.8479  0.0945
   40POPC   C31 5346   2.325   2.237   6.674  0.0931 -0.4907  1.0566
   40POPC   O32 5347   2.391   2.328   6.628  0.1454  0.1835 -0.0732
   40POPC   C32 5348   2.227   2.239   6.795 -0.3218  0.1500 -0.5729
   40POPC   H2X 5349   2.273   2.167   6.866 -0.5345  1.0996  0.5577
   40POPC   H2Y 5350   2.129   2.192   6.768 -1.5499  0.6849  2.5425
   40POPC   C23 5351   2.326   1.727   6.824 -0.0483 -0.0068 -0.0424
   40POPC   H3R 5352   2.274   1.643   6.874 -0.5420  0.1248 -0.3343
   40POPC   H3S 5353   2.242   1.793   6.794  0.1720  0.3035  0.0192
   40POPC   C24 5354   2.431   1.777   6.912  0.0662 -0.1269 -0.0964
   40POPC   H4R 5355   2.385   1.848   6.985 -1.0078 -1.4569  0.5684
   40POPC   H4S 5356   2.496   1.838   6.845  1.8079 -1.2724  0.4968
   40POPC   C25 5357   2.513   1.670   6.985 -0.1804 -0.1335 -0.0845
   40POPC   H5R 5358   2.610   1.714   7.018 -0.4755 -0.1962  0.9151
   40POPC   H5S 5359   2.529   1.586   6.913  2.4117  0.5136 -0.3608
   40POPC   C26 5360   2.455   1.610   7.113  0.7007 -0.1776 -0.2266
   40POPC   H6R 5361   2.354   1.573   7.086  1.1012 -0.9449 -0.7243
   40POPC   H6S 5362   2.438   1.687   7.192  0.3452  1.6236 -1.9672
   40POPC   C27 5363   2.545   1.483   7.148 -0.0805 -0.0129  0.8915
   40POPC   H7R 5364   2.649   1.521   7.161  0.7427 -1.0972 -1.8157
   40POPC   H7S 5365   2.541   1.412   7.063 -0.5493  0.8766  0.1496
   40POPC   C28 5366   2.505   1.414   7.274 -0.0403 -0.3093  0.0002
   40POPC   H8R 5367   2.511   1.498   7.346 -1.5036  2.1103 -2.4858
   40POPC   H8S 5368   2.575   1.334   7.305  0.7486  1.2211  2.4296
   40POPC   C29 5369   2.368   1.355   7.265 -0.3699  0.5324  0.3824
   40POPC   H91 5370   2.349   1.274   7.193  2.1532 -1.6480  1.9863
   40POPC  C210 5371   2.259   1.397   7.340 -0.3059 -0.8324 -0.4635
   40POPC  H101 5372   2.174   1.328   7.355  0.3839 -1.2930  1.6844
   40POPC  C211 5373   2.270   1.500   7.454  0.7819 -0.1027  0.4497
   40POPC  H11R 5374   2.321   1.590   7.414 -0.6494 -0.6692 -3.1298
   40POPC  H11S 5375   2.311   1.460   7.549 -0.4135  0.3932  1.2043
   40POPC  C212 5376   2.143   1.574   7.487 -0.4722  0.4468 -0.5339
   40POPC  H12R 5377   2.070   1.591   7.405 -1.3421  0.2339  0.1904
   40POPC  H12S 5378   2.176   1.675   7.519 -0.2811  0.5105 -0.9148
   40POPC  C213 5379   2.059   1.511   7.601  0.0336 -0.0213 -0.2237
   40POPC  H13R 5380   2.117   1.490   7.694 -1.0823 -0.5022  0.3758
   40POPC  H13S 5381   2.036   1.410   7.560  0.9781 -1.4513  2.4979
   40POPC  C214 5382   1.939   1.592   7.638  0.2789  0.1421  0.6850
   40POPC  H14R 5383   1.868   1.607   7.554 -1.5352 -2.9039  1.5328
   40POPC  H14S 5384   1.970   1.696   7.662  1.0523  0.4226 -1.3207
   40POPC  C215 5385   1.859   1.532   7.757 -0.0407 -0.0490 -0.6736
   40POPC  H15R 5386   1.914   1.537   7.853 -1.6646 -0.1493  0.2970
   40POPC  H15S 5387   1.836   1.424   7.743  0.7343 -0.7691  2.7376
   40POPC  C216 5388   1.730   1.613   7.791 -0.0278 -0.0169 -0.0118
   40POPC  H16R 5389   1.665   1.601   7.702  0.4661  1.5853 -0.6229
   40POPC  H16S 5390   1.755   1.722   7.791  0.2975 -0.0248 -2.7620
   40POPC  C217 5391   1.668   1.565   7.920  0.5753  0.0247 -0.3498
   40POPC  H17R 5392   1.654   1.455   7.913 -2.0920  0.1995  0.8825
   40POPC  H17S 5393   1.562   1.597   7.933  0.4041 -1.3687  2.3779
   40POPC  C218 5394   1.752   1.589   8.053  0.5170  0.5499 -0.9991
   40POPC  H18R 5395   1.844   1.527   8.050 -0.0788 -0.5756  1.4238
   40POPC  H18S 5396   1.690   1.551   8.138  1.4900 -0.5024 -0.7290
   40POPC  H18T 5397   1.783   1.695   8.066  0.9306  0.3859 -0.6218
   40POPC   C33 5398   2.220   2.373   6.860  0.2066 -0.6085 -0.2173
   40POPC   H3X 5399   2.171   2.441   6.787 -1.6723 -0.8926  0.7282
   40POPC   H3Y 5400   2.321   2.412   6.884 -0.3901  2.3133 -1.9570
   40POPC   C34 5401   2.134   2.376   6.990  0.2076 -0.3258 -0.2564
   40POPC   H4X 5402   2.042   2.314   6.989 -0.9758  1.3263 -3.1602
   40POPC   H4Y 5403   2.103   2.482   6.991  0.1061 -0.3440  1.3792
   40POPC   C35 5404   2.226   2.371   7.119  0.0727  0.0695 -0.3147
   40POPC   H5X 5405   2.203   2.465   7.174 -2.1749 -1.0823  0.8863
   40POPC   H5Y 5406   2.334   2.382   7.095  0.4252  1.1346  1.5286
   40POPC   C36 5407   2.198   2.243   7.208  0.1247 -0.2011  0.9359
   40POPC   H6X 5408   2.214   2.165   7.130  2.1083 -0.9644  2.0241
   40POPC   H6Y 5409   2.092   2.234   7.239 -0.5994 -1.4250 -1.5819
   40POPC   C37 5410   2.290   2.237   7.327 -0.1117 -0.4244 -1.0600
   40POPC   H7X 5411   2.393   2.254   7.288  0.2527  1.5155  0.5467
   40POPC   H7Y 5412   2.276   2.132   7.359 -1.2460  0.1173  0.3147
   40POPC   C38 5413   2.268   2.344   7.428 -0.0321  0.0498 -0.8384
   40POPC   H8X 5414   2.162   2.376   7.425 -0.1565  0.1138  1.8519
   40POPC   H8Y 5415   2.319   2.441   7.413  0.1557  0.4032  1.6565
   40POPC   C39 5416   2.293   2.303   7.577 -0.1681 -0.0499 -1.1739
   40POPC   H9X 5417   2.259   2.198   7.567  0.1349  0.0599 -4.1040
   40POPC   H9Y 5418   2.227   2.348   7.655  0.9661 -0.3316 -0.0087
   40POPC  C310 5419   2.438   2.313   7.634  0.1541 -0.5709  0.1819
   40POPC  H10X 5420   2.460   2.422   7.631 -2.8506  0.1423  0.8327
   40POPC  H10Y 5421   2.508   2.260   7.566  1.5649  0.4261  0.8069
   40POPC  C311 5422   2.472   2.263   7.777  0.1115 -0.1820  0.4054
   40POPC  H11X 5423   2.406   2.175   7.793 -2.1226  0.7529 -2.6653
   40POPC  H11Y 5424   2.449   2.345   7.847 -1.4390  1.7187 -2.1512
   40POPC  C312 5425   2.614   2.218   7.777 -0.1223 -0.8425  0.0094
   40POPC  H12X 5426   2.688   2.281   7.722 -1.9473 -1.9047 -4.0331
   40POPC  H12Y 5427   2.618   2.116   7.732  0.3453 -0.2785 -1.2531
   40POPC  C313 5428   2.660   2.213   7.930 -0.0877  0.0800 -0.1377
   40POPC  H13X 5429   2.674   2.318   7.962 -0.5884  0.3545 -0.8026
   40POPC  H13Y 5430   2.760   2.164   7.925  0.4780  1.0435  1.1644
   40POPC  C314 5431   2.569   2.129   8.024 -0.1265  0.1098 -0.0133
   40POPC  H14X 5432   2.562   2.026   7.984 -1.4375 -0.4547  1.5810
   40POPC  H14Y 5433   2.466   2.168   8.021 -0.1938 -0.0772 -0.1787
   40POPC  C315 5434   2.622   2.126   8.166  0.5898 -0.5470  0.1214
   40POPC  H15X 5435   2.624   2.225   8.216 -1.2817 -0.8419  0.8342
   40POPC  H15Y 5436   2.728   2.092   8.169  1.2060  0.9926 -1.8356
   40POPC  C316 5437   2.543   2.024   8.254  0.1116  0.2538 -0.0285
   40POPC  H16X 5438   2.439   2.056   8.277 -0.2855  0.1567 -1.5729
   40POPC  H16Y 5439   2.589   2.012   8.355 -0.2393  1.0167  0.2351
   40POPC  H16Z 5440   2.536   1.936   8.187  1.1683  0.7546 -0.8325
   41CHL1    C3 5441   3.261   5.812  10.055 -0.5766  0.8581 -0.7989
   41CHL1    H3 5442   3.272   5.702  10.050  0.5667  0.8963  0.3385
   41CHL1    O3 5443   3.219   5.830  10.185  0.2403  0.4237  0.0957
   41CHL1   H3' 5444   3.196   5.922  10.197 -0.5479  0.4995 -1.6498
   41CHL1    C4 5445   3.387   5.898  10.038 -1.0505  1.0623  0.4776
   41CHL1   H4A 5446   3.373   6.003  10.073 -0.4490  0.8587  1.3724
   41CHL1   H4B 5447   3.466   5.860  10.106 -1.1238  1.1734  0.6250
   41CHL1    C5 5448   3.436   5.907   9.895 -0.5310  0.2218  0.2192
   41CHL1    C6 5449   3.556   5.862   9.857 -0.5080  0.0128  0.3124
   41CHL1    H6 5450   3.618   5.810   9.932 -1.6579 -2.6524 -0.4665
   41CHL1    C7 5451   3.604   5.859   9.716 -0.4667 -0.4046 -0.2037
   41CHL1   H7A 5452   3.713   5.880   9.718 -0.6334  0.5462  2.4086
   41CHL1   H7B 5453   3.593   5.756   9.674  0.0993 -0.9370  0.9045
   41CHL1    C8 5454   3.525   5.944   9.623 -0.8909  0.0592  0.6132
   41CHL1    H8 5455   3.557   6.050   9.633  1.5926 -0.7511  2.0144
   41CHL1   C14 5456   3.559   5.911   9.477 -0.1645  0.3155  0.0380
   41CHL1   H14 5457   3.514   5.812   9.456 -1.1354  0.5070  1.1311
   41CHL1   C15 5458   3.703   5.906   9.439 -0.0856  0.8294 -1.1599
   41CHL1  H15A 5459   3.748   5.993   9.491  0.0056 -0.2975  0.7431
   41CHL1  H15B 5460   3.757   5.813   9.466  0.0689  0.7709 -1.6664
   41CHL1   C16 5461   3.708   5.912   9.289 -0.8345 -0.2102 -0.0888
   41CHL1  H16A 5462   3.764   6.004   9.261 -1.0995  0.0911  0.3665
   41CHL1  H16B 5463   3.750   5.823   9.238  0.4521  1.3938 -1.9554
   41CHL1   C17 5464   3.558   5.933   9.247 -1.0230 -0.4506  0.7598
   41CHL1   H17 5465   3.514   5.831   9.242 -1.0123 -0.4770  1.1923
   41CHL1   C13 5466   3.492   5.998   9.370  1.2984  0.1386 -0.3511
   41CHL1   C18 5467   3.531   6.141   9.367 -0.5334 -0.6794  0.7738
   41CHL1  H18A 5468   3.447   6.190   9.313 -0.9141 -1.0224  1.0489
   41CHL1  H18B 5469   3.532   6.191   9.466 -0.5444 -0.3803  0.6269
   41CHL1  H18C 5470   3.625   6.167   9.314  0.6768 -1.2964  2.5324
   41CHL1   C12 5471   3.332   5.981   9.388  0.4248  0.1662  0.1301
   41CHL1  H12A 5472   3.272   6.040   9.316 -0.3263 -1.9533 -1.0492
   41CHL1  H12B 5473   3.313   5.879   9.351 -0.6657 -0.7226  2.8703
   41CHL1   C11 5474   3.297   5.998   9.540 -0.0392  0.0748  0.1991
   41CHL1  H11A 5475   3.297   6.107   9.562  0.5574 -0.0778  0.9621
   41CHL1  H11B 5476   3.190   5.966   9.544 -0.8255  2.6107  2.2368
   41CHL1    C9 5477   3.381   5.919   9.641 -0.1530 -0.1243 -0.2040
   41CHL1    H9 5478   3.365   5.811   9.617  1.7934  0.1102 -2.9895
   41CHL1   C10 5479   3.334   5.946   9.787  0.0339  0.0525  0.4962
   41CHL1   C19 5480   3.329   6.105   9.810 -0.3475  0.3853 -0.2177
   41CHL1  H19A 5481   3.427   6.155   9.790  1.0094 -2.0894 -0.1145
   41CHL1  H19B 5482   3.251   6.158   9.751 -2.0394  0.8865  2.3340
   41CHL1  H19C 5483   3.301   6.124   9.916  0.7839  0.4297  0.0894
   41CHL1    C1 5484   3.193   5.884   9.811  0.8042 -0.1453  0.6330
   41CHL1   H1A 5485   3.112   5.947   9.769  2.1504  1.7584  0.7427
   41CHL1   H1B 5486   3.199   5.789   9.755 -0.9132  0.1790 -0.1506
   41CHL1    C2 5487   3.150   5.865   9.964 -0.3781  0.0361  0.6459
   41CHL1   H2A 5488   3.067   5.792   9.977 -0.3899 -0.1300 -0.2686
   41CHL1   H2B 5489   3.122   5.969   9.992 -0.9324  1.2296 -3.5095
   41CHL1   C20 5490   3.543   5.986   9.102 -0.2803  0.1633  0.3285
   41CHL1   H20 5491   3.586   6.088   9.102  0.5625 -0.1861  0.0903
   41CHL1   C21 5492   3.397   5.985   9.067 -0.0429 -0.2260  0.5131
   41CHL1  H21A 5493   3.341   6.064   9.123  1.4351 -0.3378  2.2291
   41CHL1  H21B 5494   3.356   5.884   9.088  2.9574 -2.2885 -2.3781
   41CHL1  H21C 5495   3.385   6.011   8.959  1.6866 -1.7394 -0.0882
   41CHL1   C22 5496   3.612   5.897   8.993  0.1270 -0.5211  0.0244
   41CHL1  H22A 5497   3.713   5.866   9.028  0.8133  1.7301  0.2009
   41CHL1  H22B 5498   3.553   5.809   8.960 -0.7962 -0.3939  1.2626
   41CHL1   C23 5499   3.639   5.981   8.867 -0.5340 -0.5860 -0.1075
   41CHL1  H23A 5500   3.541   6.024   8.836 -0.0118  1.7293  1.2258
   41CHL1  H23B 5501   3.698   6.070   8.896  0.1136 -1.2155  0.5616
   41CHL1   C24 5502   3.703   5.908   8.753  0.4923  0.6674 -0.1268
   41CHL1  H24A 5503   3.734   5.990   8.685 -1.5099  1.6340  0.0352
   41CHL1  H24B 5504   3.787   5.855   8.801  0.5252  1.3115  0.5545
   41CHL1   C25 5505   3.609   5.810   8.679  1.1170  0.4474  0.2903
   41CHL1   H25 5506   3.536   5.764   8.750  1.0918 -0.8406 -0.5458
   41CHL1   C26 5507   3.524   5.870   8.569 -0.2744 -0.3348  0.2730
   41CHL1  H26A 5508   3.466   5.793   8.515  0.2534 -1.0740  0.7484
   41CHL1  H26B 5509   3.450   5.940   8.616  0.5694  1.0507 -0.3955
   41CHL1  H26C 5510   3.584   5.930   8.498 -2.1627  0.4572 -0.7383
   41CHL1   C27 5511   3.680   5.687   8.633 -0.0697 -0.3171 -0.3010
   41CHL1  H27A 5512   3.756   5.712   8.556 -1.9865  0.9394 -1.8840
   41CHL1  H27B 5513   3.732   5.646   8.722  0.3696 -0.3017 -0.5489
   41CHL1  H27C 5514   3.613   5.607   8.595 -2.5534  2.4559 -2.2332
   42CHL1    C3 5515   2.705   5.845   9.779 -0.3157 -0.4748 -0.0480
   42CHL1    H3 5516   2.663   5.747   9.746 -2.3004  1.1226 -2.6290
   42CHL1    O3 5517   2.695   5.856   9.913 -0.4486 -0.0905 -0.1125
   42CHL1   H3' 5518   2.702   5.947   9.940  0.1467 -0.4913  1.1763
   42CHL1    C4 5519   2.850   5.849   9.723 -0.2722  0.2491 -0.1441
   42CHL1   H4A 5520   2.902   5.933   9.773 -0.7254  1.3079 -1.4182
   42CHL1   H4B 5521   2.906   5.761   9.761 -0.3325 -0.6464 -2.0229
   42CHL1    C5 5522   2.867   5.842   9.569 -0.0829  0.5404 -0.7566
   42CHL1    C6 5523   2.946   5.746   9.521 -0.0282  0.1570 -0.4579
   42CHL1    H6 5524   2.994   5.675   9.591  0.2644  1.8333  1.1029
   42CHL1    C7 5525   2.966   5.738   9.376 -0.4025 -0.9164 -0.5002
   42CHL1   H7A 5526   3.072   5.721   9.346 -0.4670 -1.0398 -0.6625
   42CHL1   H7B 5527   2.912   5.645   9.346 -3.0699 -0.3552  2.1323
   42CHL1    C8 5528   2.918   5.862   9.291  0.1919 -0.3964 -0.3614
   42CHL1    H8 5529   2.988   5.946   9.313 -0.7948  0.3520 -0.0495
   42CHL1   C14 5530   2.923   5.834   9.142 -0.2942 -0.2389  0.2302
   42CHL1   H14 5531   2.844   5.760   9.118  1.0569 -1.8714  0.6582
   42CHL1   C15 5532   3.051   5.780   9.082  0.2715 -0.2661 -0.0899
   42CHL1  H15A 5533   3.144   5.813   9.132  1.4319 -2.5312 -0.6453
   42CHL1  H15B 5534   3.050   5.669   9.092  2.0628 -0.2321  0.7244
   42CHL1   C16 5535   3.054   5.815   8.939  0.8716  0.0319  0.1599
   42CHL1  H16A 5536   3.145   5.879   8.927  0.9134 -0.1156 -0.3127
   42CHL1  H16B 5537   3.065   5.731   8.866  0.7375  0.1114  0.0488
   42CHL1   C17 5538   2.919   5.892   8.919 -0.3161 -0.5083 -0.2850
   42CHL1   H17 5539   2.842   5.813   8.906  0.1513 -1.3145  1.5456
   42CHL1   C13 5540   2.884   5.959   9.057  0.3573  0.2084  0.5720
   42CHL1   C18 5541   2.977   6.079   9.088 -0.4461 -0.2204  0.1807
   42CHL1  H18A 5542   2.966   6.158   9.010 -1.0489  0.2306  0.7091
   42CHL1  H18B 5543   2.946   6.130   9.182  0.7666 -3.1924  2.3597
   42CHL1  H18C 5544   3.081   6.047   9.109  0.3216  1.2903 -1.1055
   42CHL1   C12 5545   2.738   6.003   9.101  0.2455  0.1727  0.4523
   42CHL1  H12A 5546   2.708   6.090   9.039  0.7137  0.2424  0.3194
   42CHL1  H12B 5547   2.663   5.925   9.072  0.7840  0.1099 -0.8475
   42CHL1   C11 5548   2.732   6.035   9.255  0.3090  0.5103  0.4213
   42CHL1  H11A 5549   2.774   6.138   9.261  0.9708  0.3636 -1.2281
   42CHL1  H11B 5550   2.624   6.056   9.270  0.1251  0.6599 -0.9701
   42CHL1    C9 5551   2.782   5.917   9.339 -0.1764  0.5357 -0.0802
   42CHL1    H9 5552   2.712   5.832   9.323  0.8347 -0.0289 -1.7742
   42CHL1   C10 5553   2.785   5.945   9.492 -0.1175 -0.3742  0.8026
   42CHL1   C19 5554   2.855   6.086   9.512  0.8103  0.8064  1.0294
   42CHL1  H19A 5555   2.863   6.118   9.618 -0.6381  1.2863  1.0120
   42CHL1  H19B 5556   2.952   6.090   9.458 -0.0352 -1.7280 -0.9134
   42CHL1  H19C 5557   2.793   6.164   9.463  0.3472  0.9813  1.8792
   42CHL1    C1 5558   2.641   5.944   9.551 -0.9926 -0.2601 -0.1293
   42CHL1   H1A 5559   2.582   6.026   9.505  0.6382 -0.1507 -2.1520
   42CHL1   H1B 5560   2.590   5.849   9.523 -1.6453  0.1604 -0.3723
   42CHL1    C2 5561   2.630   5.960   9.703  0.2989  0.0373  0.3518
   42CHL1   H2A 5562   2.523   5.959   9.732  0.4324  1.5189  1.0116
   42CHL1   H2B 5563   2.679   6.056   9.732  0.9779 -0.2967  0.3346
   42CHL1   C20 5564   2.911   5.986   8.796 -0.1124 -0.4550 -0.0187
   42CHL1   H20 5565   2.983   6.068   8.818 -0.8012 -0.5178  2.9809
   42CHL1   C21 5566   2.777   6.065   8.772 -0.1694 -0.6694 -0.6061
   42CHL1  H21A 5567   2.686   6.001   8.764 -0.0363 -1.0002  0.3378
   42CHL1  H21B 5568   2.776   6.122   8.677  1.3646 -2.1172 -1.5389
   42CHL1  H21C 5569   2.760   6.133   8.858 -0.9345 -0.1810 -1.1250
   42CHL1   C22 5570   2.960   5.925   8.660  0.2447  0.1545  0.3988
   42CHL1  H22A 5571   2.949   6.005   8.584 -0.8345 -1.1364 -0.8621
   42CHL1  H22B 5572   3.063   5.885   8.670 -0.6677 -2.6505 -0.4944
   42CHL1   C23 5573   2.869   5.807   8.610 -0.3142  0.6566 -0.0463
   42CHL1  H23A 5574   2.857   5.736   8.694 -0.9337 -0.2422 -0.8666
   42CHL1  H23B 5575   2.766   5.841   8.587 -0.8718 -1.5439 -1.0362
   42CHL1   C24 5576   2.936   5.736   8.493 -0.4870  0.0360 -0.4290
   42CHL1  H24A 5577   2.943   5.809   8.409 -1.0024  0.2603 -0.2827
   42CHL1  H24B 5578   3.027   5.706   8.548 -2.3805  1.8147  4.2446
   42CHL1   C25 5579   2.854   5.615   8.433  1.3112  0.2043 -0.2718
   42CHL1   H25 5580   2.904   5.583   8.339 -1.0600  2.0982 -2.3110
   42CHL1   C26 5581   2.856   5.494   8.529  0.1861 -0.2551 -0.2604
   42CHL1  H26A 5582   2.785   5.526   8.609 -0.4286  0.2532 -1.0017
   42CHL1  H26B 5583   2.835   5.396   8.482 -0.1597 -0.9421  1.2525
   42CHL1  H26C 5584   2.956   5.493   8.579 -0.1783  0.2276  0.5034
   42CHL1   C27 5585   2.708   5.651   8.385  0.7986 -0.0864 -0.4942
   42CHL1  H27A 5586   2.705   5.719   8.298 -1.5346  0.1071 -0.3260
   42CHL1  H27B 5587   2.671   5.552   8.351  0.3277 -0.7907  1.8546
   42CHL1  H27C 5588   2.639   5.691   8.462  1.1541 -0.3661 -0.0226
   43CHL1    C3 5589   2.260   0.070  10.075 -0.0111 -0.2842 -0.2849
   43CHL1    H3 5590   2.294   0.174  10.060 -0.5005  0.1640  1.4942
   43CHL1    O3 5591   2.258   0.048  10.214  0.4397  0.2489 -0.2466
   43CHL1   H3' 5592   2.219  -0.039  10.214  0.0766  0.4084  0.1198
   43CHL1    C4 5593   2.118   0.056  10.019  0.3567 -0.5912  0.2130
   43CHL1   H4A 5594   2.072  -0.044  10.032 -0.5666 -0.0061  1.5850
   43CHL1   H4B 5595   2.050   0.124  10.074  0.3638 -1.0347  0.7808
   43CHL1    C5 5596   2.118   0.083   9.874 -0.5081  0.2783 -0.4793
   43CHL1    C6 5597   2.048   0.182   9.815  0.0041  0.4517 -0.6454
   43CHL1    H6 5598   1.975   0.235   9.879 -2.0580  0.1586 -2.6518
   43CHL1    C7 5599   2.033   0.206   9.669 -0.5330  0.1620  0.6495
   43CHL1   H7A 5600   1.928   0.208   9.633 -0.9424 -1.7367  1.6054
   43CHL1   H7B 5601   2.080   0.302   9.637 -0.1578 -0.7027 -1.6238
   43CHL1    C8 5602   2.102   0.096   9.584  0.0847 -0.3555  0.4159
   43CHL1    H8 5603   2.038   0.006   9.584  2.4130 -2.1231 -1.0057
   43CHL1   C14 5604   2.105   0.151   9.444 -0.1254  0.1591  0.2250
   43CHL1   H14 5605   2.161   0.247   9.440  0.5033 -0.2409 -0.7628
   43CHL1   C15 5606   1.979   0.184   9.379 -0.1551 -0.3110  1.4293
   43CHL1  H15A 5607   1.908   0.099   9.389 -0.6761  0.1009  1.3027
   43CHL1  H15B 5608   1.926   0.268   9.429 -0.7484 -0.7734  1.5861
   43CHL1   C16 5609   2.032   0.213   9.234  0.0138  0.6045  0.0540
   43CHL1  H16A 5610   1.960   0.166   9.163  0.2520 -0.2025  0.3330
   43CHL1  H16B 5611   2.042   0.323   9.222  1.7936  0.4292 -0.3553
   43CHL1   C17 5612   2.175   0.150   9.224 -0.3810  0.4545 -0.3280
   43CHL1   H17 5613   2.248   0.233   9.235  0.5508 -0.6067  2.1194
   43CHL1   C13 5614   2.189   0.068   9.347  0.0862 -0.1168 -0.2395
   43CHL1   C18 5615   2.118  -0.071   9.315  0.1804  0.3124 -0.8991
   43CHL1  H18A 5616   2.071  -0.109   9.408 -2.9577  1.2234 -2.0069
   43CHL1  H18B 5617   2.035  -0.058   9.243  0.1550  2.0049 -0.5979
   43CHL1  H18C 5618   2.192  -0.144   9.276  1.4756  0.1733  1.6346
   43CHL1   C12 5619   2.328   0.043   9.409 -0.2243 -0.5954  0.2537
   43CHL1  H12A 5620   2.383  -0.027   9.343  1.3457  0.9419 -0.1478
   43CHL1  H12B 5621   2.377   0.140   9.433  0.1830 -0.7692  0.1279
   43CHL1   C11 5622   2.313  -0.028   9.546 -0.0546  0.2829  0.1109
   43CHL1  H11A 5623   2.271  -0.129   9.527  0.3002  0.3024 -0.7960
   43CHL1  H11B 5624   2.415  -0.044   9.586  0.4306  3.4247  0.3763
   43CHL1    C9 5625   2.234   0.061   9.640 -0.3408 -0.1576 -0.5089
   43CHL1    H9 5626   2.289   0.157   9.647 -2.0885  0.7763  1.9476
   43CHL1   C10 5627   2.218   0.003   9.785  0.5451 -0.2722  0.1387
   43CHL1   C19 5628   2.158  -0.141   9.784  0.0372 -0.1213 -0.6475
   43CHL1  H19A 5629   2.134  -0.168   9.889 -0.3646  4.7586  0.7602
   43CHL1  H19B 5630   2.065  -0.164   9.727 -1.1266  1.6600  0.4458
   43CHL1  H19C 5631   2.241  -0.210   9.754  0.1470 -0.0080 -0.6024
   43CHL1    C1 5632   2.358   0.002   9.855  0.4987 -0.0469  0.0673
   43CHL1   H1A 5633   2.410  -0.076   9.795 -0.0483 -0.3145 -0.0566
   43CHL1   H1B 5634   2.398   0.105   9.843 -0.6031  0.7407  2.5119
   43CHL1    C2 5635   2.356  -0.028  10.006  0.2576  0.5437 -0.0561
   43CHL1   H2A 5636   2.459  -0.035  10.047 -0.4575 -1.1199  1.6125
   43CHL1   H2B 5637   2.306  -0.124  10.032 -3.6934  1.7322 -2.3910
   43CHL1   C20 5638   2.213   0.087   9.083  0.7391 -0.5921  0.5718
   43CHL1   H20 5639   2.136   0.012   9.055  2.4169 -1.3357 -2.4048
   43CHL1   C21 5640   2.351   0.018   9.086  0.2431  0.1492  0.7794
   43CHL1  H21A 5641   2.424   0.082   9.139  0.7196  0.9116 -0.7486
   43CHL1  H21B 5642   2.399  -0.011   8.990 -0.2720  2.3770 -0.2075
   43CHL1  H21C 5643   2.337  -0.078   9.140 -0.5778  0.9303  1.9965
   43CHL1   C22 5644   2.208   0.184   8.953  0.0649  0.7617 -0.7496
   43CHL1  H22A 5645   2.100   0.207   8.936 -0.0837  1.4878  1.0334
   43CHL1  H22B 5646   2.273   0.272   8.971  0.0644  0.1893  2.6128
   43CHL1   C23 5647   2.275   0.125   8.827  0.5685 -0.3411 -0.5381
   43CHL1  H23A 5648   2.379   0.095   8.849  1.2918  2.1101 -0.2737
   43CHL1  H23B 5649   2.228   0.032   8.790  1.0845 -1.0315  0.4944
   43CHL1   C24 5650   2.273   0.232   8.715  0.6129  0.2299  0.1015
   43CHL1  H24A 5651   2.167   0.236   8.680  0.0806  2.6604  1.7539
   43CHL1  H24B 5652   2.321   0.324   8.755  1.7500  0.2487 -1.2594
   43CHL1   C25 5653   2.359   0.186   8.592 -0.0111 -0.2084  0.1510
   43CHL1   H25 5654   2.334   0.082   8.563  0.8454 -0.1772 -0.7790
   43CHL1   C26 5655   2.333   0.283   8.474  0.1915 -1.1658  0.1085
   43CHL1  H26A 5656   2.229   0.283   8.436  0.6305 -0.4848 -1.1603
   43CHL1  H26B 5657   2.366   0.387   8.494 -0.9947 -0.8199  0.3009
   43CHL1  H26C 5658   2.385   0.255   8.379 -2.7028 -1.7425 -1.4071
   43CHL1   C27 5659   2.509   0.201   8.619  0.4975 -0.2423  0.2329
   43CHL1  H27A 5660   2.536   0.138   8.707  0.2066 -0.7870 -0.0667
   43CHL1  H27B 5661   2.577   0.191   8.532 -1.6368  1.4942 -1.7489
   43CHL1  H27C 5662   2.529   0.305   8.651 -3.6488  0.4188  1.1861
   44CHL1    C3 5663   2.976   5.201   9.961  0.0285 -0.0364 -0.1163
   44CHL1    H3 5664   2.968   5.106   9.905 -1.1610  0.1051 -0.2075
   44CHL1    O3 5665   2.904   5.172  10.083 -0.2984 -0.4040 -0.1712
   44CHL1   H3' 5666   2.884   5.262  10.110  1.8163  1.4759 -3.9522
   44CHL1    C4 5667   3.116   5.244   9.993  0.4076  0.5987 -0.5165
   44CHL1   H4A 5668   3.109   5.332  10.061 -0.7741 -0.9242  1.4403
   44CHL1   H4B 5669   3.150   5.158  10.055  0.8008  0.1382 -1.3597
   44CHL1    C5 5670   3.199   5.264   9.862 -0.2293 -0.0914  0.0239
   44CHL1    C6 5671   3.312   5.204   9.846 -0.1511 -0.1171  0.0057
   44CHL1    H6 5672   3.346   5.135   9.924  2.2502  1.0316  0.0587
   44CHL1    C7 5673   3.396   5.217   9.720  1.2340  0.1129  0.3356
   44CHL1   H7A 5674   3.504   5.238   9.739  0.6103  4.4057  0.0733
   44CHL1   H7B 5675   3.392   5.121   9.663 -0.7816  1.4098 -1.8531
   44CHL1    C8 5676   3.345   5.335   9.627 -0.4446  0.0663  0.7927
   44CHL1    H8 5677   3.381   5.426   9.679 -0.0484 -0.1207  0.8498
   44CHL1   C14 5678   3.397   5.323   9.478  0.0426  0.3686 -0.8239
   44CHL1   H14 5679   3.360   5.223   9.446 -1.3931 -0.0594  1.8369
   44CHL1   C15 5680   3.545   5.301   9.461  0.2458 -0.4257 -0.2308
   44CHL1  H15A 5681   3.599   5.361   9.538  0.1799 -1.1780  0.4156
   44CHL1  H15B 5682   3.562   5.196   9.492 -0.9525 -0.5906 -0.1069
   44CHL1   C16 5683   3.573   5.332   9.322 -0.0669  0.8767  0.4298
   44CHL1  H16A 5684   3.655   5.406   9.307  2.1225 -1.5101 -0.1088
   44CHL1  H16B 5685   3.593   5.241   9.261  0.8157  1.0155  0.4991
   44CHL1   C17 5686   3.432   5.377   9.259 -0.8140 -0.1905 -0.1989
   44CHL1   H17 5687   3.385   5.288   9.212  0.4972 -0.3651 -1.2398
   44CHL1   C13 5688   3.349   5.429   9.382 -0.6951 -0.3800 -0.8597
   44CHL1   C18 5689   3.410   5.568   9.433  0.1811  0.3252  0.6668
   44CHL1  H18A 5690   3.380   5.643   9.357 -1.1823 -2.1816 -1.4544
   44CHL1  H18B 5691   3.372   5.593   9.535 -0.7624 -0.9160  0.6516
   44CHL1  H18C 5692   3.520   5.554   9.431  0.1152 -0.1673  0.3094
   44CHL1   C12 5693   3.195   5.438   9.384 -0.5419 -0.5452 -0.0144
   44CHL1  H12A 5694   3.167   5.530   9.328  0.0919  0.0808  0.6668
   44CHL1  H12B 5695   3.156   5.350   9.329  2.4901 -1.9394 -0.1306
   44CHL1   C11 5696   3.146   5.463   9.526 -0.0497 -0.0706 -0.7516
   44CHL1  H11A 5697   3.177   5.566   9.554  3.8405 -1.1200 -0.5842
   44CHL1  H11B 5698   3.036   5.458   9.515 -0.0865 -0.1280 -0.3748
   44CHL1    C9 5699   3.190   5.348   9.623 -0.2167 -0.2581 -0.2426
   44CHL1    H9 5700   3.152   5.252   9.582 -1.0261 -0.9623  2.0370
   44CHL1   C10 5701   3.129   5.359   9.765 -0.2654 -1.0252 -0.0894
   44CHL1   C19 5702   3.143   5.505   9.820 -0.2802 -0.2450 -0.6559
   44CHL1  H19A 5703   3.085   5.580   9.763 -0.5121  1.2569  1.4592
   44CHL1  H19B 5704   3.110   5.515   9.926 -1.2860  0.0263 -0.9904
   44CHL1  H19C 5705   3.250   5.535   9.820  0.5800 -2.9260  0.3912
   44CHL1    C1 5706   2.974   5.336   9.752 -0.0801 -0.0796 -0.2994
   44CHL1   H1A 5707   2.931   5.426   9.702  1.0187 -0.2453 -1.5954
   44CHL1   H1B 5708   2.945   5.251   9.685 -1.0050 -0.5865  0.7120
   44CHL1    C2 5709   2.906   5.309   9.878  0.2502  0.4047 -0.5689
   44CHL1   H2A 5710   2.801   5.286   9.851  0.4840 -1.4436 -0.0213
   44CHL1   H2B 5711   2.901   5.402   9.939 -0.0344  0.7660 -1.1279
   44CHL1   C20 5712   3.460   5.480   9.147  0.3620  0.4620  0.2872
   44CHL1   H20 5713   3.487   5.574   9.199  1.0161  0.3745  0.1144
   44CHL1   C21 5714   3.342   5.508   9.056  0.5686  0.7243 -0.0637
   44CHL1  H21A 5715   3.268   5.566   9.115  0.6761 -0.2653  1.0751
   44CHL1  H21B 5716   3.305   5.405   9.037 -2.0182  1.8284 -1.6518
   44CHL1  H21C 5717   3.374   5.557   8.961 -2.4299  2.2042 -0.4515
   44CHL1   C22 5718   3.583   5.450   9.056 -0.5810 -0.8881  0.2602
   44CHL1  H22A 5719   3.595   5.537   8.988  0.2008 -3.2894 -2.9126
   44CHL1  H22B 5720   3.676   5.435   9.115  0.4805 -0.0673 -1.1473
   44CHL1   C23 5721   3.575   5.334   8.954 -0.4442  0.0995 -0.2972
   44CHL1  H23A 5722   3.590   5.243   9.016 -2.1235  1.0480  1.6081
   44CHL1  H23B 5723   3.472   5.322   8.915  0.0779  0.1290 -1.7493
   44CHL1   C24 5724   3.695   5.334   8.844 -0.1274  0.3710  0.6430
   44CHL1  H24A 5725   3.667   5.424   8.786 -1.3844 -0.5451 -0.2332
   44CHL1  H24B 5726   3.785   5.345   8.909 -0.0117  0.3140  0.4927
   44CHL1   C25 5727   3.681   5.214   8.753 -0.2846 -0.6123  0.6707
   44CHL1   H25 5728   3.571   5.206   8.736  0.1901 -2.5605 -2.1068
   44CHL1   C26 5729   3.762   5.228   8.624 -0.8932 -0.2643 -0.4938
   44CHL1  H26A 5730   3.723   5.316   8.569 -1.8545  0.2315  0.9070
   44CHL1  H26B 5731   3.863   5.264   8.654 -1.0828  1.2438 -1.5908
   44CHL1  H26C 5732   3.756   5.140   8.556  0.9364 -1.3259  0.6189
   44CHL1   C27 5733   3.722   5.079   8.823 -0.1728  0.2898  0.1233
   44CHL1  H27A 5734   3.678   5.055   8.923  1.8321  0.8007  1.1759
   44CHL1  H27B 5735   3.712   5.001   8.744 -0.4543 -0.1198  0.5524
   44CHL1  H27C 5736   3.831   5.086   8.842  0.1998 -1.8754 -0.8478
   45CHL1    C3 5737   0.605   4.201  10.098 -0.0715 -0.5110 -0.6800
   45CHL1    H3 5738   0.710   4.210  10.134  0.0533 -2.9242 -0.2611
   45CHL1    O3 5739   0.510   4.216  10.204  0.2447 -0.0718  0.0397
   45CHL1   H3' 5740   0.524   4.307  10.232  2.1927 -0.3070  0.0011
   45CHL1    C4 5741   0.577   4.301   9.981  0.7159  0.4828  1.1209
   45CHL1   H4A 5742   0.470   4.285   9.958  1.0710  0.0366 -0.3227
   45CHL1   H4B 5743   0.601   4.405  10.013  1.4535  1.4592 -2.2894
   45CHL1    C5 5744   0.659   4.272   9.859  0.5900 -0.0693  0.4824
   45CHL1    C6 5745   0.741   4.370   9.813 -0.8944  0.2812 -0.1508
   45CHL1    H6 5746   0.741   4.464   9.870 -0.9913  0.4438 -0.4179
   45CHL1    C7 5747   0.824   4.354   9.686 -0.2191 -0.4093 -0.6027
   45CHL1   H7A 5748   0.822   4.438   9.613  2.8981  1.9181  1.7202
   45CHL1   H7B 5749   0.930   4.330   9.708 -1.1364 -4.6756  0.0167
   45CHL1    C8 5750   0.790   4.229   9.598 -0.2498 -0.4536 -0.7340
   45CHL1    H8 5751   0.890   4.207   9.557  0.2089  1.8295 -0.9513
   45CHL1   C14 5752   0.698   4.250   9.478 -0.5711  0.6309 -0.0938
   45CHL1   H14 5753   0.607   4.295   9.522 -1.3966 -1.7806  0.8490
   45CHL1   C15 5754   0.769   4.354   9.376  0.0957 -0.3418 -0.2694
   45CHL1  H15A 5755   0.721   4.454   9.374 -0.2673 -0.5110 -0.0920
   45CHL1  H15B 5756   0.874   4.368   9.411 -0.3883  0.3199  0.9791
   45CHL1   C16 5757   0.772   4.283   9.240  0.3760  0.4477  0.2270
   45CHL1  H16A 5758   0.682   4.331   9.195  0.4331  0.7995  0.4915
   45CHL1  H16B 5759   0.866   4.297   9.183  1.2998  0.5761  1.7533
   45CHL1   C17 5760   0.744   4.136   9.278 -0.4947 -0.1590  0.3229
   45CHL1   H17 5761   0.842   4.096   9.314  2.0525  2.2214 -3.2022
   45CHL1   C13 5762   0.650   4.126   9.397  0.4168  0.5920 -0.5458
   45CHL1   C18 5763   0.508   4.163   9.349  0.0923  1.2315 -0.1785
   45CHL1  H18A 5764   0.467   4.078   9.290 -1.8489  0.2996  2.3165
   45CHL1  H18B 5765   0.444   4.160   9.439  0.8425 -0.8001  0.3412
   45CHL1  H18C 5766   0.503   4.259   9.294 -1.0670  0.4353 -1.5329
   45CHL1   C12 5767   0.646   3.999   9.474  0.2747 -0.0419  0.2898
   45CHL1  H12A 5768   0.541   3.983   9.507  0.9189 -2.5707  1.2988
   45CHL1  H12B 5769   0.670   3.913   9.408  0.5570  0.7061 -0.6067
   45CHL1   C11 5770   0.745   3.985   9.584  0.4253 -0.5580  0.9764
   45CHL1  H11A 5771   0.723   3.889   9.636  0.0228  0.0149  1.8920
   45CHL1  H11B 5772   0.841   3.987   9.529  0.1913  3.5778  0.3873
   45CHL1    C9 5773   0.757   4.105   9.684 -0.5639 -0.2752  0.1489
   45CHL1    H9 5774   0.851   4.082   9.738 -1.0357 -0.3117  0.9747
   45CHL1   C10 5775   0.651   4.128   9.802 -0.1693 -0.4822 -0.0163
   45CHL1   C19 5776   0.512   4.101   9.748  0.1388 -0.1970  0.2743
   45CHL1  H19A 5777   0.497   3.991   9.745  2.1544 -0.7714  4.3088
   45CHL1  H19B 5778   0.429   4.140   9.811 -0.1357  0.3077 -0.3865
   45CHL1  H19C 5779   0.507   4.149   9.648 -1.6826  0.5782  0.6962
   45CHL1    C1 5780   0.674   4.032   9.919  0.4998 -0.7044  0.7765
   45CHL1   H1A 5781   0.655   3.926   9.890 -2.2972 -0.0608 -0.0610
   45CHL1   H1B 5782   0.778   4.039   9.959 -0.2328 -1.0409  2.8996
   45CHL1    C2 5783   0.582   4.065  10.040  0.1171  0.1404 -0.1500
   45CHL1   H2A 5784   0.597   3.987  10.118  2.0600 -0.6741 -1.2575
   45CHL1   H2B 5785   0.474   4.061  10.016  0.1302  0.1513 -0.2108
   45CHL1   C20 5786   0.725   4.039   9.157 -0.1645  0.2502  0.2569
   45CHL1   H20 5787   0.656   3.959   9.192  0.3452 -0.2418  0.1524
   45CHL1   C21 5788   0.865   3.978   9.122  0.2819 -0.0215  0.1936
   45CHL1  H21A 5789   0.916   3.925   9.206  2.1730  1.2042 -0.1138
   45CHL1  H21B 5790   0.932   4.056   9.081 -0.5918  0.5630 -0.1321
   45CHL1  H21C 5791   0.850   3.902   9.043  2.2068  0.7431 -0.9774
   45CHL1   C22 5792   0.667   4.106   9.028  0.0515  0.0649 -0.0225
   45CHL1  H22A 5793   0.568   4.147   9.056  0.4200 -0.1799  1.7662
   45CHL1  H22B 5794   0.730   4.177   8.969  1.3259 -1.8112 -1.0538
   45CHL1   C23 5795   0.607   4.003   8.924 -0.0182  0.2065 -0.1846
   45CHL1  H23A 5796   0.687   3.942   8.875  0.4451  0.9959 -0.4248
   45CHL1  H23B 5797   0.539   3.935   8.979 -1.6081  0.7137 -1.4695
   45CHL1   C24 5798   0.525   4.068   8.812  0.6685  0.5194 -0.5775
   45CHL1  H24A 5799   0.451   4.132   8.863 -1.3763 -2.1390  0.0109
   45CHL1  H24B 5800   0.587   4.134   8.747  1.0243  1.4226  0.6356
   45CHL1   C25 5801   0.437   3.974   8.730  0.0855  0.2291 -0.4279
   45CHL1   H25 5802   0.348   3.939   8.788 -1.8905  0.9017 -2.8767
   45CHL1   C26 5803   0.379   4.051   8.620 -0.3161  0.1087 -0.2716
   45CHL1  H26A 5804   0.332   4.148   8.649 -0.2962  1.0666 -3.1459
   45CHL1  H26B 5805   0.453   4.071   8.540  2.1063 -0.6348  1.6735
   45CHL1  H26C 5806   0.293   4.001   8.571 -0.4037  1.8784 -2.0659
   45CHL1   C27 5807   0.521   3.856   8.680  0.2582 -0.1013 -0.3641
   45CHL1  H27A 5808   0.613   3.886   8.626 -0.5437  0.1374 -1.6210
   45CHL1  H27B 5809   0.535   3.792   8.771 -0.3975 -2.7499 -2.0105
   45CHL1  H27C 5810   0.463   3.797   8.605  1.4721  0.0962 -1.4802
   46CHL1    C3 5811   4.152   6.236   9.960 -0.0784  0.9512  0.2709
   46CHL1    H3 5812   4.255   6.195   9.957 -0.3993  0.1556 -2.2523
   46CHL1    O3 5813   4.123   6.244  10.097  0.1719 -0.5059 -0.3022
   46CHL1   H3' 5814   4.032   6.272  10.091  0.0579 -0.7239  0.3502
   46CHL1    C4 5815   4.121   6.370   9.896 -0.1494 -0.1868  0.3593
   46CHL1   H4A 5816   4.021   6.405   9.930  0.3652 -0.5056  2.3245
   46CHL1   H4B 5817   4.200   6.440   9.930 -2.3012  3.3835 -1.4586
   46CHL1    C5 5818   4.125   6.379   9.743  0.2191 -0.2329  0.4133
   46CHL1    C6 5819   4.185   6.477   9.673  0.0601  0.1540  0.0013
   46CHL1    H6 5820   4.240   6.556   9.726 -0.9411 -0.1241  1.5066
   46CHL1    C7 5821   4.183   6.494   9.522 -0.5240  0.1842 -0.4994
   46CHL1   H7A 5822   4.163   6.598   9.489  0.6211  1.1837  1.7191
   46CHL1   H7B 5823   4.282   6.471   9.476  0.8931  0.2405  2.2960
   46CHL1    C8 5824   4.082   6.385   9.448 -0.7550 -0.3888  0.4271
   46CHL1    H8 5825   3.981   6.429   9.461 -1.7054 -2.2863 -0.2082
   46CHL1   C14 5826   4.112   6.361   9.298  0.2326  0.1506 -0.3470
   46CHL1   H14 5827   4.215   6.319   9.306  0.1700  0.1699  0.7492
   46CHL1   C15 5828   4.128   6.482   9.209 -0.3070 -0.3393  0.3862
   46CHL1  H15A 5829   4.063   6.566   9.240 -0.9846 -0.1401 -1.4431
   46CHL1  H15B 5830   4.230   6.523   9.225 -0.2824 -0.7127  1.2461
   46CHL1   C16 5831   4.113   6.428   9.070 -0.0229  0.1596  0.6901
   46CHL1  H16A 5832   4.024   6.485   9.035  0.0299  0.9112  1.7539
   46CHL1  H16B 5833   4.202   6.454   9.009 -0.6217  0.1511 -0.2132
   46CHL1   C17 5834   4.078   6.281   9.082 -0.1475  0.1077  0.5267
   46CHL1   H17 5835   4.175   6.225   9.085 -0.5660 -0.6127  0.8624
   46CHL1   C13 5836   4.022   6.264   9.223  0.4271 -0.6011 -0.2171
   46CHL1   C18 5837   3.876   6.309   9.238  0.1279  0.4897 -0.4630
   46CHL1  H18A 5838   3.817   6.224   9.199 -0.2905  0.5763 -0.0271
   46CHL1  H18B 5839   3.839   6.331   9.341  0.3289 -1.5517  0.0840
   46CHL1  H18C 5840   3.872   6.400   9.175  1.1042  1.1890  0.4405
   46CHL1   C12 5841   4.046   6.130   9.295 -0.4210 -0.4711 -0.2593
   46CHL1  H12A 5842   3.990   6.044   9.251 -0.7002 -0.8510  0.7927
   46CHL1  H12B 5843   4.155   6.113   9.286 -0.1113  0.7520  0.8389
   46CHL1   C11 5844   4.017   6.138   9.441  0.3856  0.6732  0.3325
   46CHL1  H11A 5845   3.910   6.157   9.466  0.9567 -0.0446  3.7713
   46CHL1  H11B 5846   4.030   6.036   9.483 -4.8176 -1.6995 -2.7931
   46CHL1    C9 5847   4.090   6.253   9.517  0.6705  1.0177 -0.0771
   46CHL1    H9 5848   4.194   6.216   9.515 -0.2837 -1.8842 -2.0208
   46CHL1   C10 5849   4.053   6.263   9.670  0.5999 -0.7218  0.2849
   46CHL1   C19 5850   3.896   6.286   9.687  0.3112 -0.2115 -0.5000
   46CHL1  H19A 5851   3.867   6.325   9.787  1.6329 -0.5602  0.0425
   46CHL1  H19B 5852   3.848   6.354   9.614  1.3679  0.1900 -0.8325
   46CHL1  H19C 5853   3.836   6.193   9.675  0.7150 -0.7511  1.2506
   46CHL1    C1 5854   4.081   6.128   9.743  0.2437  0.3862 -0.1055
   46CHL1   H1A 5855   4.025   6.050   9.688  0.6533  0.9239 -1.3174
   46CHL1   H1B 5856   4.189   6.103   9.730 -0.0883 -2.2478  1.5354
   46CHL1    C2 5857   4.058   6.125   9.895 -0.0728  0.1024 -0.3626
   46CHL1   H2A 5858   4.077   6.021   9.929 -2.2059 -0.3454 -0.3817
   46CHL1   H2B 5859   3.952   6.155   9.913 -0.1662 -1.0313  1.2255
   46CHL1   C20 5860   4.012   6.212   8.959 -0.1289  0.7140  0.6006
   46CHL1   H20 5861   3.910   6.251   8.943 -1.4424 -2.1938  1.2257
   46CHL1   C21 5862   4.003   6.056   8.974  0.6172 -0.0612 -0.5959
   46CHL1  H21A 5863   4.091   6.008   9.021  0.0921  0.9787  1.6491
   46CHL1  H21B 5864   3.976   5.999   8.883 -0.5136  0.5994 -0.6958
   46CHL1  H21C 5865   3.918   6.038   9.043  2.6134 -1.3082  1.7224
   46CHL1   C22 5866   4.098   6.244   8.838 -0.6509 -0.1916  0.5296
   46CHL1  H22A 5867   4.131   6.350   8.846  1.5384 -0.9594  3.3886
   46CHL1  H22B 5868   4.188   6.179   8.848  0.7528  1.4613 -0.7505
   46CHL1   C23 5869   4.033   6.228   8.702 -0.2629  0.5614 -0.0109
   46CHL1  H23A 5870   3.987   6.128   8.691  0.5689  0.0106  1.2958
   46CHL1  H23B 5871   3.942   6.293   8.710  0.1905  1.0456  1.9750
   46CHL1   C24 5872   4.129   6.264   8.584  0.1916  0.0223 -0.2591
   46CHL1  H24A 5873   4.192   6.353   8.604 -0.6094  0.9031 -1.4752
   46CHL1  H24B 5874   4.206   6.184   8.578  2.5110  2.0371  0.4526
   46CHL1   C25 5875   4.070   6.275   8.443 -0.4006 -0.0957  0.4484
   46CHL1   H25 5876   3.991   6.353   8.448 -1.8793 -1.4926 -0.2601
   46CHL1   C26 5877   4.175   6.318   8.334  0.1448  0.1537  0.1087
   46CHL1  H26A 5878   4.201   6.425   8.346  1.5431 -0.2133  0.5844
   46CHL1  H26B 5879   4.270   6.263   8.352  0.3269  0.8794  1.4620
   46CHL1  H26C 5880   4.142   6.304   8.229  0.6126  1.8669 -0.3054
   46CHL1   C27 5881   3.998   6.147   8.406  0.1322 -0.4195  0.3220
   46CHL1  H27A 5882   4.055   6.051   8.401 -0.0129 -0.4403 -2.1897
   46CHL1  H27B 5883   3.908   6.144   8.471 -0.7068 -3.0354 -0.8161
   46CHL1  H27C 5884   3.951   6.166   8.308 -0.8534  0.8939  1.0319
   47CHL1    C3 5885   3.698   3.713  10.154 -0.6977  0.9776  0.0404
   47CHL1    H3 5886   3.772   3.794  10.135  1.3940 -0.3393  1.9472
   47CHL1    O3 5887   3.714   3.664  10.289 -0.3304  0.6832  0.3922
   47CHL1   H3' 5888   3.655   3.588  10.288 -1.2224  1.3267  1.5974
   47CHL1    C4 5889   3.560   3.755  10.134  0.4476 -0.0345 -0.0223
   47CHL1   H4A 5890   3.497   3.675  10.178  0.4494  0.1961  0.4061
   47CHL1   H4B 5891   3.523   3.834  10.202  0.7875  1.4658 -1.5075
   47CHL1    C5 5892   3.529   3.783   9.983  0.8337  0.8010 -0.0098
   47CHL1    C6 5893   3.478   3.901   9.946 -0.7707  0.0927 -0.5989
   47CHL1    H6 5894   3.465   3.979  10.023  2.0454 -0.9930  1.1592
   47CHL1    C7 5895   3.444   3.941   9.807 -0.3507 -0.5850  0.2432
   47CHL1   H7A 5896   3.338   3.973   9.800 -0.5373 -1.5002 -2.1191
   47CHL1   H7B 5897   3.524   4.015   9.782  0.3712 -1.6028 -0.5223
   47CHL1    C8 5898   3.452   3.824   9.708  0.2756 -0.8405  0.3753
   47CHL1    H8 5899   3.357   3.767   9.709 -0.9968  1.1382 -0.4585
   47CHL1   C14 5900   3.463   3.892   9.572 -0.3646  0.4787  0.8437
   47CHL1   H14 5901   3.556   3.952   9.561  0.0134 -0.3077 -0.4912
   47CHL1   C15 5902   3.350   3.984   9.528 -0.5229 -0.2723 -0.0735
   47CHL1  H15A 5903   3.246   3.952   9.554 -0.2773 -1.0070  0.0124
   47CHL1  H15B 5904   3.373   4.082   9.576 -1.0048  0.4348 -1.2399
   47CHL1   C16 5905   3.359   3.990   9.377 -0.1555  0.3104  0.2889
   47CHL1  H16A 5906   3.263   3.954   9.333  1.0239 -1.3579 -1.0732
   47CHL1  H16B 5907   3.383   4.085   9.326  0.6194 -0.0515 -0.0279
   47CHL1   C17 5908   3.466   3.880   9.341  0.5073 -0.2658  0.7605
   47CHL1   H17 5909   3.561   3.938   9.342  0.8585 -0.7521 -0.9061
   47CHL1   C13 5910   3.474   3.784   9.455  0.5149  0.8058 -0.7132
   47CHL1   C18 5911   3.357   3.682   9.456  0.6853  0.0951 -0.0351
   47CHL1  H18A 5912   3.368   3.599   9.382 -0.6490 -0.5310  0.4317
   47CHL1  H18B 5913   3.349   3.633   9.556 -1.6429 -1.3346 -0.8372
   47CHL1  H18C 5914   3.256   3.722   9.433  0.6142  0.0279  0.1577
   47CHL1   C12 5915   3.600   3.710   9.484 -0.9944 -0.3801  0.4134
   47CHL1  H12A 5916   3.630   3.626   9.418 -0.4839 -0.5994  0.9180
   47CHL1  H12B 5917   3.683   3.783   9.468 -1.6774  0.4039  0.3392
   47CHL1   C11 5918   3.615   3.649   9.624 -0.2377  0.5261  0.8071
   47CHL1  H11A 5919   3.551   3.560   9.607  1.2165 -0.1647 -1.6262
   47CHL1  H11B 5920   3.717   3.605   9.629 -0.4903 -0.6561 -2.2345
   47CHL1    C9 5921   3.574   3.744   9.736 -0.2597  0.2837  0.0414
   47CHL1    H9 5922   3.661   3.813   9.739  1.2293 -1.4330 -1.2414
   47CHL1   C10 5923   3.576   3.678   9.874  0.3937  0.1304 -0.3625
   47CHL1   C19 5924   3.472   3.560   9.894 -1.0819  0.5310 -0.2498
   47CHL1  H19A 5925   3.472   3.523   9.999 -2.0635 -1.4288 -0.8979
   47CHL1  H19B 5926   3.370   3.592   9.866 -1.0183 -1.0709 -2.5690
   47CHL1  H19C 5927   3.485   3.470   9.830 -0.2351  1.2991 -1.1937
   47CHL1    C1 5928   3.722   3.626   9.904  0.5651 -0.8121 -0.0528
   47CHL1   H1A 5929   3.758   3.541   9.842  2.8631  0.5053 -0.6245
   47CHL1   H1B 5930   3.791   3.712   9.889 -0.2551  0.2473  1.8440
   47CHL1    C2 5931   3.735   3.602  10.053 -0.0770 -0.4201  0.2496
   47CHL1   H2A 5932   3.839   3.567  10.066  0.2198  0.1431 -0.5020
   47CHL1   H2B 5933   3.662   3.521  10.074 -2.2580  1.3690 -0.0453
   47CHL1   C20 5934   3.451   3.826   9.198  1.1414  0.7980  0.2563
   47CHL1   H20 5935   3.371   3.750   9.202  1.1374  0.8527  2.7315
   47CHL1   C21 5936   3.570   3.736   9.156  0.1535 -0.9209 -0.1931
   47CHL1  H21A 5937   3.547   3.695   9.055 -1.5766 -2.7160  0.8380
   47CHL1  H21B 5938   3.571   3.652   9.229  0.3501  0.6304  1.6669
   47CHL1  H21C 5939   3.668   3.787   9.161  0.7533 -1.7833 -2.0275
   47CHL1   C22 5940   3.425   3.941   9.100  0.2917  0.1375 -0.1666
   47CHL1  H22A 5941   3.329   3.986   9.130 -0.0192 -0.3026 -0.4820
   47CHL1  H22B 5942   3.500   4.019   9.122 -0.0073 -0.2081  2.4498
   47CHL1   C23 5943   3.417   3.911   8.948  0.2889  0.3248  0.1710
   47CHL1  H23A 5944   3.521   3.903   8.909 -0.3173  2.3777 -2.0683
   47CHL1  H23B 5945   3.367   3.812   8.946  0.6518  0.0938  1.4066
   47CHL1   C24 5946   3.342   4.023   8.879  1.0559 -0.3656  0.1039
   47CHL1  H24A 5947   3.238   4.000   8.911  1.3078  1.0576  2.0907
   47CHL1  H24B 5948   3.371   4.123   8.917 -1.0372  1.0940 -1.8225
   47CHL1   C25 5949   3.328   4.022   8.728 -0.3829  0.4354  0.2206
   47CHL1   H25 5950   3.297   3.919   8.701 -0.1425  0.1030  1.1685
   47CHL1   C26 5951   3.227   4.128   8.683 -0.3338  0.0973  0.2657
   47CHL1  H26A 5952   3.132   4.108   8.736  0.5942 -2.2485  1.1850
   47CHL1  H26B 5953   3.216   4.133   8.572  0.8075  3.0289  0.1863
   47CHL1  H26C 5954   3.251   4.233   8.711 -1.6781  1.1882 -2.2952
   47CHL1   C27 5955   3.462   4.044   8.652  0.4370  0.1048  0.7593
   47CHL1  H27A 5956   3.509   4.143   8.670 -1.5678  1.0354  1.0640
   47CHL1  H27B 5957   3.532   3.958   8.661 -1.1339 -1.8791 -3.4195
   47CHL1  H27C 5958   3.438   4.051   8.544  0.4546  2.3005  0.8575
   48CHL1    C3 5959   4.435   4.270  10.199  0.1286  1.0745  0.2610
   48CHL1    H3 5960   4.522   4.202  10.213 -1.0230 -0.4900  0.1521
   48CHL1    O3 5961   4.401   4.342  10.315 -0.3499  0.4504  0.2900
   48CHL1   H3' 5962   4.322   4.392  10.295  0.0228  0.6827 -0.6648
   48CHL1    C4 5963   4.473   4.365  10.086  0.4614 -0.1605 -0.1469
   48CHL1   H4A 5964   4.394   4.441  10.071 -1.3353 -2.0338 -0.7848
   48CHL1   H4B 5965   4.571   4.406  10.120  1.0929  0.5189 -2.6197
   48CHL1    C5 5966   4.488   4.313   9.947  0.4376 -0.5541 -0.2337
   48CHL1    C6 5967   4.595   4.342   9.876 -0.4570  0.1232  0.0152
   48CHL1    H6 5968   4.659   4.418   9.924 -0.0609 -0.5551  0.6017
   48CHL1    C7 5969   4.621   4.303   9.732 -0.1850 -1.3845 -0.3263
   48CHL1   H7A 5970   4.650   4.396   9.678  1.2161 -1.8130 -0.3579
   48CHL1   H7B 5971   4.707   4.234   9.721 -0.4705 -1.6069 -1.2917
   48CHL1    C8 5972   4.491   4.251   9.671  0.1687 -0.3950 -0.1615
   48CHL1    H8 5973   4.431   4.340   9.644 -1.6714 -2.2805 -2.8823
   48CHL1   C14 5974   4.516   4.190   9.539  0.4565 -0.2780 -0.8783
   48CHL1   H14 5975   4.577   4.099   9.554  0.2089 -0.6693 -2.1234
   48CHL1   C15 5976   4.582   4.275   9.423 -0.1257  0.3302  0.4595
   48CHL1  H15A 5977   4.544   4.380   9.430 -4.6898 -1.1324  0.8681
   48CHL1  H15B 5978   4.692   4.271   9.439 -0.2843 -0.8351  1.3802
   48CHL1   C16 5979   4.530   4.211   9.294 -0.7994 -0.5336 -0.4585
   48CHL1  H16A 5980   4.507   4.287   9.216  0.5350  0.6279  0.2319
   48CHL1  H16B 5981   4.617   4.163   9.244 -0.8084  1.8671 -3.0616
   48CHL1   C17 5982   4.437   4.105   9.335 -0.3793 -0.3688  0.5064
   48CHL1   H17 5983   4.500   4.014   9.345 -0.2700 -0.1086  2.7477
   48CHL1   C13 5984   4.388   4.139   9.468  0.9387 -0.1861 -0.4440
   48CHL1   C18 5985   4.287   4.265   9.451  0.1037  0.0194  0.3873
   48CHL1  H18A 5986   4.182   4.242   9.423 -0.5065  1.9445  0.9189
   48CHL1  H18B 5987   4.266   4.323   9.544  0.8810  0.3269  0.3760
   48CHL1  H18C 5988   4.333   4.335   9.379 -0.6562 -0.4917 -0.6187
   48CHL1   C12 5989   4.327   4.031   9.559  0.4858 -0.1883 -0.0487
   48CHL1  H12A 5990   4.228   3.998   9.521  0.4677  0.4253 -0.5547
   48CHL1  H12B 5991   4.404   3.951   9.559  0.4366 -0.2513  1.1018
   48CHL1   C11 5992   4.302   4.078   9.702 -0.1101  0.0398 -0.3385
   48CHL1  H11A 5993   4.213   4.144   9.688  0.6671  1.2745  0.3282
   48CHL1  H11B 5994   4.287   3.990   9.768  0.7931 -1.2473 -1.7852
   48CHL1    C9 5995   4.419   4.158   9.769  0.4230  0.6526  0.0858
   48CHL1    H9 5996   4.495   4.082   9.797 -0.3905  0.0896  0.8513
   48CHL1   C10 5997   4.377   4.223   9.903  0.5168  0.3732 -0.2940
   48CHL1   C19 5998   4.254   4.312   9.885  0.2908 -0.7175  0.2840
   48CHL1  H19A 5999   4.224   4.379   9.969 -0.2017 -0.3810 -0.1554
   48CHL1  H19B 6000   4.278   4.380   9.800 -0.3946 -0.1798  0.5127
   48CHL1  H19C 6001   4.161   4.255   9.869 -1.0073  1.3508  0.1440
   48CHL1    C1 6002   4.351   4.111  10.010 -0.1078  0.0733  0.3344
   48CHL1   H1A 6003   4.276   4.043   9.965  1.5235 -0.2435 -2.0570
   48CHL1   H1B 6004   4.443   4.051  10.029 -0.4085 -0.9512 -1.2687
   48CHL1    C2 6005   4.316   4.177  10.151  0.0274 -0.0012  0.7265
   48CHL1   H2A 6006   4.305   4.091  10.220 -0.8882 -1.5528 -1.2386
   48CHL1   H2B 6007   4.226   4.242  10.154  1.1067  1.5191  1.1816
   48CHL1   C20 6008   4.328   4.081   9.232 -0.5020  0.4620  0.6255
   48CHL1   H20 6009   4.255   4.163   9.214 -0.7720  0.0873 -0.0747
   48CHL1   C21 6010   4.249   3.949   9.255 -0.3459  0.2564  0.3231
   48CHL1  H21A 6011   4.186   3.924   9.167 -2.5963  2.1878  1.2634
   48CHL1  H21B 6012   4.175   3.964   9.337  0.5263  1.9699  0.8405
   48CHL1  H21C 6013   4.308   3.857   9.272 -0.6893 -0.1211 -0.4375
   48CHL1   C22 6014   4.379   4.065   9.084  0.5408  0.3930 -0.0267
   48CHL1  H22A 6015   4.454   4.144   9.060  0.2300  0.1629 -1.9240
   48CHL1  H22B 6016   4.430   3.969   9.062  0.2641  0.5199 -1.2737
   48CHL1   C23 6017   4.267   4.090   8.982 -0.0367  0.3771 -0.1020
   48CHL1  H23A 6018   4.188   4.012   8.992 -0.9518  1.2883 -0.0818
   48CHL1  H23B 6019   4.229   4.187   9.019 -0.4702  0.1910 -0.0557
   48CHL1   C24 6020   4.326   4.114   8.841 -0.4023 -0.6636  0.2589
   48CHL1  H24A 6021   4.250   4.162   8.776  1.2459  1.0461 -0.4988
   48CHL1  H24B 6022   4.410   4.186   8.839  0.6075 -1.8009 -1.8310
   48CHL1   C25 6023   4.362   3.984   8.761  0.6402  0.3198 -0.5186
   48CHL1   H25 6024   4.451   3.937   8.809  1.1791  1.8496  0.0469
   48CHL1   C26 6025   4.246   3.881   8.758 -0.0250 -0.6448  0.0808
   48CHL1  H26A 6026   4.193   3.863   8.854 -0.0570 -1.1983 -0.0369
   48CHL1  H26B 6027   4.178   3.926   8.683  1.9729  0.9188 -0.9151
   48CHL1  H26C 6028   4.284   3.786   8.714 -0.2398 -0.8072  0.2459
   48CHL1   C27 6029   4.409   4.006   8.620 -0.3100  0.6176  0.1697
   48CHL1  H27A 6030   4.437   3.910   8.572  1.3101  1.5925 -0.9234
   48CHL1  H27B 6031   4.328   4.048   8.557 -0.9469 -0.7725  0.0295
   48CHL1  H27C 6032   4.495   4.075   8.618 -1.4832  2.3242  2.6071
   49CHL1    C3 6033   3.368   6.762  10.073 -0.0237  0.6381  0.0384
   49CHL1    H3 6034   3.443   6.695  10.027 -2.0752 -1.6166 -0.2768
   49CHL1    O3 6035   3.359   6.739  10.215  0.4698 -0.0310  0.0004
   49CHL1   H3' 6036   3.310   6.812  10.255  0.0823  0.2428 -0.9496
   49CHL1    C4 6037   3.403   6.905  10.053  0.4843 -0.3436  0.8062
   49CHL1   H4A 6038   3.330   6.965  10.113 -3.3672 -0.8132 -2.9737
   49CHL1   H4B 6039   3.499   6.923  10.105  0.5153  0.0308  0.6229
   49CHL1    C5 6040   3.408   6.957   9.908  0.9426 -0.1393  0.7633
   49CHL1    C6 6041   3.522   7.014   9.862  0.2248  0.4997 -0.5556
   49CHL1    H6 6042   3.607   7.042   9.925  0.0529  2.2666 -1.0439
   49CHL1    C7 6043   3.549   7.061   9.725 -0.2591 -0.4101  0.2641
   49CHL1   H7A 6044   3.599   7.161   9.720 -0.3174 -0.4503 -3.2762
   49CHL1   H7B 6045   3.627   6.996   9.679  1.3111  0.6165  1.3571
   49CHL1    C8 6046   3.420   7.052   9.638  0.2577 -0.7666  0.3207
   49CHL1    H8 6047   3.363   7.146   9.653 -1.2992 -1.8163  1.2819
   49CHL1   C14 6048   3.452   7.049   9.493 -0.0848 -0.5603  0.0750
   49CHL1   H14 6049   3.489   6.949   9.463 -1.5538 -1.0168 -0.3308
   49CHL1   C15 6050   3.563   7.143   9.437  0.1379  0.0213 -0.3425
   49CHL1  H15A 6051   3.551   7.245   9.479 -1.0740 -0.0061 -0.6072
   49CHL1  H15B 6052   3.664   7.100   9.458 -0.3678 -0.7403  0.6216
   49CHL1   C16 6053   3.530   7.140   9.286  0.3129  0.0128  0.2720
   49CHL1  H16A 6054   3.539   7.239   9.236 -1.9622  0.9711  1.5974
   49CHL1  H16B 6055   3.596   7.067   9.235 -0.8759 -0.2559 -0.9466
   49CHL1   C17 6056   3.393   7.067   9.259  0.5665 -0.0560  0.1508
   49CHL1   H17 6057   3.411   6.965   9.221  0.6006 -0.0618  0.1821
   49CHL1   C13 6058   3.332   7.058   9.401 -0.1029 -1.0424  0.9159
   49CHL1   C18 6059   3.249   7.194   9.419 -0.6455  0.3203 -0.4198
   49CHL1  H18A 6060   3.202   7.193   9.520  0.5075  0.1346  0.1335
   49CHL1  H18B 6061   3.323   7.276   9.416  0.7991 -0.8877  0.6925
   49CHL1  H18C 6062   3.166   7.202   9.346 -1.3573 -0.0380  0.3214
   49CHL1   C12 6063   3.256   6.927   9.420  0.1881 -0.3792  0.3725
   49CHL1  H12A 6064   3.160   6.916   9.365 -0.5894 -1.1956  1.8241
   49CHL1  H12B 6065   3.326   6.848   9.387 -0.3295 -0.8137  0.2856
   49CHL1   C11 6066   3.213   6.902   9.565  0.2308  0.5015 -0.0256
   49CHL1  H11A 6067   3.132   6.976   9.580  0.9930  1.4244 -0.3465
   49CHL1  H11B 6068   3.169   6.803   9.593 -0.0001  0.8546  0.9033
   49CHL1    C9 6069   3.333   6.934   9.669 -0.2780  0.1548 -0.4631
   49CHL1    H9 6070   3.399   6.846   9.660 -0.3811 -0.0074  0.2526
   49CHL1   C10 6071   3.287   6.924   9.820 -0.0231 -0.2076  0.8149
   49CHL1   C19 6072   3.174   7.030   9.851 -0.5153 -1.2352 -0.0379
   49CHL1  H19A 6073   3.142   7.029   9.957 -1.0872 -0.5768 -0.2019
   49CHL1  H19B 6074   3.196   7.132   9.814 -2.0515 -0.5250  0.9170
   49CHL1  H19C 6075   3.080   6.990   9.805 -2.1338  0.3927  1.7202
   49CHL1    C1 6076   3.231   6.785   9.854 -0.3899 -0.0560  0.4270
   49CHL1   H1A 6077   3.127   6.784   9.815  0.0574  2.4775 -1.0657
   49CHL1   H1B 6078   3.278   6.705   9.792 -3.4850 -0.8359 -1.1066
   49CHL1    C2 6079   3.230   6.739   9.998  0.7372 -0.4211 -0.0891
   49CHL1   H2A 6080   3.206   6.631  10.004  0.2144 -0.4851 -2.3529
   49CHL1   H2B 6081   3.165   6.802  10.063  2.1220 -0.1173  1.0466
   49CHL1   C20 6082   3.320   7.134   9.140  0.6088  0.6128 -0.2871
   49CHL1   H20 6083   3.312   7.245   9.149 -0.8629  0.4662  0.4535
   49CHL1   C21 6084   3.184   7.060   9.116  0.1098 -0.5777  0.5163
   49CHL1  H21A 6085   3.194   6.952   9.138 -0.8718 -0.8375 -0.2588
   49CHL1  H21B 6086   3.139   7.087   9.018  1.0743 -0.8967 -0.0239
   49CHL1  H21C 6087   3.115   7.096   9.195 -0.8255 -2.0699  0.4200
   49CHL1   C22 6088   3.404   7.106   9.011  1.2297  0.3664 -0.7387
   49CHL1  H22A 6089   3.511   7.133   9.027  1.5749 -1.5950  0.6156
   49CHL1  H22B 6090   3.399   6.998   8.986 -0.2439  0.0726  0.6491
   49CHL1   C23 6091   3.358   7.167   8.883  0.2496  0.2247  0.4919
   49CHL1  H23A 6092   3.262   7.127   8.844  1.1218 -0.0786 -1.4686
   49CHL1  H23B 6093   3.341   7.277   8.896 -2.4750  0.0166 -0.5082
   49CHL1   C24 6094   3.471   7.158   8.780 -0.2000  0.3724  0.0232
   49CHL1  H24A 6095   3.445   7.211   8.686  1.0297 -3.4236 -2.7034
   49CHL1  H24B 6096   3.566   7.201   8.819  0.1997  0.7550 -1.3238
   49CHL1   C25 6097   3.524   7.017   8.740  0.5218 -0.2500 -1.0094
   49CHL1   H25 6098   3.543   6.952   8.829 -0.3544  2.0785  0.9930
   49CHL1   C26 6099   3.428   6.947   8.651  0.7880  0.4104  0.4347
   49CHL1  H26A 6100   3.329   6.921   8.692  0.6085 -0.5712 -0.5865
   49CHL1  H26B 6101   3.407   7.024   8.574  2.0924 -0.2294 -0.6161
   49CHL1  H26C 6102   3.473   6.860   8.598 -1.1696 -0.1884 -0.3142
   49CHL1   C27 6103   3.655   7.041   8.673 -1.0296  0.5227  0.5736
   49CHL1  H27A 6104   3.698   6.942   8.649 -0.4901  0.6640  0.9462
   49CHL1  H27B 6105   3.641   7.090   8.574 -0.6211 -0.2977  0.0946
   49CHL1  H27C 6106   3.728   7.092   8.740 -1.0288  3.6894 -1.5916
   50CHL1    C3 6107   4.791   1.598  10.175  0.8145 -0.1326  0.0106
   50CHL1    H3 6108   4.726   1.688  10.176 -2.8630 -2.5545 -0.9397
   50CHL1    O3 6109   4.794   1.533  10.299  0.4816  0.1127 -0.2666
   50CHL1   H3' 6110   4.709   1.533  10.344  0.3967 -0.3109 -0.4303
   50CHL1    C4 6111   4.726   1.492  10.079 -0.1075 -0.5423  0.5485
   50CHL1   H4A 6112   4.782   1.396  10.087 -0.7758 -1.1914 -1.7883
   50CHL1   H4B 6113   4.624   1.468  10.115 -0.5171 -0.4988 -0.5582
   50CHL1    C5 6114   4.732   1.535   9.934  0.3360  0.0026 -0.3236
   50CHL1    C6 6115   4.623   1.553   9.852  0.2270  0.0924  0.1205
   50CHL1    H6 6116   4.530   1.518   9.899 -1.1568  1.0296 -1.7875
   50CHL1    C7 6117   4.628   1.586   9.705  0.8099  0.5941 -0.2100
   50CHL1   H7A 6118   4.556   1.521   9.651 -0.1380  0.9762  0.5558
   50CHL1   H7B 6119   4.600   1.693   9.689  0.7736  0.3999 -1.5367
   50CHL1    C8 6120   4.767   1.570   9.649  0.0178  0.0480  0.2953
   50CHL1    H8 6121   4.790   1.461   9.644  1.4138  0.2779  1.1762
   50CHL1   C14 6122   4.782   1.632   9.511 -0.5528 -0.3699 -0.1675
   50CHL1   H14 6123   4.774   1.742   9.523  3.6102 -0.0313  0.9480
   50CHL1   C15 6124   4.674   1.590   9.405 -0.1876  1.3641  0.7634
   50CHL1  H15A 6125   4.644   1.484   9.421  1.5527  0.0727 -3.2944
   50CHL1  H15B 6126   4.585   1.655   9.417 -0.4053  0.7460  2.9870
   50CHL1   C16 6127   4.750   1.607   9.274  0.3487  0.0306 -0.7103
   50CHL1  H16A 6128   4.783   1.509   9.233 -1.3216 -1.6302  1.6614
   50CHL1  H16B 6129   4.703   1.665   9.191  1.5924  0.0007 -1.4652
   50CHL1   C17 6130   4.886   1.684   9.306 -0.2135 -0.3078  0.3234
   50CHL1   H17 6131   4.864   1.792   9.318  0.7233  0.1362 -1.5329
   50CHL1   C13 6132   4.923   1.630   9.444 -0.5662  0.4187  0.4792
   50CHL1   C18 6133   4.974   1.479   9.422  0.4652 -0.2448  0.9258
   50CHL1  H18A 6134   5.077   1.485   9.380  0.3827  1.0720  0.8520
   50CHL1  H18B 6135   4.980   1.414   9.512  0.7373 -2.2724 -0.4990
   50CHL1  H18C 6136   4.908   1.413   9.362 -1.3247 -1.0016  3.5309
   50CHL1   C12 6137   5.022   1.715   9.533 -0.5064  1.0195 -0.0832
   50CHL1  H12A 6138   5.125   1.704   9.493 -0.5672  1.6630 -0.4256
   50CHL1  H12B 6139   4.995   1.823   9.534 -0.2744  1.0712  0.9561
   50CHL1   C11 6140   5.013   1.649   9.677 -0.9400  0.0178  0.6853
   50CHL1  H11A 6141   5.067   1.553   9.661 -0.3442  0.4928 -0.2111
   50CHL1  H11B 6142   5.077   1.707   9.747 -0.6739  0.0385  0.4242
   50CHL1    C9 6143   4.873   1.632   9.745 -0.1363 -0.8894  0.3919
   50CHL1    H9 6144   4.837   1.736   9.758  0.1473 -0.6645 -0.5522
   50CHL1   C10 6145   4.880   1.569   9.888  0.0740 -0.2349  0.0847
   50CHL1   C19 6146   4.955   1.435   9.875 -0.1249  0.0694 -0.3284
   50CHL1  H19A 6147   4.941   1.374   9.968 -1.9357 -0.8966 -1.1901
   50CHL1  H19B 6148   4.911   1.372   9.795 -3.3418  1.8237 -0.0731
   50CHL1  H19C 6149   5.064   1.445   9.857 -0.1328  0.6883 -0.0530
   50CHL1    C1 6150   4.938   1.665   9.981 -0.4117  0.0695  0.4677
   50CHL1   H1A 6151   5.046   1.647   9.963 -0.6754 -0.7071 -0.3550
   50CHL1   H1B 6152   4.904   1.771   9.973 -0.8935 -0.0607  0.7099
   50CHL1    C2 6153   4.932   1.629  10.135  0.4414  0.0370 -0.1306
   50CHL1   H2A 6154   4.973   1.717  10.189 -0.2672  0.5232 -0.3722
   50CHL1   H2B 6155   4.986   1.533  10.145 -0.8697 -0.6736  0.4244
   50CHL1   C20 6156   4.980   1.685   9.183  0.0638  1.2093 -0.1219
   50CHL1   H20 6157   4.995   1.578   9.157 -0.2883  1.3728 -1.0360
   50CHL1   C21 6158   5.117   1.757   9.208 -0.2964  0.6875 -1.3070
   50CHL1  H21A 6159   5.178   1.739   9.117  0.0857 -1.0509 -0.7258
   50CHL1  H21B 6160   5.175   1.712   9.292 -0.4516  1.2399 -0.8970
   50CHL1  H21C 6161   5.099   1.865   9.228 -0.4278  0.2713  1.1351
   50CHL1   C22 6162   4.911   1.752   9.055 -0.3088  0.4454  0.5992
   50CHL1  H22A 6163   4.806   1.728   9.028 -0.1423  1.8345 -1.4978
   50CHL1  H22B 6164   4.915   1.860   9.080 -0.1596  0.2832  1.3113
   50CHL1   C23 6165   4.992   1.733   8.930  0.0372 -0.4010  0.7200
   50CHL1  H23A 6166   5.099   1.764   8.931  0.0041 -0.2686  0.4250
   50CHL1  H23B 6167   5.003   1.624   8.914 -0.9552 -0.2016 -1.7311
   50CHL1   C24 6168   4.916   1.790   8.806  0.7586  0.7461 -0.2669
   50CHL1  H24A 6169   4.809   1.761   8.815  0.2967  2.0635 -1.2620
   50CHL1  H24B 6170   4.914   1.900   8.815  2.0871  0.9903 -2.1991
   50CHL1   C25 6171   4.973   1.754   8.664 -0.8545  0.7150 -0.0332
   50CHL1   H25 6172   4.971   1.643   8.654 -1.2281  0.7876 -0.8987
   50CHL1   C26 6173   4.880   1.811   8.555 -0.1890  0.2968  0.4751
   50CHL1  H26A 6174   4.922   1.913   8.540  1.0799  0.0329  1.9675
   50CHL1  H26B 6175   4.882   1.738   8.472  0.4866  0.0846  0.6791
   50CHL1  H26C 6176   4.777   1.806   8.597 -0.6715 -1.5907 -0.8334
   50CHL1   C27 6177   5.120   1.783   8.634  0.0344 -0.3297 -0.1548
   50CHL1  H27A 6178   5.157   1.772   8.529 -0.8838 -2.9215 -0.2885
   50CHL1  H27B 6179   5.134   1.887   8.669 -1.6924  0.5965 -2.0167
   50CHL1  H27C 6180   5.175   1.718   8.706 -0.6116 -0.1792  0.4866
   51CHL1    C3 6181   6.782   3.785  10.148 -0.4287  0.6499 -0.6141
   51CHL1    H3 6182   6.694   3.721  10.128  0.4740 -1.1792  0.9731
   51CHL1    O3 6183   6.786   3.804  10.287  1.0268  0.5907 -0.4303
   51CHL1   H3' 6184   6.852   3.871  10.306  0.9783 -0.0238  2.2978
   51CHL1    C4 6185   6.905   3.704  10.103 -1.1387 -0.4186 -0.2669
   51CHL1   H4A 6186   6.991   3.749  10.157 -2.0355  0.3335  0.5641
   51CHL1   H4B 6187   6.911   3.604  10.151  1.7661 -0.8640 -1.3710
   51CHL1    C5 6188   6.921   3.700   9.953  0.3506  0.1327 -0.3831
   51CHL1    C6 6189   6.905   3.583   9.890  0.3658  0.0615 -0.7072
   51CHL1    H6 6190   6.901   3.491   9.949 -1.1938 -1.3393 -2.8368
   51CHL1    C7 6191   6.923   3.573   9.746 -0.0252 -0.5672 -0.1518
   51CHL1   H7A 6192   6.998   3.498   9.713  1.5769  0.7088  0.4845
   51CHL1   H7B 6193   6.825   3.547   9.699  0.5487 -2.9339 -0.1634
   51CHL1    C8 6194   6.982   3.696   9.679  0.2188 -0.0310 -0.6184
   51CHL1    H8 6195   7.089   3.703   9.706 -0.2534  0.0568  1.4080
   51CHL1   C14 6196   6.961   3.689   9.531  0.0555  0.4973  0.0001
   51CHL1   H14 6197   6.853   3.689   9.503 -0.9114 -2.4875  3.0115
   51CHL1   C15 6198   7.004   3.560   9.460  0.2725 -0.0990  0.0731
   51CHL1  H15A 6199   7.103   3.525   9.496  0.6611  0.0012 -0.8749
   51CHL1  H15B 6200   6.932   3.476   9.468  1.4099 -1.4315 -2.4512
   51CHL1   C16 6201   7.003   3.601   9.313 -0.1192  0.4826  0.0725
   51CHL1  H16A 6202   7.099   3.570   9.266 -0.4233 -0.8622  0.2887
   51CHL1  H16B 6203   6.918   3.553   9.260 -0.4755  0.9561  0.2054
   51CHL1   C17 6204   6.984   3.755   9.312  0.5155  0.0652  0.8261
   51CHL1   H17 6205   6.877   3.780   9.304  1.3032  3.1412 -3.2263
   51CHL1   C13 6206   7.022   3.807   9.453  0.9398  0.2866  0.1405
   51CHL1   C18 6207   7.170   3.817   9.479  0.4970 -0.6730 -0.0969
   51CHL1  H18A 6208   7.227   3.726   9.450  2.1845  0.2812  0.0759
   51CHL1  H18B 6209   7.220   3.897   9.420  0.7112 -1.3448 -0.8508
   51CHL1  H18C 6210   7.195   3.836   9.585  0.2492 -1.0754  0.0358
   51CHL1   C12 6211   6.935   3.929   9.496  0.0458 -0.3846 -0.2333
   51CHL1  H12A 6212   6.977   4.015   9.440 -0.3477 -0.9701 -1.4658
   51CHL1  H12B 6213   6.828   3.918   9.468  0.4103 -1.6472 -1.2372
   51CHL1   C11 6214   6.957   3.949   9.647 -0.2694 -0.7161 -0.2815
   51CHL1  H11A 6215   7.062   3.985   9.648 -0.7211  0.8762 -2.3068
   51CHL1  H11B 6216   6.900   4.040   9.678  1.9003  1.1904 -1.5927
   51CHL1    C9 6217   6.911   3.824   9.729  0.2020 -0.4576 -0.1811
   51CHL1    H9 6218   6.804   3.812   9.703 -0.4271 -1.0314  2.4207
   51CHL1   C10 6219   6.917   3.834   9.885 -0.4839  0.1635  0.1347
   51CHL1   C19 6220   7.048   3.917   9.922  0.5178 -0.3484 -0.1708
   51CHL1  H19A 6221   7.035   4.025   9.898 -1.3651 -0.1397  1.5489
   51CHL1  H19B 6222   7.071   3.912  10.030 -0.9590  0.8874  0.2379
   51CHL1  H19C 6223   7.134   3.867   9.874 -1.4968 -3.1300 -1.1557
   51CHL1    C1 6224   6.793   3.910   9.936 -0.0136  0.6258 -0.6738
   51CHL1   H1A 6225   6.782   4.010   9.888  0.9701  0.3258 -1.5327
   51CHL1   H1B 6226   6.708   3.849   9.898  0.9830  0.0296 -2.0153
   51CHL1    C2 6227   6.778   3.925  10.090 -0.4739  0.4527 -0.4658
   51CHL1   H2A 6228   6.690   3.983  10.125 -0.2578  0.4000  0.1827
   51CHL1   H2B 6229   6.858   3.992  10.128 -1.2112  0.2994  1.4961
   51CHL1   C20 6230   7.059   3.815   9.192  0.3959  0.0534 -0.1858
   51CHL1   H20 6231   7.167   3.817   9.218  0.0670 -0.2844  1.2943
   51CHL1   C21 6232   7.016   3.962   9.173  1.2223 -0.3993 -0.2166
   51CHL1  H21A 6233   7.048   4.031   9.254 -0.7828 -2.2933  2.3432
   51CHL1  H21B 6234   6.906   3.970   9.160  1.2433 -0.7849 -0.6174
   51CHL1  H21C 6235   7.051   3.977   9.069 -2.2600  0.7963 -1.3658
   51CHL1   C22 6236   7.046   3.740   9.059 -0.2344 -0.0292  0.0986
   51CHL1  H22A 6237   7.097   3.797   8.979 -0.0087 -1.7730 -1.0372
   51CHL1  H22B 6238   7.100   3.643   9.063 -1.7147 -0.9438 -1.0897
   51CHL1   C23 6239   6.906   3.704   9.014  0.1604 -0.9127  0.0731
   51CHL1  H23A 6240   6.846   3.651   9.091  0.3103  0.7131  1.3467
   51CHL1  H23B 6241   6.851   3.796   8.987 -2.5650 -2.3016  0.5309
   51CHL1   C24 6242   6.915   3.604   8.902 -0.1024  0.4300  0.4919
   51CHL1  H24A 6243   6.985   3.650   8.829  1.6592 -0.0757  1.7895
   51CHL1  H24B 6244   6.969   3.520   8.951  0.0014  1.6066  2.5222
   51CHL1   C25 6245   6.769   3.559   8.861 -0.4880 -0.1572  0.1090
   51CHL1   H25 6246   6.722   3.516   8.952 -0.0996 -1.4884 -0.2929
   51CHL1   C26 6247   6.676   3.676   8.817  0.3267 -0.1554 -0.7090
   51CHL1  H26A 6248   6.583   3.635   8.773  0.5494 -0.5625 -0.8042
   51CHL1  H26B 6249   6.650   3.743   8.901  1.9775 -1.4892  0.9472
   51CHL1  H26C 6250   6.726   3.732   8.735  2.5441  0.7821  1.1644
   51CHL1   C27 6251   6.775   3.442   8.759  0.2138  0.2670  0.5281
   51CHL1  H27A 6252   6.845   3.475   8.678 -1.0628 -1.1881 -1.2589
   51CHL1  H27B 6253   6.819   3.353   8.808  1.4848 -0.8553 -2.4265
   51CHL1  H27C 6254   6.680   3.410   8.713  0.4509 -1.0761  0.9508
   52CHL1    C3 6255   2.974   1.624   9.883  0.7521 -0.3915  0.3936
   52CHL1    H3 6256   3.000   1.731   9.866  1.5064 -0.3711  1.5618
   52CHL1    O3 6257   2.964   1.595  10.023  0.2842 -0.1454 -0.7081
   52CHL1   H3' 6258   3.053   1.573  10.051  1.3167  1.5941 -2.3656
   52CHL1    C4 6259   2.849   1.592   9.802  0.0689 -0.0417 -0.0244
   52CHL1   H4A 6260   2.824   1.487   9.831  2.2107 -0.9853 -1.2950
   52CHL1   H4B 6261   2.767   1.651   9.848  0.4344 -1.7737  3.1646
   52CHL1    C5 6262   2.866   1.599   9.648  0.0753  0.4846 -0.3621
   52CHL1    C6 6263   2.787   1.679   9.574 -0.2827  0.3092  0.5813
   52CHL1    H6 6264   2.703   1.732   9.620 -0.9131  1.0786 -1.3837
   52CHL1    C7 6265   2.795   1.688   9.421  0.6281 -0.4952 -0.0984
   52CHL1   H7A 6266   2.693   1.662   9.385 -0.1296  1.4986  0.4841
   52CHL1   H7B 6267   2.836   1.787   9.393 -1.3497  0.1114 -1.0857
   52CHL1    C8 6268   2.894   1.582   9.362 -0.0889  0.5809 -0.2277
   52CHL1    H8 6269   2.840   1.485   9.369  1.0910  0.0257  2.1422
   52CHL1   C14 6270   2.931   1.616   9.218  1.0725 -0.9031 -0.4673
   52CHL1   H14 6271   2.979   1.716   9.215 -0.8735  0.0601 -1.2051
   52CHL1   C15 6272   2.816   1.648   9.122  0.2849  0.2296 -0.2588
   52CHL1  H15A 6273   2.749   1.559   9.126  0.8940 -0.2186  0.0412
   52CHL1  H15B 6274   2.764   1.744   9.142 -0.1026  0.5346 -2.4429
   52CHL1   C16 6275   2.885   1.645   8.985  0.0572  0.2223  0.3418
   52CHL1  H16A 6276   2.831   1.588   8.907  1.7365 -0.5655 -0.2859
   52CHL1  H16B 6277   2.912   1.749   8.957  0.5047  0.4046  1.4028
   52CHL1   C17 6278   3.027   1.571   9.000 -0.2042  0.0209  0.3168
   52CHL1   H17 6279   3.104   1.651   8.999  0.6468 -0.7793 -0.4163
   52CHL1   C13 6280   3.024   1.514   9.144 -0.2521 -0.5079  1.0327
   52CHL1   C18 6281   2.957   1.378   9.144  0.4697 -0.2488 -0.8031
   52CHL1  H18A 6282   2.864   1.373   9.084 -0.6066  0.8437  0.6935
   52CHL1  H18B 6283   3.032   1.304   9.110  0.0663 -0.2088 -1.7984
   52CHL1  H18C 6284   2.928   1.337   9.243 -0.8782 -1.3344 -1.6080
   52CHL1   C12 6285   3.153   1.525   9.228  0.3930 -0.3469  0.1857
   52CHL1  H12A 6286   3.226   1.454   9.184  1.7134  0.8999  0.3002
   52CHL1  H12B 6287   3.186   1.631   9.229 -1.3760  0.3046 -1.8608
   52CHL1   C11 6288   3.126   1.483   9.373 -0.1561  0.2365  0.5307
   52CHL1  H11A 6289   3.089   1.378   9.374 -2.3215  0.8999 -0.9941
   52CHL1  H11B 6290   3.222   1.479   9.428  0.1198 -1.1931 -0.0266
   52CHL1    C9 6291   3.019   1.569   9.454 -0.6083 -0.1059  0.5813
   52CHL1    H9 6292   3.072   1.665   9.469  0.5067 -0.8076  1.2910
   52CHL1   C10 6293   2.988   1.523   9.595 -0.1162 -0.3615 -0.7096
   52CHL1   C19 6294   2.950   1.371   9.599  0.0462 -0.5352  0.3878
   52CHL1  H19A 6295   3.040   1.311   9.575  0.2697 -1.0198  2.2404
   52CHL1  H19B 6296   2.930   1.341   9.704 -1.2317 -1.8548 -0.2046
   52CHL1  H19C 6297   2.862   1.352   9.535 -0.0977  3.0247 -0.7128
   52CHL1    C1 6298   3.110   1.568   9.681 -0.0431 -0.4543 -0.3349
   52CHL1   H1A 6299   3.191   1.503   9.642 -0.2513  0.2147 -1.9787
   52CHL1   H1B 6300   3.131   1.675   9.660  1.0564 -0.3990  0.8889
   52CHL1    C2 6301   3.092   1.545   9.829  0.0122  0.7674  0.2161
   52CHL1   H2A 6302   3.182   1.577   9.885 -0.3561  0.8365  0.7771
   52CHL1   H2B 6303   3.072   1.437   9.849 -0.6868  0.9479  0.5112
   52CHL1   C20 6304   3.060   1.487   8.878 -0.0365  0.0938  0.1315
   52CHL1   H20 6305   2.996   1.396   8.877  0.2285 -0.1262  1.3389
   52CHL1   C21 6306   3.205   1.442   8.904  0.3663  0.0881 -0.5547
   52CHL1  H21A 6307   3.279   1.525   8.902  0.9209 -0.3080  1.6579
   52CHL1  H21B 6308   3.237   1.372   8.823  0.8712  0.4224 -0.6495
   52CHL1  H21C 6309   3.229   1.395   9.002  2.0807 -0.2542 -1.0929
   52CHL1   C22 6310   3.054   1.568   8.744 -0.7199  0.6132  0.0798
   52CHL1  H22A 6311   2.967   1.637   8.755 -0.4913  0.7250  1.3195
   52CHL1  H22B 6312   3.141   1.636   8.742 -0.8247  0.7269 -1.1346
   52CHL1   C23 6313   3.044   1.488   8.613  0.2206 -0.0378  0.1760
   52CHL1  H23A 6314   2.968   1.408   8.626  0.1129  0.1816  0.9385
   52CHL1  H23B 6315   3.010   1.550   8.528 -1.0676 -2.4241 -1.1663
   52CHL1   C24 6316   3.175   1.434   8.556  0.3057 -0.1063  0.0251
   52CHL1  H24A 6317   3.252   1.506   8.590  0.5217 -0.9507  1.3863
   52CHL1  H24B 6318   3.199   1.341   8.612 -0.8956  0.6358  1.8462
   52CHL1   C25 6319   3.178   1.407   8.405 -0.3636  0.4457 -0.4610
   52CHL1   H25 6320   3.273   1.354   8.383 -0.6562 -1.6747  2.6615
   52CHL1   C26 6321   3.079   1.303   8.354  0.8984  0.1308 -0.3800
   52CHL1  H26A 6322   3.085   1.278   8.246 -2.1226 -0.4856 -0.4892
   52CHL1  H26B 6323   3.088   1.206   8.408  0.6624 -1.2343 -2.6557
   52CHL1  H26C 6324   2.976   1.341   8.367  1.1219  0.8797 -0.7283
   52CHL1   C27 6325   3.175   1.529   8.304 -0.3003  0.4849 -0.0925
   52CHL1  H27A 6326   3.081   1.589   8.300 -1.7542 -1.6188  0.5197
   52CHL1  H27B 6327   3.256   1.599   8.331  1.0992 -1.9089  2.4322
   52CHL1  H27C 6328   3.186   1.495   8.199  0.7562  2.3026 -0.6092
   53CHL1    C3 6329   4.888   2.545  10.020 -0.1020 -0.1991  0.6657
   53CHL1    H3 6330   4.853   2.446   9.983 -1.0899  0.3935 -0.0550
   53CHL1    O3 6331   4.939   2.533  10.152 -0.2851 -0.4151  1.2401
   53CHL1   H3' 6332   4.866   2.522  10.213 -2.1669  0.8917 -0.6374
   53CHL1    C4 6333   5.004   2.590   9.921 -0.0324  0.3299  0.6835
   53CHL1   H4A 6334   5.045   2.684   9.964 -0.5303  0.3295  1.1644
   53CHL1   H4B 6335   5.073   2.503   9.917 -0.1896  0.2310 -2.9757
   53CHL1    C5 6336   4.970   2.623   9.781 -0.0786 -0.1324  0.0324
   53CHL1    C6 6337   5.029   2.553   9.684  0.1887  0.8707  0.6193
   53CHL1    H6 6338   5.108   2.477   9.695  0.6549  1.4660  1.4266
   53CHL1    C7 6339   4.987   2.578   9.541  0.0939  0.1741  0.2743
   53CHL1   H7A 6340   5.071   2.604   9.472  0.1973 -0.1336  0.2819
   53CHL1   H7B 6341   4.916   2.502   9.502  0.6680 -1.4357  2.2261
   53CHL1    C8 6342   4.904   2.712   9.522 -0.5537 -0.6625 -0.0238
   53CHL1    H8 6343   4.970   2.799   9.543 -0.7603 -0.6519  0.6112
   53CHL1   C14 6344   4.847   2.733   9.385  0.6447 -0.0129 -0.0683
   53CHL1   H14 6345   4.771   2.652   9.376 -2.2617  2.4678  0.6537
   53CHL1   C15 6346   4.938   2.726   9.260  0.8481  0.2140  0.1088
   53CHL1  H15A 6347   5.029   2.788   9.273  0.6598  0.0828  2.2857
   53CHL1  H15B 6348   4.976   2.623   9.243 -1.2775 -0.5904  0.0226
   53CHL1   C16 6349   4.850   2.779   9.140 -0.5024  0.9309  0.1303
   53CHL1  H16A 6350   4.894   2.869   9.091  0.1088 -0.4278 -1.9833
   53CHL1  H16B 6351   4.833   2.704   9.059  0.5648 -0.0331  0.7790
   53CHL1   C17 6352   4.726   2.842   9.213  0.2016  0.7455  0.2684
   53CHL1   H17 6353   4.647   2.764   9.203 -1.5358  2.6000 -1.4618
   53CHL1   C13 6354   4.769   2.856   9.364  0.0516 -0.3748  0.6804
   53CHL1   C18 6355   4.852   2.983   9.375 -0.1892 -0.9115 -0.4479
   53CHL1  H18A 6356   4.871   3.000   9.483 -3.6758  0.7984  0.0678
   53CHL1  H18B 6357   4.945   2.987   9.315 -0.2885 -0.6283 -0.5892
   53CHL1  H18C 6358   4.796   3.076   9.349 -0.0146 -1.0430 -1.3163
   53CHL1   C12 6359   4.654   2.854   9.453  0.6869 -0.9123 -0.0878
   53CHL1  H12A 6360   4.597   2.948   9.443  2.4625  0.1952 -0.2185
   53CHL1  H12B 6361   4.588   2.765   9.441  0.1589 -0.8231  1.8759
   53CHL1   C11 6362   4.699   2.849   9.598 -0.7171 -0.0747  0.0958
   53CHL1  H11A 6363   4.749   2.944   9.626 -0.0708 -0.4771  0.3251
   53CHL1  H11B 6364   4.606   2.842   9.660 -0.3728 -0.8939  0.5374
   53CHL1    C9 6365   4.793   2.727   9.623  0.3595 -0.5355 -0.4055
   53CHL1    H9 6366   4.733   2.634   9.611  1.7277 -1.4719 -0.2473
   53CHL1   C10 6367   4.846   2.722   9.773 -0.2535  0.4979 -0.3502
   53CHL1   C19 6368   4.898   2.864   9.821 -0.3925 -0.3305 -1.1595
   53CHL1  H19A 6369   4.985   2.890   9.757  0.4079 -0.5982 -0.2086
   53CHL1  H19B 6370   4.818   2.942   9.814  1.1453  1.1781 -2.8556
   53CHL1  H19C 6371   4.936   2.852   9.925  0.4649 -1.4268 -1.5936
   53CHL1    C1 6372   4.732   2.677   9.871 -0.2975  0.2971 -0.3207
   53CHL1   H1A 6373   4.653   2.755   9.876  0.3023  0.8620  1.3741
   53CHL1   H1B 6374   4.685   2.586   9.830  1.2937 -0.9729  0.5530
   53CHL1    C2 6375   4.776   2.646  10.016  0.5815 -0.4123  0.5326
   53CHL1   H2A 6376   4.699   2.618  10.091  1.5381 -2.8946  0.7065
   53CHL1   H2B 6377   4.823   2.739  10.054  1.1599 -0.1803 -0.6821
   53CHL1   C20 6378   4.642   2.954   9.133 -0.4450  0.8461  0.0220
   53CHL1   H20 6379   4.705   3.044   9.116  0.5898 -0.1392 -1.7380
   53CHL1   C21 6380   4.520   3.008   9.208  0.0254  0.1267  0.1813
   53CHL1  H21A 6381   4.443   3.063   9.150 -0.1407 -0.9797 -0.6801
   53CHL1  H21B 6382   4.561   3.078   9.285  3.3653 -2.7821  1.3390
   53CHL1  H21C 6383   4.468   2.927   9.262  2.4769 -2.2949 -0.8607
   53CHL1   C22 6384   4.599   2.900   8.997 -0.5272 -0.0788 -0.0006
   53CHL1  H22A 6385   4.687   2.864   8.940 -1.2663  0.0527 -1.2710
   53CHL1  H22B 6386   4.536   2.809   9.009 -1.8949  1.0365  1.6726
   53CHL1   C23 6387   4.527   3.003   8.902 -0.1658  0.1419 -0.0266
   53CHL1  H23A 6388   4.431   3.054   8.922  0.1027  1.0084 -0.8449
   53CHL1  H23B 6389   4.593   3.092   8.896 -2.5941  1.9786 -1.5059
   53CHL1   C24 6390   4.507   2.957   8.754 -0.2982 -0.2471  0.0943
   53CHL1  H24A 6391   4.592   2.896   8.718 -0.9295 -1.1429  0.0820
   53CHL1  H24B 6392   4.417   2.893   8.743 -1.7407  1.6957  0.0589
   53CHL1   C25 6393   4.475   3.071   8.651  0.0281 -0.6067 -0.8238
   53CHL1   H25 6394   4.405   3.135   8.708  1.0264 -1.4467  1.4338
   53CHL1   C26 6395   4.601   3.150   8.609 -0.4457  0.0349  0.1246
   53CHL1  H26A 6396   4.680   3.075   8.627 -2.5676 -1.8913  2.1297
   53CHL1  H26B 6397   4.582   3.189   8.506  0.6428  2.2222  0.7052
   53CHL1  H26C 6398   4.610   3.238   8.676  0.4584 -0.4865  0.7104
   53CHL1   C27 6399   4.395   3.030   8.533  0.3662 -0.2188  0.5484
   53CHL1  H27A 6400   4.300   2.977   8.557  0.0789 -0.1549 -0.4080
   53CHL1  H27B 6401   4.372   3.123   8.477  0.8511  0.6426  1.7378
   53CHL1  H27C 6402   4.454   2.955   8.476 -2.6616 -2.1861 -0.1974
   54CHL1    C3 6403   5.014   6.111  10.265  0.0194 -0.0473 -0.2342
   54CHL1    H3 6404   4.922   6.173  10.257  0.5810  0.7156 -1.0321
   54CHL1    O3 6405   5.028   6.070  10.404  0.1154  0.2221 -0.4642
   54CHL1   H3' 6406   4.940   6.044  10.430  0.4541 -2.1218 -1.3555
   54CHL1    C4 6407   4.988   5.980  10.175 -0.0219 -0.2238 -0.2022
   54CHL1   H4A 6408   5.074   5.911  10.186  0.4093  0.2165 -0.7497
   54CHL1   H4B 6409   4.897   5.931  10.214 -0.1998  0.3426  0.1079
   54CHL1    C5 6410   4.984   6.021  10.031 -0.2864 -0.6578  1.0352
   54CHL1    C6 6411   4.879   5.988   9.953  0.6629 -0.0308  0.6520
   54CHL1    H6 6412   4.796   5.927   9.992 -1.2259  1.4927 -0.7584
   54CHL1    C7 6413   4.868   6.027   9.804 -0.2693 -0.4129 -0.1544
   54CHL1   H7A 6414   4.829   5.946   9.738 -0.3669 -1.4021  1.0914
   54CHL1   H7B 6415   4.802   6.117   9.806  0.1826 -0.0939  1.5154
   54CHL1    C8 6416   5.001   6.073   9.741 -0.4391  0.4006 -0.4687
   54CHL1    H8 6417   5.063   5.983   9.722 -0.0391  0.8601 -1.4214
   54CHL1   C14 6418   4.969   6.136   9.612 -0.5325  0.8099  0.1787
   54CHL1   H14 6419   4.904   6.223   9.632 -0.5181  0.7412  0.5339
   54CHL1   C15 6420   4.883   6.052   9.516 -0.9184  0.4283  0.0234
   54CHL1  H15A 6421   4.927   5.950   9.519 -0.3972  0.6702  1.4976
   54CHL1  H15B 6422   4.778   6.040   9.549 -1.2770  2.6980 -0.1094
   54CHL1   C16 6423   4.904   6.128   9.383 -0.1551  0.1933 -0.2377
   54CHL1  H16A 6424   4.928   6.054   9.304  3.1922 -2.1572  2.6703
   54CHL1  H16B 6425   4.810   6.187   9.375  0.7599  1.6975 -0.3207
   54CHL1   C17 6426   5.019   6.232   9.413 -0.1768 -0.7512  0.0635
   54CHL1   H17 6427   4.971   6.327   9.446  1.4429 -0.2541  1.0855
   54CHL1   C13 6428   5.091   6.185   9.539 -0.3194 -0.4955 -0.2069
   54CHL1   C18 6429   5.184   6.074   9.497  0.7680  0.5245  0.3162
   54CHL1  H18A 6430   5.227   6.022   9.585 -1.4092 -0.8349  0.6539
   54CHL1  H18B 6431   5.137   6.001   9.427 -0.4208 -0.0708  1.6786
   54CHL1  H18C 6432   5.272   6.105   9.437 -0.0591  0.3847 -1.0234
   54CHL1   C12 6433   5.158   6.292   9.629  0.2788 -0.0400 -0.5358
   54CHL1  H12A 6434   5.252   6.331   9.584  0.1719 -1.0528 -1.6889
   54CHL1  H12B 6435   5.088   6.379   9.630 -1.8634 -1.6583  1.0573
   54CHL1   C11 6436   5.198   6.231   9.767  0.1464  1.2477  0.6563
   54CHL1  H11A 6437   5.281   6.157   9.756 -0.4011  0.5865  0.9244
   54CHL1  H11B 6438   5.241   6.318   9.822  0.3577  1.5211  0.0643
   54CHL1    C9 6439   5.075   6.166   9.839 -0.7201  0.3979 -1.0179
   54CHL1    H9 6440   5.003   6.249   9.858 -0.5501  0.3601 -0.1691
   54CHL1   C10 6441   5.103   6.101   9.980  0.6959 -1.1518  0.2174
   54CHL1   C19 6442   5.223   6.013   9.959  0.3941  0.2889  0.7789
   54CHL1  H19A 6443   5.251   5.960  10.052 -0.7610 -2.0255 -0.1262
   54CHL1  H19B 6444   5.210   5.931   9.886  4.0626 -0.4662  0.7792
   54CHL1  H19C 6445   5.315   6.067   9.929 -1.0191  2.5537  0.2685
   54CHL1    C1 6446   5.129   6.222  10.075  0.6443  0.4582 -0.4289
   54CHL1   H1A 6447   5.233   6.256  10.058  1.3526  0.1592  2.7316
   54CHL1   H1B 6448   5.054   6.302  10.059  1.2533  1.3192  0.8839
   54CHL1    C2 6449   5.135   6.186  10.229  0.2083  0.1246 -0.0701
   54CHL1   H2A 6450   5.148   6.279  10.290  1.2315 -0.5363  0.7603
   54CHL1   H2B 6451   5.226   6.124  10.246 -0.7681 -2.0769 -2.3143
   54CHL1   C20 6452   5.094   6.270   9.286  0.1841 -0.4034 -0.2436
   54CHL1   H20 6453   5.125   6.176   9.236 -2.4270 -1.5275  0.0423
   54CHL1   C21 6454   5.216   6.355   9.313 -0.1838 -0.0077  0.4497
   54CHL1  H21A 6455   5.261   6.388   9.217  1.0030 -0.2207  0.9131
   54CHL1  H21B 6456   5.298   6.298   9.361 -1.1601 -0.3730  1.7257
   54CHL1  H21C 6457   5.181   6.448   9.365  2.2512  0.6689  0.9966
   54CHL1   C22 6458   5.006   6.337   9.176 -0.1929 -1.0113 -0.4881
   54CHL1  H22A 6459   4.915   6.273   9.168 -0.9142 -0.2834  1.2872
   54CHL1  H22B 6460   4.965   6.434   9.211  4.0372  1.0635 -0.7870
   54CHL1   C23 6461   5.067   6.348   9.037 -0.2461  0.4815 -0.4317
   54CHL1  H23A 6462   5.154   6.417   9.043  1.1875 -1.3536  3.4671
   54CHL1  H23B 6463   5.112   6.249   9.017 -0.3232  0.3875 -0.1409
   54CHL1   C24 6464   4.963   6.394   8.935  0.1153  0.2836  0.4341
   54CHL1  H24A 6465   4.868   6.337   8.939  0.6216 -0.7855 -1.4794
   54CHL1  H24B 6466   4.942   6.503   8.949 -2.2957  0.2575 -2.0795
   54CHL1   C25 6467   5.008   6.379   8.790 -0.2306  0.8390 -0.1085
   54CHL1   H25 6468   5.098   6.437   8.761 -0.3779  0.5371 -1.1958
   54CHL1   C26 6469   5.035   6.232   8.746  0.0989  0.1104 -0.1327
   54CHL1  H26A 6470   4.947   6.172   8.777 -0.0754  0.5042  0.1555
   54CHL1  H26B 6471   5.058   6.231   8.637  1.8381  0.8764  0.2007
   54CHL1  H26C 6472   5.127   6.203   8.800 -0.5070 -1.3784  0.1313
   54CHL1   C27 6473   4.890   6.433   8.707  0.2800 -0.4462  0.7470
   54CHL1  H27A 6474   4.795   6.391   8.747 -0.8121  2.0331  0.9409
   54CHL1  H27B 6475   4.881   6.544   8.699 -1.2103 -0.5742  0.1801
   54CHL1  H27C 6476   4.914   6.403   8.603  3.0737 -0.5687  1.3676
   55CHL1    C3 6477   3.055   2.281  10.078 -0.6034 -0.4422 -0.1298
   55CHL1    H3 6478   2.951   2.271  10.041 -0.7063  0.3917 -0.0934
   55CHL1    O3 6479   3.051   2.302  10.223 -0.4646 -0.1710 -0.4287
   55CHL1   H3' 6480   2.975   2.356  10.248  0.2992  0.2428  1.1454
   55CHL1    C4 6481   3.130   2.150  10.044  0.3772  0.2906  0.5815
   55CHL1   H4A 6482   3.234   2.168  10.079 -0.1673  1.0375  1.9061
   55CHL1   H4B 6483   3.083   2.068  10.102 -1.1656  2.5916  2.7816
   55CHL1    C5 6484   3.132   2.128   9.891 -0.4504 -0.2249 -0.4439
   55CHL1    C6 6485   3.087   2.013   9.836  0.2650  0.1292  0.4428
   55CHL1    H6 6486   3.046   1.930   9.896 -0.5194 -0.6243 -1.0716
   55CHL1    C7 6487   3.072   1.984   9.687  0.3153 -0.4112 -0.6295
   55CHL1   H7A 6488   3.120   1.889   9.655 -0.1823 -0.0946 -2.4273
   55CHL1   H7B 6489   2.964   1.976   9.661 -0.6185 -0.8477  2.8060
   55CHL1    C8 6490   3.154   2.085   9.606 -0.3336 -1.0385  0.5505
   55CHL1    H8 6491   3.263   2.065   9.611 -0.0632 -0.2493 -1.2029
   55CHL1   C14 6492   3.109   2.087   9.462 -0.3355  0.2420  0.0720
   55CHL1   H14 6493   3.001   2.113   9.451 -0.0472  1.6617  0.3277
   55CHL1   C15 6494   3.117   1.946   9.397  0.4632 -0.0355  0.4781
   55CHL1  H15A 6495   3.218   1.907   9.418  1.2261  1.7223  0.2294
   55CHL1  H15B 6496   3.043   1.879   9.447 -0.8557 -0.5976 -2.0579
   55CHL1   C16 6497   3.088   1.971   9.251 -0.5610 -0.2191 -0.2820
   55CHL1  H16A 6498   3.160   1.909   9.192  1.9860  0.8070  1.5643
   55CHL1  H16B 6499   2.979   1.965   9.229 -0.9056  2.1822  0.4406
   55CHL1   C17 6500   3.108   2.128   9.237 -0.5538  0.0472  0.1756
   55CHL1   H17 6501   3.008   2.176   9.245 -0.7654 -0.2586 -0.5112
   55CHL1   C13 6502   3.177   2.174   9.362 -0.3543 -0.5707  0.0390
   55CHL1   C18 6503   3.336   2.144   9.358  0.0285  0.4944  0.1064
   55CHL1  H18A 6504   3.390   2.215   9.292  0.1280 -0.2905 -0.6899
   55CHL1  H18B 6505   3.381   2.162   9.457  1.6719 -0.1031 -0.4926
   55CHL1  H18C 6506   3.359   2.038   9.334 -0.9383  0.3639 -0.3249
   55CHL1   C12 6507   3.152   2.316   9.419  0.0241 -0.0263  0.5658
   55CHL1  H12A 6508   3.186   2.385   9.339 -3.6321  0.0524 -1.1486
   55CHL1  H12B 6509   3.044   2.342   9.420  0.0604  0.1100  1.3232
   55CHL1   C11 6510   3.194   2.327   9.566  0.5795  0.0187 -0.1040
   55CHL1  H11A 6511   3.305   2.325   9.572  0.5095 -0.4922  1.5294
   55CHL1  H11B 6512   3.162   2.428   9.601  1.4364 -0.1000  1.0636
   55CHL1    C9 6513   3.129   2.231   9.663 -0.1677 -0.6524 -0.7346
   55CHL1    H9 6514   3.019   2.243   9.669 -0.0987 -0.4510  0.3371
   55CHL1   C10 6515   3.174   2.251   9.810  0.0273  0.7146 -0.0541
   55CHL1   C19 6516   3.325   2.250   9.826 -0.3791 -0.1558 -0.6595
   55CHL1  H19A 6517   3.358   2.343   9.775 -0.4487  1.2940  1.7739
   55CHL1  H19B 6518   3.351   2.268   9.932  0.1633  0.4519 -0.8952
   55CHL1  H19C 6519   3.365   2.152   9.793  1.3110  0.7639 -1.4581
   55CHL1    C1 6520   3.115   2.393   9.856 -0.3722  0.5575 -0.6924
   55CHL1   H1A 6521   3.154   2.479   9.797 -1.0728  0.7478 -0.8985
   55CHL1   H1B 6522   3.005   2.396   9.840 -0.4922  0.2427  0.0134
   55CHL1    C2 6523   3.117   2.405  10.012 -0.1967 -0.7096  0.0380
   55CHL1   H2A 6524   3.076   2.502  10.047  0.5487 -0.7155  0.9678
   55CHL1   H2B 6525   3.222   2.413  10.049 -0.0475  0.9504 -0.6648
   55CHL1   C20 6526   3.158   2.168   9.097 -0.3695  0.4459 -0.2662
   55CHL1   H20 6527   3.244   2.103   9.066 -0.5308  0.3370 -0.4895
   55CHL1   C21 6528   3.201   2.311   9.076  0.1504 -0.0078  0.4363
   55CHL1  H21A 6529   3.284   2.326   9.148  0.7132  0.0816 -0.2286
   55CHL1  H21B 6530   3.117   2.372   9.117  1.0291  0.8795  0.9462
   55CHL1  H21C 6531   3.238   2.345   8.977 -2.2528  1.4185 -0.0648
   55CHL1   C22 6532   3.059   2.138   8.991  0.1768  0.6698 -0.1187
   55CHL1  H22A 6533   2.982   2.065   9.025  0.0822  0.4250 -0.8289
   55CHL1  H22B 6534   3.003   2.233   8.977 -1.8583 -0.4583  0.0026
   55CHL1   C23 6535   3.120   2.086   8.861  0.0043  0.3866 -0.3482
   55CHL1  H23A 6536   3.207   2.148   8.830 -1.0209  2.5856  0.9041
   55CHL1  H23B 6537   3.157   1.990   8.902  0.1203  0.9186  0.8309
   55CHL1   C24 6538   3.018   2.083   8.752 -0.0255 -0.1038  0.2046
   55CHL1  H24A 6539   2.927   2.045   8.804  2.4180 -1.6833  3.6861
   55CHL1  H24B 6540   2.992   2.184   8.715 -2.8724 -1.0499 -0.6376
   55CHL1   C25 6541   3.061   1.985   8.637 -0.4046  0.1305 -0.1841
   55CHL1   H25 6542   3.084   1.881   8.670 -1.4967 -0.5533 -1.4677
   55CHL1   C26 6543   2.948   1.973   8.533  0.1112 -0.1310 -0.2256
   55CHL1  H26A 6544   2.969   1.895   8.457 -3.6348 -0.4566 -1.1377
   55CHL1  H26B 6545   2.856   1.942   8.588  0.9673 -1.4842  0.5016
   55CHL1  H26C 6546   2.929   2.075   8.494 -0.2824 -0.6568 -1.4604
   55CHL1   C27 6547   3.189   2.028   8.559  0.2381  0.1118 -0.4943
   55CHL1  H27A 6548   3.169   2.128   8.514  2.2372  0.8860  0.2504
   55CHL1  H27B 6549   3.280   2.034   8.621 -0.9605  0.6274  1.2938
   55CHL1  H27C 6550   3.220   1.954   8.481  3.4311 -0.0757  0.8114
   56CHL1    C3 6551   5.063   4.715  10.067  0.0687  0.1587 -0.4626
   56CHL1    H3 6552   5.020   4.813  10.037  1.0426  0.3559 -1.2411
   56CHL1    O3 6553   5.051   4.691  10.207 -0.1252  0.0303 -0.3057
   56CHL1   H3' 6554   5.016   4.604  10.227 -0.0025 -0.3100 -1.4709
   56CHL1    C4 6555   4.985   4.606   9.990  0.4081  0.1001  0.1030
   56CHL1   H4A 6556   5.006   4.511  10.044  1.2197  0.4408  0.4092
   56CHL1   H4B 6557   4.881   4.626  10.021  0.0102  1.9805 -2.1864
   56CHL1    C5 6558   5.009   4.578   9.842 -0.2946 -0.1186 -1.4073
   56CHL1    C6 6559   4.911   4.561   9.750  0.9512  0.1408 -0.0551
   56CHL1    H6 6560   4.808   4.572   9.787  1.1137  0.2321  0.3740
   56CHL1    C7 6561   4.933   4.533   9.600 -0.3985  0.8681  0.2288
   56CHL1   H7A 6562   4.865   4.452   9.567 -1.6052  1.7371  0.4818
   56CHL1   H7B 6563   4.920   4.627   9.541 -1.2761 -0.7568 -2.3326
   56CHL1    C8 6564   5.074   4.485   9.562  0.0770  0.2429 -1.4528
   56CHL1    H8 6565   5.079   4.383   9.606 -1.9880  0.9109  0.5206
   56CHL1   C14 6566   5.103   4.496   9.413  0.2844  0.9954  0.2687
   56CHL1   H14 6567   5.104   4.602   9.379 -1.5466  0.7066 -0.8018
   56CHL1   C15 6568   5.004   4.417   9.326  0.2136  0.4453  0.5055
   56CHL1  H15A 6569   4.975   4.324   9.380 -1.3867  1.3751  1.3004
   56CHL1  H15B 6570   4.912   4.477   9.309 -0.1951  0.0401  1.2601
   56CHL1   C16 6571   5.081   4.391   9.194  0.3107 -0.4051  0.1188
   56CHL1  H16A 6572   5.054   4.292   9.149  0.1201 -0.9061  1.3024
   56CHL1  H16B 6573   5.061   4.470   9.118 -3.5885  1.3254  2.6414
   56CHL1   C17 6574   5.228   4.426   9.224 -0.1222  0.3478  0.1392
   56CHL1   H17 6575   5.251   4.523   9.174  3.8113 -1.0758 -1.1602
   56CHL1   C13 6576   5.234   4.431   9.377 -0.8657  0.6620  0.0914
   56CHL1   C18 6577   5.250   4.281   9.429  0.2421 -1.1525 -0.2585
   56CHL1  H18A 6578   5.264   4.281   9.539 -2.0738  1.3845  0.1345
   56CHL1  H18B 6579   5.173   4.207   9.400 -0.5038 -1.4736  2.2737
   56CHL1  H18C 6580   5.351   4.246   9.397 -0.1478 -2.0742 -0.5101
   56CHL1   C12 6581   5.340   4.528   9.445 -0.0252 -0.4285  0.0059
   56CHL1  H12A 6582   5.445   4.500   9.426  0.8322  1.4376  1.6760
   56CHL1  H12B 6583   5.312   4.631   9.413  0.4090 -0.3870 -0.2367
   56CHL1   C11 6584   5.318   4.533   9.598 -0.0687 -0.2088  0.3059
   56CHL1  H11A 6585   5.350   4.432   9.633 -0.5310 -0.1026  1.0815
   56CHL1  H11B 6586   5.390   4.600   9.648 -0.3780  0.2248  0.1723
   56CHL1    C9 6587   5.173   4.569   9.642 -0.0922  0.1233 -0.8626
   56CHL1    H9 6588   5.150   4.674   9.614  1.6755  1.2629  1.4946
   56CHL1   C10 6589   5.155   4.568   9.799 -0.6453 -0.2663  0.0820
   56CHL1   C19 6590   5.215   4.431   9.852 -0.2882  0.7222 -0.4093
   56CHL1  H19A 6591   5.205   4.426   9.963  2.2244  3.8557  0.1224
   56CHL1  H19B 6592   5.165   4.338   9.819  0.2052 -0.7544  2.5847
   56CHL1  H19C 6593   5.322   4.427   9.821  0.1637  2.0475  0.8579
   56CHL1    C1 6594   5.234   4.690   9.863  0.4774  0.9850 -0.3948
   56CHL1   H1A 6595   5.344   4.681   9.847  0.6680 -1.0164  1.4720
   56CHL1   H1B 6596   5.199   4.779   9.808 -1.4626  0.4618 -0.0788
   56CHL1    C2 6597   5.211   4.709  10.018 -0.2114 -0.3541 -0.1034
   56CHL1   H2A 6598   5.253   4.807  10.050 -0.1250 -0.9799  1.8330
   56CHL1   H2B 6599   5.279   4.639  10.071  1.6278  1.6406  0.3454
   56CHL1   C20 6600   5.324   4.326   9.152 -0.1721  0.2582  0.0060
   56CHL1   H20 6601   5.316   4.221   9.187 -2.0976 -0.1306 -1.4339
   56CHL1   C21 6602   5.474   4.369   9.180  0.8076  0.4812  0.4507
   56CHL1  H21A 6603   5.506   4.326   9.277  1.2161  1.0149  0.5535
   56CHL1  H21B 6604   5.484   4.479   9.182  1.5653  0.4217  2.7715
   56CHL1  H21C 6605   5.538   4.320   9.104  1.3974  0.6388  0.8404
   56CHL1   C22 6606   5.300   4.322   8.997  0.1467  0.0406 -0.2807
   56CHL1  H22A 6607   5.199   4.276   8.987  0.6064 -0.8311 -1.1603
   56CHL1  H22B 6608   5.291   4.422   8.949  0.1174 -0.7951 -2.1211
   56CHL1   C23 6609   5.391   4.223   8.915  0.3047 -0.2139 -0.3282
   56CHL1  H23A 6610   5.497   4.255   8.919 -0.0865  1.0958  0.0601
   56CHL1  H23B 6611   5.380   4.122   8.960  1.3506  0.6167  1.9146
   56CHL1   C24 6612   5.340   4.206   8.772  0.0317  0.2435  0.1840
   56CHL1  H24A 6613   5.234   4.172   8.769  0.1969 -0.2259 -1.9212
   56CHL1  H24B 6614   5.339   4.302   8.715  0.5141 -0.8288 -1.6955
   56CHL1   C25 6615   5.420   4.110   8.679  0.2066  0.2592 -0.0237
   56CHL1   H25 6616   5.364   4.111   8.583  2.9845  1.6893 -1.7655
   56CHL1   C26 6617   5.561   4.148   8.632  0.6591  0.6214 -0.0847
   56CHL1  H26A 6618   5.549   4.242   8.574 -2.1748  0.0710 -0.5537
   56CHL1  H26B 6619   5.623   4.154   8.724 -2.4703 -2.2833  2.4786
   56CHL1  H26C 6620   5.608   4.076   8.561  0.3199 -0.6988  0.9964
   56CHL1   C27 6621   5.421   3.968   8.737 -0.0107 -0.5257  0.5984
   56CHL1  H27A 6622   5.486   3.957   8.826  0.3037 -0.6077  0.3662
   56CHL1  H27B 6623   5.316   3.947   8.767 -0.5838  0.8927 -0.2953
   56CHL1  H27C 6624   5.458   3.887   8.671 -1.5426 -0.9706  0.2474
   57CHL1    C3 6625   3.798   2.274   9.970 -0.9180  0.4286 -0.6429
   57CHL1    H3 6626   3.879   2.348   9.986 -0.0949 -0.9957  2.6442
   57CHL1    O3 6627   3.743   2.236  10.101  0.1951 -0.3473  0.4903
   57CHL1   H3' 6628   3.663   2.189  10.078 -1.1743  1.4773  1.3461
   57CHL1    C4 6629   3.681   2.332   9.882  0.6451  0.3043  0.0232
   57CHL1   H4A 6630   3.600   2.257   9.893  0.3682  0.6337  0.2247
   57CHL1   H4B 6631   3.646   2.420   9.940 -3.1665 -1.3244  0.5011
   57CHL1    C5 6632   3.722   2.342   9.736 -0.0601 -0.1842 -0.1702
   57CHL1    C6 6633   3.702   2.461   9.683 -0.0866 -0.0430  0.1416
   57CHL1    H6 6634   3.644   2.533   9.743 -0.3823 -2.3119  2.7302
   57CHL1    C7 6635   3.736   2.487   9.534 -0.9433 -0.3056 -0.1769
   57CHL1   H7A 6636   3.649   2.530   9.480 -2.0343 -0.5669  1.3214
   57CHL1   H7B 6637   3.822   2.557   9.529 -0.7499 -0.4923  0.4104
   57CHL1    C8 6638   3.779   2.364   9.443  0.6539 -0.1885 -0.0110
   57CHL1    H8 6639   3.683   2.318   9.411  1.5760  0.0648 -3.6208
   57CHL1   C14 6640   3.861   2.411   9.319  0.4139  0.2864 -0.0133
   57CHL1   H14 6641   3.948   2.456   9.373 -0.7180  1.2949  1.0525
   57CHL1   C15 6642   3.802   2.522   9.225  0.2347  0.4559 -0.6413
   57CHL1  H15A 6643   3.698   2.505   9.190  0.1037  1.1253 -0.5990
   57CHL1  H15B 6644   3.808   2.615   9.286  1.2351  0.5865 -0.9211
   57CHL1   C16 6645   3.897   2.512   9.100 -0.0166 -0.4858 -0.5832
   57CHL1  H16A 6646   3.837   2.481   9.012  0.2821 -0.3463 -0.8376
   57CHL1  H16B 6647   3.952   2.607   9.081  0.9678 -0.5539  1.6108
   57CHL1   C17 6648   4.000   2.398   9.130  0.0016  0.1055 -0.4405
   57CHL1   H17 6649   4.085   2.436   9.190 -0.5260  0.6331 -0.0156
   57CHL1   C13 6650   3.926   2.300   9.231 -0.2127 -0.3623  0.4061
   57CHL1   C18 6651   3.811   2.212   9.184 -0.1598  0.2836  0.0032
   57CHL1  H18A 6652   3.742   2.281   9.130  0.9860  2.7168  1.4703
   57CHL1  H18B 6653   3.841   2.130   9.115  0.0042 -0.4840  0.9697
   57CHL1  H18C 6654   3.742   2.170   9.260 -1.0895  1.9941  0.1558
   57CHL1   C12 6655   4.013   2.217   9.332  0.1294  0.6812 -0.1954
   57CHL1  H12A 6656   4.042   2.124   9.280 -2.6183  0.4466 -1.4937
   57CHL1  H12B 6657   4.101   2.278   9.362 -0.2118  0.1606  2.0187
   57CHL1   C11 6658   3.935   2.167   9.456  0.2863  0.2647  0.2727
   57CHL1  H11A 6659   3.852   2.100   9.425  0.5993 -1.0203  2.0333
   57CHL1  H11B 6660   4.006   2.108   9.519 -0.4150  1.9626  2.8238
   57CHL1    C9 6661   3.865   2.277   9.533  0.0004 -0.7460  0.4615
   57CHL1    H9 6662   3.955   2.336   9.561  0.6874 -0.7797 -1.5689
   57CHL1   C10 6663   3.795   2.231   9.665  0.2594  0.5653  1.0762
   57CHL1   C19 6664   3.690   2.127   9.636  0.3387 -0.9105  0.8216
   57CHL1  H19A 6665   3.647   2.092   9.732  1.4453 -0.9818  1.3089
   57CHL1  H19B 6666   3.618   2.174   9.566  0.8223 -1.6069 -0.1626
   57CHL1  H19C 6667   3.723   2.034   9.585 -1.3250 -1.9096  1.5232
   57CHL1    C1 6668   3.907   2.170   9.758 -0.0901 -0.0560  0.0917
   57CHL1   H1A 6669   3.935   2.070   9.718  1.2741  0.3393 -0.0112
   57CHL1   H1B 6670   3.997   2.235   9.751  0.5690 -0.9162  0.3855
   57CHL1    C2 6671   3.859   2.150   9.903  0.8661  0.6529 -1.0564
   57CHL1   H2A 6672   3.947   2.105   9.953  1.2890  0.3512 -2.0521
   57CHL1   H2B 6673   3.782   2.071   9.917  0.6285  1.0365 -0.1417
   57CHL1   C20 6674   4.054   2.335   9.001 -0.6601 -0.4975 -0.1576
   57CHL1   H20 6675   3.984   2.278   8.935  2.1920 -2.2959 -1.8749
   57CHL1   C21 6676   4.165   2.230   9.042 -0.7119 -0.6412  0.5702
   57CHL1  H21A 6677   4.104   2.147   9.085  0.3454 -0.8495  1.7430
   57CHL1  H21B 6678   4.230   2.267   9.124 -0.5274 -1.8757  1.0095
   57CHL1  H21C 6679   4.220   2.196   8.952 -1.6415 -2.5793  0.6779
   57CHL1   C22 6680   4.113   2.447   8.905  0.2182  0.4127 -0.5210
   57CHL1  H22A 6681   4.032   2.512   8.865  0.1256 -0.3339 -1.5696
   57CHL1  H22B 6682   4.186   2.504   8.966  1.1424 -1.4343  0.1664
   57CHL1   C23 6683   4.181   2.402   8.775 -0.0434 -0.5532  0.6172
   57CHL1  H23A 6684   4.271   2.346   8.809 -0.5737 -0.6835  1.8703
   57CHL1  H23B 6685   4.111   2.328   8.731  0.0966 -0.2084 -0.2187
   57CHL1   C24 6686   4.216   2.517   8.677  0.0010 -0.2641  0.8422
   57CHL1  H24A 6687   4.123   2.574   8.654 -0.4313 -1.1928  0.2536
   57CHL1  H24B 6688   4.286   2.582   8.734 -0.3785 -0.8602  2.0065
   57CHL1   C25 6689   4.284   2.462   8.548  0.1917  0.5133  0.1253
   57CHL1   H25 6690   4.363   2.385   8.562  0.0913  0.2945 -0.4918
   57CHL1   C26 6691   4.183   2.397   8.455  0.3483  0.8161  0.7099
   57CHL1  H26A 6692   4.098   2.469   8.448 -1.5189 -1.3190  0.2961
   57CHL1  H26B 6693   4.222   2.387   8.352  0.3000  1.0071  0.6738
   57CHL1  H26C 6694   4.132   2.305   8.491 -0.5718  0.5691 -1.1143
   57CHL1   C27 6695   4.352   2.586   8.489  0.0956  0.8349 -0.0622
   57CHL1  H27A 6696   4.373   2.575   8.380  2.1832  0.0651  0.3618
   57CHL1  H27B 6697   4.281   2.671   8.498  1.5633  2.1022 -0.0566
   57CHL1  H27C 6698   4.445   2.611   8.546  0.9615 -0.1038 -1.0119
   58CHL1    C3 6699   1.406   1.452   9.969 -0.2115 -0.4485  0.2770
   58CHL1    H3 6700   1.479   1.372   9.941  3.1198  2.1569  0.8215
   58CHL1    O3 6701   1.380   1.454  10.104  0.1052 -0.1099 -0.8261
   58CHL1   H3' 6702   1.355   1.362  10.117  0.4105 -0.3085 -1.5922
   58CHL1    C4 6703   1.473   1.582   9.921 -0.3034  0.6221  0.6689
   58CHL1   H4A 6704   1.416   1.674   9.944 -1.7454 -0.7048  2.6956
   58CHL1   H4B 6705   1.567   1.600   9.978  0.3978 -0.1632 -0.1894
   58CHL1    C5 6706   1.490   1.581   9.769  0.6247 -0.3983  0.3489
   58CHL1    C6 6707   1.612   1.594   9.708  1.1714 -0.0547  0.2311
   58CHL1    H6 6708   1.707   1.588   9.762  1.0058 -0.0749  0.5222
   58CHL1    C7 6709   1.622   1.592   9.559 -0.0128 -0.5246  0.4313
   58CHL1   H7A 6710   1.703   1.659   9.523 -1.2919  1.6891  1.4740
   58CHL1   H7B 6711   1.654   1.487   9.539  0.8423 -0.4442  1.3158
   58CHL1    C8 6712   1.497   1.617   9.482  1.3152  0.3127 -0.2132
   58CHL1    H8 6713   1.466   1.722   9.500 -2.4709 -0.1858 -2.7945
   58CHL1   C14 6714   1.526   1.588   9.336  0.0476 -0.2861  1.1054
   58CHL1   H14 6715   1.545   1.479   9.337  0.3704 -0.2789 -0.6367
   58CHL1   C15 6716   1.643   1.656   9.255 -0.1084  0.1078 -0.4857
   58CHL1  H15A 6717   1.650   1.765   9.277  0.0327 -0.3832  2.2992
   58CHL1  H15B 6718   1.745   1.622   9.284 -0.2832 -0.0608 -0.0634
   58CHL1   C16 6719   1.619   1.627   9.108 -1.3669 -0.4550 -0.8156
   58CHL1  H16A 6720   1.627   1.723   9.053 -2.1824 -0.9939 -1.8989
   58CHL1  H16B 6721   1.686   1.549   9.067  1.1147  0.8610  0.4902
   58CHL1   C17 6722   1.469   1.573   9.106 -0.3247  0.7268 -0.3953
   58CHL1   H17 6723   1.480   1.463   9.122  1.5276  1.1112  1.4617
   58CHL1   C13 6724   1.407   1.608   9.246 -0.8317  0.1540  0.6095
   58CHL1   C18 6725   1.374   1.756   9.235 -0.1615  0.3511 -0.1450
   58CHL1  H18A 6726   1.438   1.818   9.169  0.0565  0.8595  0.5214
   58CHL1  H18B 6727   1.270   1.754   9.197  0.7646  0.8821 -2.9621
   58CHL1  H18C 6728   1.371   1.802   9.336 -1.0427  0.8451 -0.3876
   58CHL1   C12 6729   1.284   1.521   9.294  0.9185 -0.0473  0.3778
   58CHL1  H12A 6730   1.188   1.528   9.239  0.7932  1.6523  0.7801
   58CHL1  H12B 6731   1.302   1.411   9.296 -2.6015 -0.8294 -1.9944
   58CHL1   C11 6732   1.252   1.547   9.447  0.2608  0.0540  0.1553
   58CHL1  H11A 6733   1.211   1.650   9.450  1.8857  0.7495 -0.2097
   58CHL1  H11B 6734   1.177   1.482   9.496 -0.3444  0.6647  0.0570
   58CHL1    C9 6735   1.382   1.532   9.534  0.3149 -1.0441  0.1885
   58CHL1    H9 6736   1.409   1.425   9.519 -1.9659 -1.5392 -0.8616
   58CHL1   C10 6737   1.361   1.558   9.688 -0.4124 -0.0959  0.1985
   58CHL1   C19 6738   1.278   1.685   9.710  0.1698  0.5165 -0.3420
   58CHL1  H19A 6739   1.328   1.771   9.660  0.9882 -0.1142 -0.6278
   58CHL1  H19B 6740   1.182   1.665   9.658  0.5033 -3.1849  0.2084
   58CHL1  H19C 6741   1.263   1.716   9.816  2.5261  2.1109 -0.3834
   58CHL1    C1 6742   1.287   1.433   9.753 -0.3013 -0.2649  0.3807
   58CHL1   H1A 6743   1.189   1.416   9.704 -0.2488 -2.0075  0.8166
   58CHL1   H1B 6744   1.348   1.341   9.739 -0.4301  0.0832 -3.5742
   58CHL1    C2 6745   1.273   1.448   9.905 -0.2050  0.0121 -0.3545
   58CHL1   H2A 6746   1.215   1.356   9.931 -3.0194  1.3741 -1.3833
   58CHL1   H2B 6747   1.207   1.537   9.912 -1.6610 -0.8178 -2.3874
   58CHL1   C20 6748   1.374   1.603   8.989 -0.2970  0.6879 -0.4459
   58CHL1   H20 6749   1.274   1.616   9.037  0.6329  3.3389  0.9831
   58CHL1   C21 6750   1.370   1.475   8.900 -0.1043  0.2477 -0.2773
   58CHL1  H21A 6751   1.470   1.464   8.854  0.8798  1.2270  1.5130
   58CHL1  H21B 6752   1.286   1.473   8.827 -1.1780 -0.1454  0.9208
   58CHL1  H21C 6753   1.366   1.380   8.958  1.0289 -0.7909 -1.8380
   58CHL1   C22 6754   1.416   1.728   8.913 -0.1503  0.4970  0.4206
   58CHL1  H22A 6755   1.438   1.821   8.969  2.7799 -0.5332  1.1351
   58CHL1  H22B 6756   1.507   1.700   8.856 -1.0075 -0.9159 -0.3212
   58CHL1   C23 6757   1.310   1.775   8.811  0.1057 -0.3695 -0.5327
   58CHL1  H23A 6758   1.282   1.683   8.755  0.8443 -0.5130 -0.6742
   58CHL1  H23B 6759   1.227   1.820   8.869  0.3327 -1.5082  0.7384
   58CHL1   C24 6760   1.370   1.882   8.723 -0.0728 -0.2041  0.5022
   58CHL1  H24A 6761   1.385   1.976   8.780 -0.3728 -0.0404  0.3139
   58CHL1  H24B 6762   1.474   1.852   8.695  0.3680  1.2479  0.5300
   58CHL1   C25 6763   1.302   1.900   8.589  0.2624 -0.1523 -1.0053
   58CHL1   H25 6764   1.292   1.802   8.538  0.1161 -0.7402  0.1233
   58CHL1   C26 6765   1.165   1.970   8.614 -0.1380 -0.3027 -0.2368
   58CHL1  H26A 6766   1.096   1.889   8.645 -0.3284  0.5725  1.7331
   58CHL1  H26B 6767   1.167   2.036   8.703  0.5951  0.3019 -0.6949
   58CHL1  H26C 6768   1.125   2.018   8.522 -1.3379 -1.0432 -0.1357
   58CHL1   C27 6769   1.399   1.982   8.495 -0.5028  0.4066  0.2135
   58CHL1  H27A 6770   1.501   1.941   8.479 -0.2089  1.5894 -1.1127
   58CHL1  H27B 6771   1.344   1.992   8.399 -1.5507  2.0190  0.9467
   58CHL1  H27C 6772   1.413   2.083   8.538  1.8095  1.0198 -1.7121
   59CHL1    C3 6773   5.898   0.504  10.424  0.3070  0.2607  0.0397
   59CHL1    H3 6774   6.008   0.513  10.431  0.3154  0.4834 -0.3523
   59CHL1    O3 6775   5.840   0.480  10.550  0.0059  0.2338 -0.7474
   59CHL1   H3' 6776   5.746   0.468  10.538 -0.5121  0.3221  2.4016
   59CHL1    C4 6777   5.844   0.633  10.374 -0.0289  0.2258  0.0007
   59CHL1   H4A 6778   5.733   0.627  10.380  0.0405 -3.2579  0.1224
   59CHL1   H4B 6779   5.864   0.713  10.448 -1.6498  0.9337 -0.2688
   59CHL1    C5 6780   5.893   0.667  10.234 -0.0654 -0.6053 -0.0757
   59CHL1    C6 6781   5.938   0.791  10.199  0.1798 -0.2056  0.1057
   59CHL1    H6 6782   5.943   0.878  10.265  3.6034  0.0675 -0.3768
   59CHL1    C7 6783   5.971   0.832  10.059 -0.9020 -0.0224 -0.6468
   59CHL1   H7A 6784   5.935   0.935  10.040 -1.1341 -0.5355 -3.4667
   59CHL1   H7B 6785   6.081   0.842  10.042 -0.5700  2.3126  2.0869
   59CHL1    C8 6786   5.925   0.732   9.954  0.3729  0.2131 -0.1351
   59CHL1    H8 6787   5.815   0.748   9.955  0.4270  0.6953  1.5133
   59CHL1   C14 6788   5.978   0.761   9.814  0.2163 -0.2099 -0.6227
   59CHL1   H14 6789   6.089   0.755   9.814  0.1899 -0.8114 -0.2844
   59CHL1   C15 6790   5.950   0.898   9.747  0.0271  0.7227 -0.7690
   59CHL1  H15A 6791   5.843   0.927   9.750 -0.9589 -2.3073 -2.0317
   59CHL1  H15B 6792   6.018   0.974   9.790  0.1079  1.7916 -2.6882
   59CHL1   C16 6793   5.981   0.868   9.602 -0.2090 -0.9759 -0.3214
   59CHL1  H16A 6794   5.902   0.915   9.540 -0.3931 -2.6558 -1.4155
   59CHL1  H16B 6795   6.078   0.914   9.573 -0.8878  1.9321  1.5735
   59CHL1   C17 6796   5.992   0.714   9.582  0.1807  0.9068  0.0933
   59CHL1   H17 6797   6.100   0.689   9.573 -0.2634 -0.2828 -4.0856
   59CHL1   C13 6798   5.941   0.652   9.713 -0.1045  0.1902  0.3865
   59CHL1   C18 6799   5.791   0.652   9.699  0.3091 -0.4170 -0.8163
   59CHL1  H18A 6800   5.761   0.572   9.628 -1.0034  1.1772 -2.1574
   59CHL1  H18B 6801   5.737   0.622   9.791  1.3915 -0.3666 -0.1534
   59CHL1  H18C 6802   5.747   0.732   9.635 -2.0879 -1.1217 -0.1362
   59CHL1   C12 6803   6.004   0.520   9.756  0.0158 -0.3106 -0.7721
   59CHL1  H12A 6804   5.998   0.439   9.680  0.4644 -0.0597 -1.0811
   59CHL1  H12B 6805   6.113   0.535   9.773 -0.1910 -0.4543  0.8480
   59CHL1   C11 6806   5.955   0.474   9.897 -0.3904 -0.4956  0.5533
   59CHL1  H11A 6807   5.852   0.434   9.881 -0.1746 -2.0553  2.6631
   59CHL1  H11B 6808   6.012   0.387   9.933  0.0207  0.4410  2.2814
   59CHL1    C9 6809   5.943   0.589   9.998 -0.8047 -0.4598 -0.1474
   59CHL1    H9 6810   6.052   0.595  10.017 -1.0198 -1.2259  1.5290
   59CHL1   C10 6811   5.870   0.556  10.134  0.1468 -0.9014  0.6476
   59CHL1   C19 6812   5.724   0.541  10.112  0.0369  0.4568  0.3082
   59CHL1  H19A 6813   5.705   0.455  10.044  2.6617  0.2551 -0.3025
   59CHL1  H19B 6814   5.667   0.528  10.206  1.7494 -1.9093  1.1004
   59CHL1  H19C 6815   5.670   0.626  10.064 -2.3160 -0.0072  1.9602
   59CHL1    C1 6816   5.930   0.423  10.192  0.5105  0.1324  0.5485
   59CHL1   H1A 6817   5.912   0.339  10.122 -0.9127  0.7106  0.1958
   59CHL1   H1B 6818   6.041   0.435  10.192  0.4910  0.3529 -0.1452
   59CHL1    C2 6819   5.865   0.387  10.328  0.6585  0.1569 -0.1030
   59CHL1   H2A 6820   5.902   0.291  10.370 -0.1595  0.2958  0.9619
   59CHL1   H2B 6821   5.755   0.386  10.318  0.7394 -1.2085 -1.1185
   59CHL1   C20 6822   5.934   0.666   9.448 -0.9222 -0.7293  0.1436
   59CHL1   H20 6823   5.826   0.693   9.440  0.0054  3.1901 -1.7315
   59CHL1   C21 6824   5.957   0.517   9.419  0.8436  0.0977 -0.4603
   59CHL1  H21A 6825   6.062   0.486   9.432  0.4946 -0.6061  0.7992
   59CHL1  H21B 6826   5.905   0.488   9.325 -1.3426 -0.1793  0.7570
   59CHL1  H21C 6827   5.902   0.467   9.502 -1.0150  1.4347 -0.8198
   59CHL1   C22 6828   5.997   0.751   9.338 -0.2272  0.2669 -0.5949
   59CHL1  H22A 6829   6.000   0.861   9.353 -1.5953  0.2338  0.0209
   59CHL1  H22B 6830   6.101   0.718   9.320 -1.0471 -1.8971 -1.7609
   59CHL1   C23 6831   5.921   0.738   9.207  0.0061  0.6520 -0.2223
   59CHL1  H23A 6832   5.914   0.634   9.168 -2.2171  0.9840 -0.8416
   59CHL1  H23B 6833   5.819   0.776   9.225 -0.3441  0.2692 -1.3008
   59CHL1   C24 6834   5.972   0.827   9.088 -0.4900  0.2524 -0.2286
   59CHL1  H24A 6835   5.899   0.825   9.005  1.1894 -0.4652 -1.7592
   59CHL1  H24B 6836   5.980   0.930   9.127  1.3308 -1.0348  3.2256
   59CHL1   C25 6837   6.114   0.797   9.033  0.4369  0.3481 -0.2812
   59CHL1   H25 6838   6.191   0.838   9.102 -0.1427 -1.8133  1.7749
   59CHL1   C26 6839   6.142   0.647   9.012  0.4901 -0.7369  0.0520
   59CHL1  H26A 6840   6.150   0.599   9.112 -0.9219  1.1990  1.1807
   59CHL1  H26B 6841   6.049   0.613   8.961 -0.1414  1.5854 -0.5070
   59CHL1  H26C 6842   6.232   0.630   8.950  0.1371  2.3874 -1.5114
   59CHL1   C27 6843   6.127   0.863   8.898  0.2764 -0.2147 -0.4821
   59CHL1  H27A 6844   6.116   0.973   8.908 -1.9785 -0.4826  0.6767
   59CHL1  H27B 6845   6.232   0.841   8.871  1.0671  2.1040  0.4408
   59CHL1  H27C 6846   6.058   0.818   8.823 -0.9498  0.6067  0.1233
   60CHL1    C3 6847   0.279   6.054  10.248  0.9407  0.6224 -0.1611
   60CHL1    H3 6848   0.375   6.000  10.256  1.5163  1.8721  1.9688
   60CHL1    O3 6849   0.235   6.067  10.382  0.2277  0.3477  0.3755
   60CHL1   H3' 6850   0.170   6.137  10.378  0.4434  0.6112  1.1922
   60CHL1    C4 6851   0.295   6.193  10.176  0.1301 -0.1715 -0.7496
   60CHL1   H4A 6852   0.205   6.253  10.200 -2.2148 -2.8826 -2.0638
   60CHL1   H4B 6853   0.376   6.239  10.235 -2.4596 -0.9306  3.8790
   60CHL1    C5 6854   0.329   6.177  10.032 -0.4889  0.5836  0.0489
   60CHL1    C6 6855   0.440   6.233   9.973 -0.4446 -0.4482 -0.2438
   60CHL1    H6 6856   0.487   6.303  10.044  0.4431 -1.4667  0.2020
   60CHL1    C7 6857   0.493   6.217   9.833  0.0002 -0.3360 -0.6588
   60CHL1   H7A 6858   0.526   6.313   9.789  0.6308 -0.3784 -0.2817
   60CHL1   H7B 6859   0.565   6.132   9.830  0.3912 -0.0237 -0.0682
   60CHL1    C8 6860   0.375   6.180   9.743  0.9747  0.0902 -0.1586
   60CHL1    H8 6861   0.309   6.269   9.739  0.0089 -0.5160  1.3327
   60CHL1   C14 6862   0.418   6.143   9.606  0.8030  0.0105  1.1184
   60CHL1   H14 6863   0.494   6.063   9.617  1.5896  0.7731  1.2812
   60CHL1   C15 6864   0.497   6.241   9.518  0.7118 -0.2581  0.8982
   60CHL1  H15A 6865   0.445   6.339   9.507  0.4154 -0.6494 -2.0572
   60CHL1  H15B 6866   0.592   6.273   9.566  1.7997 -2.5337  0.3913
   60CHL1   C16 6867   0.507   6.176   9.384  0.2449  0.2891  0.5827
   60CHL1  H16A 6868   0.494   6.249   9.301 -0.8097 -0.1603  0.3303
   60CHL1  H16B 6869   0.602   6.122   9.370  0.1363 -0.2347  1.7448
   60CHL1   C17 6870   0.390   6.074   9.367  0.2263  0.4432  0.1445
   60CHL1   H17 6871   0.433   5.972   9.364 -0.8447 -0.0208 -0.0213
   60CHL1   C13 6872   0.314   6.093   9.500  0.8185 -0.1398  0.5806
   60CHL1   C18 6873   0.210   6.210   9.485 -0.6526  0.2752  0.1654
   60CHL1  H18A 6874   0.168   6.250   9.579  0.2467  1.8651 -0.0858
   60CHL1  H18B 6875   0.258   6.285   9.418 -0.1046  0.1991  0.4757
   60CHL1  H18C 6876   0.120   6.181   9.425 -0.9271  1.3132  0.0603
   60CHL1   C12 6877   0.251   5.962   9.559  0.6844  0.5586  0.0769
   60CHL1  H12A 6878   0.166   5.918   9.503  1.4336 -0.1117 -0.5747
   60CHL1  H12B 6879   0.335   5.888   9.565 -0.1123 -0.2272  2.3924
   60CHL1   C11 6880   0.202   5.991   9.706 -0.1654  0.3539  0.0058
   60CHL1  H11A 6881   0.108   6.051   9.701  0.1244  0.9617  1.3753
   60CHL1  H11B 6882   0.188   5.891   9.753  1.5730  0.6680  1.2863
   60CHL1    C9 6883   0.300   6.059   9.807  0.6527 -0.7498  0.2754
   60CHL1    H9 6884   0.382   5.987   9.829  0.6980 -0.5661  0.7285
   60CHL1   C10 6885   0.234   6.092   9.947 -1.2654  0.3076  0.1958
   60CHL1   C19 6886   0.099   6.168   9.933  0.2790 -0.4425 -0.0271
   60CHL1  H19A 6887   0.037   6.111   9.860  1.8572 -0.3425 -1.4868
   60CHL1  H19B 6888   0.044   6.175  10.029 -2.3576  2.7817 -1.5579
   60CHL1  H19C 6889   0.118   6.266   9.885  0.4729  0.3172  1.5356
   60CHL1    C1 6890   0.215   5.955  10.022  0.5275 -0.0306 -0.5507
   60CHL1   H1A 6891   0.142   5.885   9.976  1.8881 -1.1658 -1.0931
   60CHL1   H1B 6892   0.308   5.895  10.008  1.2057  1.2160 -1.6792
   60CHL1    C2 6893   0.177   5.968  10.170 -0.9556 -0.1909 -0.4605
   60CHL1   H2A 6894   0.187   5.871  10.223  2.5143  0.5923  0.5295
   60CHL1   H2B 6895   0.079   6.020  10.177  0.2859  2.5432 -2.0636
   60CHL1   C20 6896   0.311   6.082   9.230 -0.1392  0.8832 -0.7435
   60CHL1   H20 6897   0.259   6.180   9.225  1.0689  1.4891 -2.4376
   60CHL1   C21 6898   0.214   5.959   9.235  0.0304 -0.7425 -0.7727
   60CHL1  H21A 6899   0.258   5.858   9.249  2.7882  0.6785  2.3373
   60CHL1  H21B 6900   0.165   5.969   9.136 -1.4296 -1.0815 -0.0973
   60CHL1  H21C 6901   0.130   5.981   9.304  0.3187  0.6491 -0.8329
   60CHL1   C22 6902   0.401   6.081   9.107  0.1880  0.8801  0.1535
   60CHL1  H22A 6903   0.486   6.151   9.123 -0.9394  1.6674  3.5487
   60CHL1  H22B 6904   0.441   5.978   9.093 -1.3591 -0.2389  3.1741
   60CHL1   C23 6905   0.347   6.106   8.965  0.4621  0.1081  0.2298
   60CHL1  H23A 6906   0.257   6.044   8.948 -1.3590  2.7960 -0.5048
   60CHL1  H23B 6907   0.328   6.215   8.960  0.1446  0.1400  1.7801
   60CHL1   C24 6908   0.447   6.084   8.849  0.3760 -0.8715 -0.0517
   60CHL1  H24A 6909   0.505   6.178   8.835 -0.3662 -0.0480  2.0532
   60CHL1  H24B 6910   0.507   5.992   8.860  2.2232  0.2818 -0.1299
   60CHL1   C25 6911   0.374   6.065   8.711 -0.4251  0.2711  0.2774
   60CHL1   H25 6912   0.297   5.985   8.717 -1.4357  1.3284  2.6658
   60CHL1   C26 6913   0.288   6.188   8.676 -0.2584 -0.4245  0.1942
   60CHL1  H26A 6914   0.348   6.280   8.657 -1.0133 -0.2175 -1.3565
   60CHL1  H26B 6915   0.227   6.168   8.585 -0.0412 -2.3376  0.4465
   60CHL1  H26C 6916   0.210   6.199   8.754 -1.4567 -2.8254 -0.5830
   60CHL1   C27 6917   0.468   6.040   8.590 -0.2014 -0.2885 -0.7464
   60CHL1  H27A 6918   0.533   6.129   8.585  0.6352 -0.9354 -1.7809
   60CHL1  H27B 6919   0.543   5.960   8.610 -2.2476 -2.0195  0.5113
   60CHL1  H27C 6920   0.418   6.040   8.491  0.7810 -1.0240 -1.2559
   61CHL1    C3 6921   5.163   6.720  10.219  0.3421  0.3846  0.1497
   61CHL1    H3 6922   5.264   6.760  10.239  0.3414  0.4116  0.1002
   61CHL1    O3 6923   5.101   6.698  10.341 -0.2433 -0.7980  0.0014
   61CHL1   H3' 6924   5.105   6.781  10.390 -0.6474 -0.4615 -0.5284
   61CHL1    C4 6925   5.079   6.821  10.146  0.0263  0.2199 -0.2797
   61CHL1   H4A 6926   4.976   6.780  10.133  0.1965 -0.5448  0.7249
   61CHL1   H4B 6927   5.075   6.908  10.215  0.4044 -0.0545  0.0874
   61CHL1    C5 6928   5.125   6.855  10.000  0.2591  0.2639 -0.6746
   61CHL1    C6 6929   5.144   6.977   9.958 -0.0673 -0.0443  0.2161
   61CHL1    H6 6930   5.128   7.065  10.022  1.1830  1.2828 -1.2192
   61CHL1    C7 6931   5.193   7.006   9.812 -0.0855  0.2855 -0.6148
   61CHL1   H7A 6932   5.138   7.093   9.770  2.1689  2.5932  0.9794
   61CHL1   H7B 6933   5.298   7.039   9.818 -0.3426  1.8698 -3.3242
   61CHL1    C8 6934   5.180   6.891   9.714 -0.5453 -0.0790 -0.7456
   61CHL1    H8 6935   5.075   6.897   9.678 -0.1569  2.7883 -1.6114
   61CHL1   C14 6936   5.276   6.909   9.595 -0.2022 -0.6193  0.5077
   61CHL1   H14 6937   5.382   6.906   9.629 -0.1393 -1.0207  0.2910
   61CHL1   C15 6938   5.269   7.042   9.516 -0.0262  0.1156  0.4219
   61CHL1  H15A 6939   5.160   7.063   9.508 -0.6006 -2.7503 -0.2340
   61CHL1  H15B 6940   5.321   7.122   9.573 -1.2552  1.4909 -0.3011
   61CHL1   C16 6941   5.327   7.012   9.374  0.3945  0.4169  0.8784
   61CHL1  H16A 6942   5.249   7.017   9.296  0.4134  0.9712  0.8905
   61CHL1  H16B 6943   5.408   7.083   9.347 -0.5548  0.8417 -0.9709
   61CHL1   C17 6944   5.371   6.864   9.381 -0.6092  0.1757  0.6979
   61CHL1   H17 6945   5.477   6.858   9.412  0.3401  2.0206 -1.8793
   61CHL1   C13 6946   5.281   6.803   9.492  0.3926 -0.2840  0.3954
   61CHL1   C18 6947   5.136   6.782   9.443 -0.0109  0.0727 -0.1239
   61CHL1  H18A 6948   5.066   6.747   9.522 -1.9547 -0.3827 -1.9437
   61CHL1  H18B 6949   5.090   6.877   9.408  0.3655  0.8039  1.2667
   61CHL1  H18C 6950   5.135   6.703   9.365  0.4441  1.1718 -1.2857
   61CHL1   C12 6951   5.320   6.668   9.554  0.1126 -0.9589 -0.6140
   61CHL1  H12A 6952   5.296   6.584   9.485  0.9489 -1.8242  0.1406
   61CHL1  H12B 6953   5.429   6.672   9.573 -0.2543 -0.4146  1.7306
   61CHL1   C11 6954   5.235   6.636   9.683  0.1110  0.4961  0.1597
   61CHL1  H11A 6955   5.131   6.611   9.655  0.2213  0.6792 -0.4170
   61CHL1  H11B 6956   5.284   6.546   9.726 -3.4496 -1.0134  1.4517
   61CHL1    C9 6957   5.226   6.759   9.782 -0.3697 -0.2310 -0.4920
   61CHL1    H9 6958   5.333   6.767   9.811 -0.2381 -0.7282 -0.8285
   61CHL1   C10 6959   5.143   6.729   9.914 -0.2353  0.0268 -0.5882
   61CHL1   C19 6960   5.011   6.673   9.870  0.4581 -0.2304 -0.2531
   61CHL1  H19A 6961   4.950   6.651   9.960  1.9765 -1.8188  0.4407
   61CHL1  H19B 6962   4.961   6.743   9.798 -0.3546 -1.6881 -1.1500
   61CHL1  H19C 6963   5.022   6.581   9.809 -0.8699 -0.0712 -0.7765
   61CHL1    C1 6964   5.226   6.620   9.994  0.0139 -0.5239  0.0516
   61CHL1   H1A 6965   5.223   6.533   9.925 -0.4963  0.8946 -1.7984
   61CHL1   H1B 6966   5.332   6.654  10.000 -0.2737  0.3462  0.3279
   61CHL1    C2 6967   5.169   6.591  10.138 -1.4210 -0.2365 -0.0623
   61CHL1   H2A 6968   5.230   6.507  10.175 -0.9578 -0.0006 -0.2830
   61CHL1   H2B 6969   5.064   6.555  10.144 -1.0842 -1.3022 -0.3554
   61CHL1   C20 6970   5.373   6.807   9.238 -1.0127  0.6663  0.5787
   61CHL1   H20 6971   5.269   6.799   9.199 -0.5757  0.4738 -0.5773
   61CHL1   C21 6972   5.440   6.670   9.230  0.3283  0.2770  0.2543
   61CHL1  H21A 6973   5.398   6.593   9.298 -1.8469 -0.2268 -1.5372
   61CHL1  H21B 6974   5.547   6.693   9.248  0.3764  0.7574 -0.6164
   61CHL1  H21C 6975   5.435   6.624   9.129 -0.0001 -1.6801  1.1164
   61CHL1   C22 6976   5.443   6.898   9.131  0.1029  0.1195  0.0571
   61CHL1  H22A 6977   5.434   6.851   9.030  2.4680 -2.1149  0.7661
   61CHL1  H22B 6978   5.383   6.991   9.128 -1.8371 -1.1094 -0.7724
   61CHL1   C23 6979   5.587   6.937   9.151  0.5813  0.5896 -0.2419
   61CHL1  H23A 6980   5.594   6.975   9.255 -0.5653  3.1370 -0.9974
   61CHL1  H23B 6981   5.654   6.849   9.144 -1.4391 -0.9197 -2.0290
   61CHL1   C24 6982   5.644   7.036   9.046  0.3867  0.3995 -0.0671
   61CHL1  H24A 6983   5.649   6.981   8.949 -2.2760  1.6532 -1.0289
   61CHL1  H24B 6984   5.571   7.121   9.040  0.3680  0.3483 -0.6326
   61CHL1   C25 6985   5.781   7.089   9.077 -0.0592 -0.1792 -0.3131
   61CHL1   H25 6986   5.769   7.155   9.165 -1.3019  0.3953 -0.8960
   61CHL1   C26 6987   5.882   6.980   9.104  0.2806  0.6209 -0.7411
   61CHL1  H26A 6988   5.980   7.022   9.135  0.4712 -0.1711 -0.2538
   61CHL1  H26B 6989   5.849   6.908   9.181 -0.3760  1.0894 -0.5693
   61CHL1  H26C 6990   5.899   6.925   9.009  0.6715 -0.7012  0.0702
   61CHL1   C27 6991   5.835   7.181   8.967  0.0036 -0.5435  0.8301
   61CHL1  H27A 6992   5.937   7.212   8.997 -0.3879 -0.2408  1.8981
   61CHL1  H27B 6993   5.821   7.129   8.870 -0.4177  0.1597  0.5074
   61CHL1  H27C 6994   5.773   7.274   8.959 -0.1293 -0.7153 -0.2377
   62CHL1    C3 6995   3.728   3.069  10.014 -0.0172 -0.1719  0.3051
   62CHL1    H3 6996   3.627   3.023  10.018  0.4313 -1.8304 -3.2653
   62CHL1    O3 6997   3.795   3.074  10.132 -0.5535 -0.2603 -0.6454
   62CHL1   H3' 6998   3.784   2.984  10.165  1.0138  0.2926  1.5753
   62CHL1    C4 6999   3.831   3.001   9.923  0.4611  0.3591 -0.1357
   62CHL1   H4A 7000   3.935   3.035   9.940  0.2347  0.6379  0.7398
   62CHL1   H4B 7001   3.838   2.896   9.959 -1.4404  0.0088 -0.6828
   62CHL1    C5 7002   3.788   3.009   9.777  0.3667  0.0975  0.4064
   62CHL1    C6 7003   3.758   2.900   9.700  0.4661  0.2172  0.4674
   62CHL1    H6 7004   3.768   2.799   9.743  0.0272  0.1997  0.5332
   62CHL1    C7 7005   3.710   2.896   9.560  0.0090  0.2060  0.7875
   62CHL1   H7A 7006   3.763   2.815   9.505 -1.5288  0.4559 -1.1867
   62CHL1   H7B 7007   3.600   2.881   9.550  0.2426 -0.0931 -2.4311
   62CHL1    C8 7008   3.755   3.032   9.502 -0.4028  0.5274 -0.4867
   62CHL1    H8 7009   3.866   3.032   9.488 -0.4448  0.0149 -0.8716
   62CHL1   C14 7010   3.697   3.040   9.364  1.0283  0.4012 -0.0652
   62CHL1   H14 7011   3.588   3.029   9.385  0.7443 -0.8841 -2.0241
   62CHL1   C15 7012   3.712   2.918   9.267 -0.5691 -0.1947 -0.0857
   62CHL1  H15A 7013   3.818   2.886   9.274 -0.8741 -0.8221  3.2917
   62CHL1  H15B 7014   3.640   2.833   9.276 -1.4464  0.4652 -0.6523
   62CHL1   C16 7015   3.699   2.983   9.128 -0.0103  0.2968  0.3504
   62CHL1  H16A 7016   3.791   2.979   9.066  0.1189  1.6102  0.4218
   62CHL1  H16B 7017   3.621   2.934   9.065  2.5079 -2.7132 -0.6771
   62CHL1   C17 7018   3.650   3.133   9.148  0.1588 -0.1107 -0.2489
   62CHL1   H17 7019   3.542   3.122   9.170  0.0819 -0.5290 -0.8232
   62CHL1   C13 7020   3.722   3.167   9.285  0.8447 -0.5043  0.2404
   62CHL1   C18 7021   3.873   3.187   9.280  0.2430 -0.1663  0.5547
   62CHL1  H18A 7022   3.915   3.103   9.219 -0.3521  1.1972 -1.8785
   62CHL1  H18B 7023   3.896   3.284   9.232 -0.9537  0.7980  1.8642
   62CHL1  H18C 7024   3.916   3.189   9.382  2.2676  0.2499 -0.2491
   62CHL1   C12 7025   3.663   3.290   9.364  0.3086 -0.0465 -0.7713
   62CHL1  H12A 7026   3.680   3.391   9.321  2.0845 -0.1949 -0.5048
   62CHL1  H12B 7027   3.553   3.278   9.374  0.3888 -0.3180 -0.1838
   62CHL1   C11 7028   3.710   3.289   9.508 -0.0547 -0.7114 -0.6732
   62CHL1  H11A 7029   3.812   3.331   9.501 -1.1247  1.9722 -1.5179
   62CHL1  H11B 7030   3.650   3.359   9.571  1.5705 -0.2399  0.4244
   62CHL1    C9 7031   3.705   3.149   9.587 -0.1583  1.0151 -0.0169
   62CHL1    H9 7032   3.597   3.130   9.601  0.3427 -1.1677  1.4909
   62CHL1   C10 7033   3.766   3.156   9.728 -0.6432 -0.0342 -0.1011
   62CHL1   C19 7034   3.904   3.233   9.720  0.5657  0.6223 -0.1333
   62CHL1  H19A 7035   3.961   3.223   9.815 -2.1699 -1.2576  1.4589
   62CHL1  H19B 7036   3.963   3.205   9.630 -2.5590 -3.1254 -1.2506
   62CHL1  H19C 7037   3.882   3.341   9.706 -3.1835  0.3041  2.0733
   62CHL1    C1 7038   3.671   3.223   9.822 -0.2073 -0.0399 -0.0682
   62CHL1   H1A 7039   3.667   3.331   9.799 -0.1228  0.2488  1.1943
   62CHL1   H1B 7040   3.571   3.175   9.813  0.3341 -1.3067  0.3880
   62CHL1    C2 7041   3.710   3.219   9.973 -0.4620  0.4416  0.7658
   62CHL1   H2A 7042   3.634   3.280  10.027 -1.8876 -0.7419  0.1336
   62CHL1   H2B 7043   3.808   3.271   9.989  0.1420 -0.2074 -0.6432
   62CHL1   C20 7044   3.659   3.228   9.032  0.2190 -0.0909  0.0493
   62CHL1   H20 7045   3.765   3.262   9.042 -0.1192  0.7459  0.7940
   62CHL1   C21 7046   3.571   3.355   9.048  0.7092 -0.1180  0.1402
   62CHL1  H21A 7047   3.545   3.389   8.946  1.7399  2.6944  0.7347
   62CHL1  H21B 7048   3.619   3.435   9.108 -0.6644 -0.4656  1.7814
   62CHL1  H21C 7049   3.479   3.337   9.108  0.6935  2.6417  1.0952
   62CHL1   C22 7050   3.643   3.161   8.896 -0.4173 -0.4983  0.5297
   62CHL1  H22A 7051   3.653   3.246   8.825 -0.4853  2.1771  3.5085
   62CHL1  H22B 7052   3.729   3.095   8.870 -0.3793 -0.0724 -0.4761
   62CHL1   C23 7053   3.507   3.096   8.864  0.9313 -0.2344  0.4596
   62CHL1  H23A 7054   3.477   3.007   8.923 -1.3713  0.1049 -0.1123
   62CHL1  H23B 7055   3.440   3.174   8.906 -0.4282 -1.0677 -0.1187
   62CHL1   C24 7056   3.494   3.081   8.715 -0.7284 -0.2565 -0.1301
   62CHL1  H24A 7057   3.524   3.176   8.666 -1.8674  0.4497  0.4982
   62CHL1  H24B 7058   3.571   3.009   8.682 -1.4799 -2.0357  1.7543
   62CHL1   C25 7059   3.354   3.036   8.658 -0.9498  0.5019  0.5335
   62CHL1   H25 7060   3.336   2.937   8.705 -0.6530  1.0136  1.7442
   62CHL1   C26 7061   3.232   3.127   8.675 -0.5548  0.2523 -0.1470
   62CHL1  H26A 7062   3.245   3.236   8.657 -1.3873  0.1513 -1.4392
   62CHL1  H26B 7063   3.143   3.089   8.622 -1.7170 -0.4504  2.1518
   62CHL1  H26C 7064   3.215   3.126   8.785 -0.9481  1.5597 -0.1709
   62CHL1   C27 7065   3.369   3.006   8.504 -0.1735 -0.1439  0.2622
   62CHL1  H27A 7066   3.453   2.935   8.489 -0.7156 -0.5346 -1.0292
   62CHL1  H27B 7067   3.273   2.959   8.474 -0.1604  0.1456 -0.2316
   62CHL1  H27C 7068   3.393   3.094   8.440  2.4238 -0.1700  1.0915
   63CHL1    C3 7069   0.401   3.490  10.216 -0.4081  0.2955 -0.0553
   63CHL1    H3 7070   0.303   3.516  10.171 -0.1253  1.0404 -0.2553
   63CHL1    O3 7071   0.411   3.465  10.362  0.1836  0.0008 -0.4888
   63CHL1   H3' 7072   0.326   3.437  10.396 -0.2180  0.4639 -1.0924
   63CHL1    C4 7073   0.441   3.357  10.147 -0.2974  0.2270 -0.3334
   63CHL1   H4A 7074   0.538   3.323  10.191  0.4253  0.1967 -1.8738
   63CHL1   H4B 7075   0.377   3.268  10.163  0.3074 -0.1460  0.0650
   63CHL1    C5 7076   0.468   3.378  10.002 -0.7411  0.2976 -0.1000
   63CHL1    C6 7077   0.405   3.289   9.924 -0.7535  0.2973  0.7958
   63CHL1    H6 7078   0.329   3.217   9.959 -0.7967 -0.9014 -1.5731
   63CHL1    C7 7079   0.421   3.287   9.776 -0.1533 -0.2021 -0.6303
   63CHL1   H7A 7080   0.442   3.182   9.747  0.8660 -0.9765  2.5273
   63CHL1   H7B 7081   0.332   3.333   9.727 -0.3211 -1.3458 -1.4357
   63CHL1    C8 7082   0.546   3.367   9.733  0.0185  0.8792  0.1371
   63CHL1    H8 7083   0.638   3.318   9.772 -1.1379  0.3479  2.4184
   63CHL1   C14 7084   0.548   3.383   9.581  0.3899 -0.0041  0.5511
   63CHL1   H14 7085   0.448   3.415   9.546  1.9595  0.4342 -4.2644
   63CHL1   C15 7086   0.562   3.263   9.488 -0.3035  0.1805  0.1871
   63CHL1  H15A 7087   0.638   3.191   9.525  4.1062  4.2328  0.0233
   63CHL1  H15B 7088   0.464   3.211   9.490 -0.5178  0.5661  2.1408
   63CHL1   C16 7089   0.595   3.317   9.351  0.0981 -0.5596  0.2498
   63CHL1  H16A 7090   0.677   3.270   9.293 -2.5439 -1.5873 -2.9678
   63CHL1  H16B 7091   0.506   3.314   9.285 -0.8938 -4.0019  1.5064
   63CHL1   C17 7092   0.632   3.469   9.371 -0.0561  0.0658 -0.2129
   63CHL1   H17 7093   0.535   3.521   9.356 -1.4783 -1.7767  1.9678
   63CHL1   C13 7094   0.657   3.473   9.522 -0.1118 -0.0252  0.2636
   63CHL1   C18 7095   0.794   3.404   9.546  0.2034  0.1883 -0.4515
   63CHL1  H18A 7096   0.818   3.319   9.479  3.4334  0.4978  0.1264
   63CHL1  H18B 7097   0.866   3.485   9.522  0.7347 -0.0405  0.3259
   63CHL1  H18C 7098   0.811   3.386   9.654 -1.8908  0.8418  0.0368
   63CHL1   C12 7099   0.659   3.608   9.592  0.1631 -0.1756  0.5821
   63CHL1  H12A 7100   0.760   3.650   9.574 -0.3051  0.9680  0.5591
   63CHL1  H12B 7101   0.591   3.682   9.546  1.1218  0.1648 -0.3324
   63CHL1   C11 7102   0.652   3.602   9.748 -0.3459  0.7838 -0.0753
   63CHL1  H11A 7103   0.756   3.566   9.762 -0.5995 -0.3624 -0.9297
   63CHL1  H11B 7104   0.644   3.705   9.789  0.8011  0.8851 -0.0664
   63CHL1    C9 7105   0.549   3.503   9.803  1.2922 -0.3588 -0.2051
   63CHL1    H9 7106   0.454   3.556   9.782  2.4073  1.9463  0.2411
   63CHL1   C10 7107   0.558   3.492   9.961  0.0963  0.3829  0.8810
   63CHL1   C19 7108   0.705   3.466  10.007 -1.0572  0.0193  0.0574
   63CHL1  H19A 7109   0.713   3.446  10.116  0.3511  0.4120  0.0407
   63CHL1  H19B 7110   0.746   3.375   9.958  0.8498  0.6783  0.3547
   63CHL1  H19C 7111   0.777   3.546   9.984 -0.3390 -0.0742  1.8636
   63CHL1    C1 7112   0.498   3.621  10.022 -0.1457  0.2656  0.0952
   63CHL1   H1A 7113   0.559   3.712   9.998 -1.0856  1.3229  1.5305
   63CHL1   H1B 7114   0.399   3.640   9.977  0.3205 -0.4750 -1.2942
   63CHL1    C2 7115   0.484   3.607  10.172 -0.3835 -0.0460 -0.6255
   63CHL1   H2A 7116   0.436   3.700  10.211  1.0179  0.7273 -0.6851
   63CHL1   H2B 7117   0.588   3.605  10.210  1.3790  2.2055 -4.7395
   63CHL1   C20 7118   0.733   3.522   9.270  0.6202  0.1404 -0.3024
   63CHL1   H20 7119   0.823   3.456   9.278  0.7579  0.1537 -1.5263
   63CHL1   C21 7120   0.768   3.665   9.297 -0.1394 -0.2929  0.7343
   63CHL1  H21A 7121   0.816   3.713   9.209 -2.9039  1.1779 -0.0952
   63CHL1  H21B 7122   0.835   3.686   9.383  0.5711  3.3057 -0.5205
   63CHL1  H21C 7123   0.670   3.715   9.309  1.1146  2.3115  0.6626
   63CHL1   C22 7124   0.674   3.506   9.125  0.3184  0.1552  0.0576
   63CHL1  H22A 7125   0.636   3.402   9.122 -1.0138  0.5524  1.6250
   63CHL1  H22B 7126   0.584   3.570   9.115  0.6364  0.4902 -0.6952
   63CHL1   C23 7127   0.775   3.528   9.015 -0.7860  0.1850 -0.0901
   63CHL1  H23A 7128   0.802   3.635   9.001 -0.7105  0.0891 -0.7101
   63CHL1  H23B 7129   0.868   3.477   9.046 -0.3221  0.6931 -0.6135
   63CHL1   C24 7130   0.730   3.480   8.873 -0.2905  1.1019 -0.3481
   63CHL1  H24A 7131   0.666   3.390   8.880  2.3839 -1.0988 -2.0902
   63CHL1  H24B 7132   0.659   3.551   8.823 -2.0281  0.4487  1.0656
   63CHL1   C25 7133   0.847   3.450   8.781  0.1668 -0.2424 -0.1116
   63CHL1   H25 7134   0.922   3.532   8.787  0.3113 -0.4017  0.3347
   63CHL1   C26 7135   0.919   3.325   8.815 -0.1052  0.3934  0.0245
   63CHL1  H26A 7136   0.945   3.323   8.923 -0.7734  0.2421  0.1885
   63CHL1  H26B 7137   0.862   3.237   8.779  1.5902 -0.5878 -0.3739
   63CHL1  H26C 7138   1.011   3.335   8.753 -1.0422  0.8340 -1.3408
   63CHL1   C27 7139   0.807   3.462   8.631  0.2496  0.3274 -0.6147
   63CHL1  H27A 7140   0.749   3.372   8.600  1.8082 -1.9970  2.6208
   63CHL1  H27B 7141   0.746   3.553   8.613  1.6107  1.4898  0.3594
   63CHL1  H27C 7142   0.905   3.470   8.581  0.9191  2.0166  0.8464
   64CHL1    C3 7143   5.393   3.152  10.223  0.7955  0.1401  0.1030
   64CHL1    H3 7144   5.442   3.248  10.196  1.1643  0.2632  1.1784
   64CHL1    O3 7145   5.352   3.139  10.355 -0.0869 -0.2031 -0.1907
   64CHL1   H3' 7146   5.327   3.046  10.357 -0.7985 -0.0306 -0.5817
   64CHL1    C4 7147   5.261   3.147  10.145 -0.3629 -0.0271  0.1560
   64CHL1   H4A 7148   5.205   3.060  10.186 -0.7095  0.0461 -0.1622
   64CHL1   H4B 7149   5.193   3.230  10.174 -0.2288  0.2228 -0.2421
   64CHL1    C5 7150   5.275   3.138   9.997  0.3973 -0.3063 -0.0387
   64CHL1    C6 7151   5.200   3.209   9.917 -0.6564 -0.3575  0.1341
   64CHL1    H6 7152   5.132   3.285   9.959 -0.2937  0.3497 -0.5283
   64CHL1    C7 7153   5.218   3.218   9.769  0.1067 -0.3823 -0.0560
   64CHL1   H7A 7154   5.124   3.234   9.713  0.8175  0.0852 -1.1454
   64CHL1   H7B 7155   5.287   3.303   9.751  0.1942 -0.4856 -0.1965
   64CHL1    C8 7156   5.283   3.085   9.715  0.0954 -0.7560 -0.0139
   64CHL1    H8 7157   5.208   3.006   9.735  0.9552 -1.3499  0.9562
   64CHL1   C14 7158   5.311   3.106   9.566  0.5669 -0.0611 -0.2196
   64CHL1   H14 7159   5.386   3.186   9.549  0.1716 -0.1783 -3.0502
   64CHL1   C15 7160   5.192   3.152   9.468 -0.0028 -0.2585 -0.1975
   64CHL1  H15A 7161   5.095   3.117   9.510 -0.0057  0.5098  0.4528
   64CHL1  H15B 7162   5.193   3.261   9.487  1.6797 -0.2305 -0.3630
   64CHL1   C16 7163   5.236   3.095   9.333  0.0256 -0.3709  0.2968
   64CHL1  H16A 7164   5.154   3.027   9.300 -0.3287  0.1922 -0.0007
   64CHL1  H16B 7165   5.246   3.175   9.256 -0.5099 -0.6986 -0.1279
   64CHL1   C17 7166   5.372   3.029   9.352 -0.2350  0.1526  0.6032
   64CHL1   H17 7167   5.441   3.115   9.342 -1.8320  1.1804 -3.3996
   64CHL1   C13 7168   5.370   2.982   9.507 -0.7975  0.4856  0.0147
   64CHL1   C18 7169   5.276   2.855   9.519 -0.9030 -0.6888  0.5641
   64CHL1  H18A 7170   5.261   2.832   9.627 -0.5593  2.6561  1.4216
   64CHL1  H18B 7171   5.177   2.864   9.471 -0.0382  0.3956 -1.0829
   64CHL1  H18C 7172   5.326   2.766   9.475 -0.4258 -1.1777  2.0096
   64CHL1   C12 7173   5.504   2.954   9.575  0.3183 -0.5053 -0.1525
   64CHL1  H12A 7174   5.555   2.867   9.530 -0.8596 -0.6866 -1.1817
   64CHL1  H12B 7175   5.545   3.055   9.554 -3.5118  1.7732  1.9976
   64CHL1   C11 7176   5.485   2.926   9.727 -0.6903  0.1848 -0.1421
   64CHL1  H11A 7177   5.444   2.823   9.739 -0.3863 -0.3149 -2.8470
   64CHL1  H11B 7178   5.585   2.915   9.775 -0.6412 -0.1976 -0.3289
   64CHL1    C9 7179   5.412   3.050   9.789 -0.5362  0.3212  0.0360
   64CHL1    H9 7180   5.485   3.130   9.765  0.4215 -1.0776 -1.9492
   64CHL1   C10 7181   5.388   3.040   9.942 -0.4131  0.1234  0.0454
   64CHL1   C19 7182   5.327   2.900   9.965  0.2954  0.6436  0.0609
   64CHL1  H19A 7183   5.400   2.817   9.962  0.9797  1.2666 -2.0333
   64CHL1  H19B 7184   5.273   2.890  10.062 -0.2571 -0.4612 -0.3348
   64CHL1  H19C 7185   5.249   2.872   9.891 -1.4866 -2.6787  2.8801
   64CHL1    C1 7186   5.507   3.046  10.032 -1.1350  0.0571 -0.4743
   64CHL1   H1A 7187   5.567   2.956  10.005 -2.8403 -2.0349  2.1430
   64CHL1   H1B 7188   5.567   3.138  10.015 -2.0299  0.4427 -1.7173
   64CHL1    C2 7189   5.478   3.035  10.184 -0.1999  0.0141 -0.1053
   64CHL1   H2A 7190   5.570   3.027  10.247 -0.6267  0.5559  0.6029
   64CHL1   H2B 7191   5.420   2.944  10.209  0.0956 -0.9310 -2.5830
   64CHL1   C20 7192   5.404   2.920   9.252 -0.5806 -0.3694  0.3951
   64CHL1   H20 7193   5.352   2.826   9.279  2.4731 -2.4828 -0.5621
   64CHL1   C21 7194   5.554   2.910   9.250 -0.0425  0.2775  0.5491
   64CHL1  H21A 7195   5.589   3.009   9.213  0.0377  0.4558  1.0889
   64CHL1  H21B 7196   5.596   2.827   9.190 -2.6803 -1.2146  0.6204
   64CHL1  H21C 7197   5.605   2.899   9.348  0.0429  1.0736  0.5981
   64CHL1   C22 7198   5.349   2.954   9.106  0.1758 -0.2407  0.0456
   64CHL1  H22A 7199   5.238   2.949   9.099  0.2372  0.2941 -1.4862
   64CHL1  H22B 7200   5.364   3.061   9.080  0.9684 -0.6298 -1.1482
   64CHL1   C23 7201   5.419   2.870   8.999 -0.3499 -0.9118  0.3982
   64CHL1  H23A 7202   5.529   2.887   8.993 -0.4977 -0.3972 -1.7606
   64CHL1  H23B 7203   5.411   2.763   9.028  0.2224 -0.9238  0.5149
   64CHL1   C24 7204   5.353   2.888   8.869 -0.7158 -0.9974  1.4145
   64CHL1  H24A 7205   5.246   2.859   8.882 -0.8687 -0.3811  1.5553
   64CHL1  H24B 7206   5.359   2.997   8.850  0.5577 -1.2407  0.2620
   64CHL1   C25 7207   5.431   2.814   8.748  0.9303 -0.7682  0.0004
   64CHL1   H25 7208   5.423   2.706   8.771 -1.1446 -1.0809 -1.8150
   64CHL1   C26 7209   5.356   2.835   8.617  0.0431  0.0080  0.0594
   64CHL1  H26A 7210   5.258   2.782   8.617 -0.4129  0.8136  0.7898
   64CHL1  H26B 7211   5.333   2.940   8.590 -2.4704 -0.0760  1.5137
   64CHL1  H26C 7212   5.411   2.778   8.540  1.4629 -1.0236  1.7678
   64CHL1   C27 7213   5.575   2.872   8.731  0.1896  0.3014 -0.1595
   64CHL1  H27A 7214   5.647   2.833   8.806  0.9474 -0.1446 -1.0875
   64CHL1  H27B 7215   5.608   2.834   8.631 -1.6160 -1.0143 -0.3062
   64CHL1  H27C 7216   5.576   2.983   8.727  1.3290  0.3367  0.7297
   65CHL1    C3 7217   0.788   6.032  10.064  0.1722 -0.5135  0.1484
   65CHL1    H3 7218   0.736   6.126  10.034 -1.6873 -1.6722 -0.4893
   65CHL1    O3 7219   0.750   6.004  10.203 -0.0360  0.2200  0.1541
   65CHL1   H3' 7220   0.818   5.939  10.223  1.3146  0.9879 -1.7311
   65CHL1    C4 7221   0.728   5.907   9.986  0.3255 -0.5197 -0.2123
   65CHL1   H4A 7222   0.766   5.811  10.028 -0.9108 -0.2586  1.5789
   65CHL1   H4B 7223   0.616   5.908   9.990  0.3632  0.2545  1.4061
   65CHL1    C5 7224   0.776   5.896   9.842  1.0724  0.7349 -0.4171
   65CHL1    C6 7225   0.693   5.889   9.738 -0.3875 -0.2907  0.5565
   65CHL1    H6 7226   0.584   5.881   9.752 -0.0825 -1.4040  2.8528
   65CHL1    C7 7227   0.738   5.881   9.590  0.2357 -0.7836  0.0484
   65CHL1   H7A 7228   0.671   5.813   9.532  1.0700 -0.8208 -0.8985
   65CHL1   H7B 7229   0.734   5.983   9.547 -0.5592  0.1617  2.2294
   65CHL1    C8 7230   0.881   5.835   9.569  0.2051 -0.4155 -0.4260
   65CHL1    H8 7231   0.889   5.724   9.577  0.5158 -0.3010  1.1108
   65CHL1   C14 7232   0.924   5.866   9.423  0.1477  0.1671  0.4063
   65CHL1   H14 7233   0.917   5.976   9.411 -2.7351  0.3315  2.5732
   65CHL1   C15 7234   0.842   5.803   9.302 -0.3449  0.3948 -0.6432
   65CHL1  H15A 7235   0.822   5.695   9.316 -0.6486  0.3252 -1.5144
   65CHL1  H15B 7236   0.745   5.850   9.274 -0.4924  0.9735  0.7878
   65CHL1   C16 7237   0.931   5.825   9.184 -0.5588 -0.2431 -0.0079
   65CHL1  H16A 7238   0.930   5.739   9.113  0.3302 -1.1080  1.0010
   65CHL1  H16B 7239   0.905   5.919   9.130  1.6576  0.8155  0.6807
   65CHL1   C17 7240   1.078   5.848   9.237  0.3711  0.6720 -0.8494
   65CHL1   H17 7241   1.095   5.957   9.228 -3.2912  1.2341 -2.5439
   65CHL1   C13 7242   1.071   5.829   9.392 -0.1182  0.1254  0.1026
   65CHL1   C18 7243   1.097   5.671   9.422  0.0666 -0.2909 -0.0945
   65CHL1  H18A 7244   1.026   5.611   9.361 -3.1813  3.0540  0.0559
   65CHL1  H18B 7245   1.204   5.645   9.408  0.6032 -0.4023  3.2108
   65CHL1  H18C 7246   1.065   5.649   9.526  2.9352 -1.5489  0.6443
   65CHL1   C12 7247   1.164   5.913   9.481  0.1863  0.2237  0.8142
   65CHL1  H12A 7248   1.263   5.865   9.463 -0.2318 -0.4494  0.2652
   65CHL1  H12B 7249   1.164   6.018   9.443  2.8962 -0.6083 -1.9331
   65CHL1   C11 7250   1.124   5.893   9.627  0.3184  0.4233 -0.7725
   65CHL1  H11A 7251   1.154   5.794   9.668  2.4279  1.8608  1.4407
   65CHL1  H11B 7252   1.189   5.965   9.682 -1.6851  2.9460 -1.5300
   65CHL1    C9 7253   0.971   5.916   9.667 -0.6903  0.7924  0.7862
   65CHL1    H9 7254   0.950   6.023   9.651  0.5845  1.0566  0.7509
   65CHL1   C10 7255   0.933   5.904   9.817  0.0315  0.7752  0.4282
   65CHL1   C19 7256   0.997   5.773   9.865 -0.0530 -0.6764 -0.9066
   65CHL1  H19A 7257   0.976   5.688   9.796  1.3265 -2.5479  0.8679
   65CHL1  H19B 7258   1.107   5.775   9.880 -0.1987 -1.2042  0.3460
   65CHL1  H19C 7259   0.947   5.742   9.959 -1.6453  1.9229 -0.7736
   65CHL1    C1 7260   0.984   6.024   9.894 -0.0293  0.7830 -0.1831
   65CHL1   H1A 7261   1.095   6.014   9.891  0.0105  0.5110  1.5683
   65CHL1   H1B 7262   0.960   6.123   9.850 -0.7149  0.8756  0.4016
   65CHL1    C2 7263   0.946   6.031  10.042  0.0204  0.4542 -0.1786
   65CHL1   H2A 7264   0.972   6.133  10.078  0.4743  0.2255  0.1473
   65CHL1   H2B 7265   0.986   5.950  10.106  0.6764  2.1577  1.6969
   65CHL1   C20 7266   1.189   5.771   9.155  0.1516 -0.3576 -0.1090
   65CHL1   H20 7267   1.167   5.663   9.167 -1.4086 -0.0031  0.4144
   65CHL1   C21 7268   1.325   5.812   9.208  0.1391 -0.0101 -0.8314
   65CHL1  H21A 7269   1.347   5.764   9.306 -0.7798  2.8017  0.8598
   65CHL1  H21B 7270   1.332   5.922   9.215  1.0310 -0.1459  0.8405
   65CHL1  H21C 7271   1.394   5.784   9.126  0.1194  0.2540 -0.9390
   65CHL1   C22 7272   1.183   5.793   8.999  0.2184  0.2591  1.0631
   65CHL1  H22A 7273   1.277   5.751   8.956 -0.4248 -0.8077  0.6634
   65CHL1  H22B 7274   1.093   5.735   8.969  0.2822  1.5053 -1.8968
   65CHL1   C23 7275   1.164   5.935   8.950 -0.0486  0.9297  0.0721
   65CHL1  H23A 7276   1.075   5.982   8.997 -0.6397  0.9014 -0.9916
   65CHL1  H23B 7277   1.246   6.004   8.979  0.9984 -0.7572  1.3578
   65CHL1   C24 7278   1.159   5.953   8.799 -0.3588 -0.6021  0.9900
   65CHL1  H24A 7279   1.163   6.062   8.777  0.2578 -0.5565  1.3206
   65CHL1  H24B 7280   1.251   5.915   8.751 -1.2173 -0.4948 -0.8383
   65CHL1   C25 7281   1.042   5.892   8.731 -0.9347  0.0343  0.3944
   65CHL1   H25 7282   1.042   5.784   8.753  0.2539 -0.0411  0.1069
   65CHL1   C26 7283   0.906   5.942   8.784  0.3693  0.2147  0.5912
   65CHL1  H26A 7284   0.893   6.051   8.763 -1.5201  0.0741  0.8711
   65CHL1  H26B 7285   0.818   5.897   8.733 -0.1641 -0.0121  1.6681
   65CHL1  H26C 7286   0.894   5.913   8.891 -0.8561 -2.2286 -0.1406
   65CHL1   C27 7287   1.057   5.905   8.581 -0.1343  0.1921  0.0328
   65CHL1  H27A 7288   1.083   6.008   8.550  3.5096 -0.7680 -0.4904
   65CHL1  H27B 7289   1.145   5.852   8.539  1.2481  2.4480 -0.1013
   65CHL1  H27C 7290   0.966   5.863   8.533 -0.0871  1.0348 -0.8328
   66CHL1    C3 7291   0.501   1.183  10.425  0.0524  0.7211  0.4688
   66CHL1    H3 7292   0.604   1.172  10.384 -0.7341  1.4882 -1.8954
   66CHL1    O3 7293   0.509   1.204  10.563 -0.0819 -0.0929 -0.8396
   66CHL1   H3' 7294   0.564   1.282  10.571 -0.3948 -0.0342  2.0920
   66CHL1    C4 7295   0.426   1.296  10.366 -0.6199 -0.4606  0.0576
   66CHL1   H4A 7296   0.328   1.316  10.415 -0.1735  0.8594  0.4660
   66CHL1   H4B 7297   0.479   1.391  10.391 -0.9807  0.0424 -1.0009
   66CHL1    C5 7298   0.430   1.284  10.215 -0.3867  1.1434 -0.2032
   66CHL1    C6 7299   0.476   1.380  10.131 -0.2234 -0.5350  0.8464
   66CHL1    H6 7300   0.515   1.470  10.181  0.1430 -1.0124  1.4103
   66CHL1    C7 7301   0.473   1.371   9.987 -0.3991  0.0990 -0.9074
   66CHL1   H7A 7302   0.430   1.468   9.955 -2.0378  0.1433  1.2365
   66CHL1   H7B 7303   0.579   1.375   9.953  0.0378  0.2909  0.4261
   66CHL1    C8 7304   0.394   1.250   9.929 -0.3056 -0.9587 -0.9729
   66CHL1    H8 7305   0.286   1.275   9.921 -0.0919  0.5174  0.2677
   66CHL1   C14 7306   0.452   1.208   9.795  0.1008  0.4448  0.5894
   66CHL1   H14 7307   0.545   1.150   9.816  0.1447  0.9686  1.9801
   66CHL1   C15 7308   0.483   1.323   9.694  0.1479 -0.6558 -0.3944
   66CHL1  H15A 7309   0.395   1.391   9.694  0.4853 -0.2125 -0.3375
   66CHL1  H15B 7310   0.569   1.390   9.717 -1.7035  1.6646  0.1814
   66CHL1   C16 7311   0.492   1.247   9.555 -1.1337 -0.0024  0.1426
   66CHL1  H16A 7312   0.430   1.295   9.476 -0.3910 -1.8835 -1.6550
   66CHL1  H16B 7313   0.600   1.244   9.529 -0.9125 -2.2307  1.0765
   66CHL1   C17 7314   0.434   1.105   9.580 -0.1263 -0.0389 -0.2931
   66CHL1   H17 7315   0.525   1.042   9.591  0.0152  0.1182 -0.5754
   66CHL1   C13 7316   0.365   1.106   9.718  0.2231 -0.5104 -0.7253
   66CHL1   C18 7317   0.223   1.166   9.687  0.3010  0.3868 -0.1642
   66CHL1  H18A 7318   0.155   1.086   9.651  1.5521 -2.1139  2.5259
   66CHL1  H18B 7319   0.167   1.206   9.773 -1.3462 -2.1601  0.0422
   66CHL1  H18C 7320   0.234   1.251   9.617  0.9839  0.6828  0.2896
   66CHL1   C12 7321   0.358   0.976   9.800  0.1069 -0.2903 -0.7418
   66CHL1  H12A 7322   0.277   0.905   9.770  0.4631 -0.4095 -1.4338
   66CHL1  H12B 7323   0.452   0.918   9.798 -1.0666 -2.2811 -1.2275
   66CHL1   C11 7324   0.320   1.014   9.946  0.5966 -0.4975  0.0439
   66CHL1  H11A 7325   0.212   1.037   9.955  1.2074  2.0276  2.5569
   66CHL1  H11B 7326   0.330   0.925  10.011  0.2963  0.7718  1.9225
   66CHL1    C9 7327   0.406   1.126  10.012 -0.5341 -0.5878  0.0248
   66CHL1    H9 7328   0.509   1.085  10.014  0.1559  1.0859  0.7493
   66CHL1   C10 7329   0.371   1.147  10.167 -0.0777 -0.2462 -0.2471
   66CHL1   C19 7330   0.222   1.156  10.189  0.1663  0.2080 -0.0167
   66CHL1  H19A 7331   0.163   1.071  10.149 -2.1720  0.7598  2.0597
   66CHL1  H19B 7332   0.195   1.163  10.296 -1.1829  0.6907 -0.3651
   66CHL1  H19C 7333   0.171   1.242  10.140 -1.4145 -0.5517  0.2350
   66CHL1    C1 7334   0.426   1.029  10.247  0.2591  0.1942 -0.3864
   66CHL1   H1A 7335   0.367   0.937  10.229  2.5023 -1.4417  0.1789
   66CHL1   H1B 7336   0.533   1.009  10.224 -0.8174 -5.5195 -2.0041
   66CHL1    C2 7337   0.426   1.056  10.396  0.3296  0.3337 -0.2013
   66CHL1   H2A 7338   0.472   0.971  10.450  0.7976 -0.8019 -2.2697
   66CHL1   H2B 7339   0.326   1.071  10.442  0.4442  0.5982 -0.0390
   66CHL1   C20 7340   0.355   1.040   9.461 -0.6683  0.1918  0.0560
   66CHL1   H20 7341   0.253   1.084   9.453 -1.4177 -0.5783  3.7335
   66CHL1   C21 7342   0.339   0.892   9.498  0.3446 -0.1497 -0.2241
   66CHL1  H21A 7343   0.322   0.826   9.410  0.0029 -0.2436 -0.0878
   66CHL1  H21B 7344   0.250   0.876   9.563  0.3570 -0.0931 -0.1945
   66CHL1  H21C 7345   0.430   0.854   9.550  1.3842 -0.0618 -1.9016
   66CHL1   C22 7346   0.427   1.055   9.323 -0.5983 -0.7153  0.8116
   66CHL1  H22A 7347   0.428   1.164   9.303  1.7025 -0.5184  1.7133
   66CHL1  H22B 7348   0.530   1.014   9.320 -0.3276  0.0111 -0.3952
   66CHL1   C23 7349   0.338   0.994   9.208  0.0351  0.3996  0.4516
   66CHL1  H23A 7350   0.344   0.884   9.223  0.3918 -0.1252 -2.8376
   66CHL1  H23B 7351   0.235   1.019   9.242 -0.3154  1.2760 -1.1296
   66CHL1   C24 7352   0.350   1.031   9.060  0.1273 -0.1494 -0.9990
   66CHL1  H24A 7353   0.347   1.142   9.055 -0.2770 -0.0607  0.6134
   66CHL1  H24B 7354   0.448   0.991   9.029  0.0004 -1.2146 -0.0786
   66CHL1   C25 7355   0.245   0.983   8.963  0.7352 -0.4101  0.2541
   66CHL1   H25 7356   0.151   1.042   8.965 -0.8247 -2.6074 -1.7879
   66CHL1   C26 7357   0.285   1.012   8.819  0.2368 -0.1369 -0.1868
   66CHL1  H26A 7358   0.298   1.121   8.803  2.2619 -0.2423  0.4325
   66CHL1  H26B 7359   0.377   0.953   8.796 -2.1526 -3.5351 -1.8303
   66CHL1  H26C 7360   0.213   0.969   8.747  0.2243  0.4106 -0.5052
   66CHL1   C27 7361   0.225   0.828   8.980 -0.1598 -0.2039 -0.1501
   66CHL1  H27A 7362   0.167   0.776   8.901  1.0959 -1.3690 -0.3296
   66CHL1  H27B 7363   0.328   0.788   8.992  0.0202 -0.0063 -0.9556
   66CHL1  H27C 7364   0.166   0.814   9.073 -1.1843  2.2584 -0.3471
   67CHL1    C3 7365   4.621   4.829  10.110  0.3747 -0.3807  0.3163
   67CHL1    H3 7366   4.706   4.758  10.118 -0.0599 -0.8439  0.9112
   67CHL1    O3 7367   4.595   4.882  10.237 -0.4144  0.1301 -0.5646
   67CHL1   H3' 7368   4.501   4.900  10.237 -0.6642 -1.0539 -0.9993
   67CHL1    C4 7369   4.655   4.943  10.018  0.0987  0.4151 -0.1469
   67CHL1   H4A 7370   4.577   5.023  10.024 -0.9346 -0.6228  0.8020
   67CHL1   H4B 7371   4.755   4.976  10.054  0.7684 -0.8435 -0.8254
   67CHL1    C5 7372   4.668   4.916   9.872  0.9145  0.7998 -0.2926
   67CHL1    C6 7373   4.780   4.944   9.799 -0.2399  0.4161  0.1092
   67CHL1    H6 7374   4.863   4.995   9.850 -1.0695  0.5573  1.3907
   67CHL1    C7 7375   4.792   4.917   9.657 -0.1762  0.2209  0.4621
   67CHL1   H7A 7376   4.820   5.012   9.606  0.6132 -1.2275 -1.9797
   67CHL1   H7B 7377   4.856   4.830   9.633 -1.0551  0.1499 -1.8314
   67CHL1    C8 7378   4.658   4.876   9.587 -0.3454  0.3268  0.2419
   67CHL1    H8 7379   4.607   4.974   9.575 -0.8366  0.1139  0.5771
   67CHL1   C14 7380   4.691   4.821   9.453  0.0831  0.4231  0.3248
   67CHL1   H14 7381   4.742   4.723   9.468 -0.6214  0.2255  1.6017
   67CHL1   C15 7382   4.771   4.908   9.358 -0.2071  0.4282 -0.2332
   67CHL1  H15A 7383   4.739   5.014   9.353 -0.6163  0.2697 -1.2654
   67CHL1  H15B 7384   4.877   4.911   9.391 -0.7763  2.4617  1.6960
   67CHL1   C16 7385   4.757   4.838   9.225 -0.6341  0.6881 -0.0868
   67CHL1  H16A 7386   4.730   4.920   9.156  0.4959  3.7458  2.8256
   67CHL1  H16B 7387   4.846   4.780   9.192 -0.4457  1.4265 -0.9116
   67CHL1   C17 7388   4.641   4.733   9.242  0.1201 -0.1673 -0.4123
   67CHL1   H17 7389   4.684   4.633   9.265 -0.1959 -0.5749 -1.5264
   67CHL1   C13 7390   4.568   4.785   9.369 -0.3654  0.9735  0.5847
   67CHL1   C18 7391   4.481   4.906   9.340  0.2545  0.3022 -0.2752
   67CHL1  H18A 7392   4.536   4.982   9.281 -0.0884  1.5768  0.9974
   67CHL1  H18B 7393   4.390   4.870   9.288  1.0453 -0.1466 -1.4022
   67CHL1  H18C 7394   4.443   4.946   9.437  2.4408 -0.9280  1.1875
   67CHL1   C12 7395   4.491   4.678   9.452  0.3941  0.0771 -0.4983
   67CHL1  H12A 7396   4.403   4.636   9.400  0.8142 -0.2009 -0.9947
   67CHL1  H12B 7397   4.560   4.591   9.467 -1.3968 -1.1556  1.1269
   67CHL1   C11 7398   4.455   4.725   9.597 -0.3301 -0.2635 -0.1887
   67CHL1  H11A 7399   4.389   4.813   9.582 -0.6680 -0.5194 -0.2142
   67CHL1  H11B 7400   4.408   4.644   9.658 -2.4406 -1.4706 -3.1649
   67CHL1    C9 7401   4.578   4.774   9.671 -0.1969  0.6420  0.3379
   67CHL1    H9 7402   4.641   4.686   9.696 -2.7109 -0.8586  1.8888
   67CHL1   C10 7403   4.548   4.833   9.813  0.0705 -0.9010  0.2330
   67CHL1   C19 7404   4.430   4.928   9.810  0.0936 -0.6174 -0.3912
   67CHL1  H19A 7405   4.440   5.010   9.735  1.7104  2.1246  2.5653
   67CHL1  H19B 7406   4.337   4.872   9.785 -0.3942 -0.1226  0.2608
   67CHL1  H19C 7407   4.416   4.980   9.907  1.0264  0.3831 -0.7622
   67CHL1    C1 7408   4.519   4.714   9.907 -0.9290 -0.3755  0.3815
   67CHL1   H1A 7409   4.437   4.651   9.867 -0.6915 -0.7824  0.5292
   67CHL1   H1B 7410   4.609   4.650   9.916 -0.2580  0.7084  1.8403
   67CHL1    C2 7411   4.499   4.748  10.054  0.0346 -0.0359 -0.0356
   67CHL1   H2A 7412   4.476   4.653  10.107 -2.1061  0.0406 -0.7542
   67CHL1   H2B 7413   4.409   4.813  10.059  1.7804  2.4581  1.2577
   67CHL1   C20 7414   4.572   4.723   9.100  0.7244  0.4469  0.3408
   67CHL1   H20 7415   4.529   4.824   9.081  0.9509  0.4781 -0.0085
   67CHL1   C21 7416   4.457   4.618   9.112 -0.0332  0.6239  0.2455
   67CHL1  H21A 7417   4.369   4.657   9.166  0.8996 -1.0356  3.1730
   67CHL1  H21B 7418   4.491   4.519   9.150 -1.5881 -1.8500 -4.0584
   67CHL1  H21C 7419   4.415   4.600   9.010  0.3165  1.5395 -0.0611
   67CHL1   C22 7420   4.677   4.668   8.992 -0.2972  0.2216  1.1794
   67CHL1  H22A 7421   4.607   4.619   8.921  2.2158 -0.3828 -1.0380
   67CHL1  H22B 7422   4.743   4.741   8.943 -0.3155 -0.3031  0.3568
   67CHL1   C23 7423   4.767   4.550   9.039  0.2470  0.5617  0.1981
   67CHL1  H23A 7424   4.858   4.581   9.093  1.0581 -1.7627  0.2886
   67CHL1  H23B 7425   4.703   4.487   9.104 -0.6272  0.6571 -0.5416
   67CHL1   C24 7426   4.809   4.476   8.904 -0.4927 -0.4089 -0.0515
   67CHL1  H24A 7427   4.729   4.474   8.826  0.1961 -1.1585 -0.7551
   67CHL1  H24B 7428   4.898   4.527   8.861 -1.2675  3.2976  2.2629
   67CHL1   C25 7429   4.839   4.330   8.916  0.3058 -0.2078 -0.0978
   67CHL1   H25 7430   4.904   4.310   9.004  2.3607 -1.4624 -1.8163
   67CHL1   C26 7431   4.706   4.249   8.935  0.3969 -0.4735  0.5650
   67CHL1  H26A 7432   4.644   4.259   8.844 -3.6274  0.4264  3.1430
   67CHL1  H26B 7433   4.737   4.146   8.963 -0.3151 -0.9339 -0.3239
   67CHL1  H26C 7434   4.653   4.286   9.025 -0.2102 -0.9395  0.3978
   67CHL1   C27 7435   4.931   4.279   8.804  0.1586 -0.2589  0.3391
   67CHL1  H27A 7436   5.035   4.319   8.801  0.3390 -0.6551  1.0303
   67CHL1  H27B 7437   4.924   4.169   8.819 -0.2286 -0.3485 -0.4406
   67CHL1  H27C 7438   4.878   4.281   8.706  0.5348 -1.0215  0.1130
   68CHL1    C3 7439   1.222   5.615  10.146 -0.4545 -0.2843  0.7645
   68CHL1    H3 7440   1.149   5.627  10.064  0.6524  2.1912  0.0527
   68CHL1    O3 7441   1.162   5.571  10.266  0.2954  0.4737  0.1389
   68CHL1   H3' 7442   1.205   5.623  10.334  1.0754 -0.6348  0.5359
   68CHL1    C4 7443   1.314   5.505  10.086 -0.3611  0.6874 -0.0337
   68CHL1   H4A 7444   1.390   5.466  10.158 -0.1014  1.8402  0.3548
   68CHL1   H4B 7445   1.252   5.417  10.059  0.7523  0.0022 -0.4318
   68CHL1    C5 7446   1.377   5.555   9.957  0.2141 -0.1308 -0.5105
   68CHL1    C6 7447   1.352   5.491   9.843  0.4226  0.6043 -0.0643
   68CHL1    H6 7448   1.282   5.407   9.852 -1.6527  2.1615 -0.6378
   68CHL1    C7 7449   1.401   5.536   9.713  0.0023  0.0954 -0.3548
   68CHL1   H7A 7450   1.435   5.442   9.663  1.4737 -0.3026  1.3113
   68CHL1   H7B 7451   1.321   5.587   9.655  1.9415  1.7849 -1.6910
   68CHL1    C8 7452   1.522   5.637   9.721  0.0108  0.1024 -0.0668
   68CHL1    H8 7453   1.600   5.576   9.772 -3.1264 -1.6549  3.0683
   68CHL1   C14 7454   1.571   5.684   9.591 -0.6732  0.1152  0.4946
   68CHL1   H14 7455   1.488   5.746   9.551  0.1470  1.9577  1.5066
   68CHL1   C15 7456   1.590   5.580   9.480 -0.5844  0.3051 -0.3818
   68CHL1  H15A 7457   1.631   5.486   9.523  1.1223  0.8547 -0.7498
   68CHL1  H15B 7458   1.487   5.561   9.441 -0.7868 -0.1731  0.3660
   68CHL1   C16 7459   1.687   5.651   9.378  0.2290 -0.1026  0.1828
   68CHL1  H16A 7460   1.783   5.594   9.378 -0.1345 -0.7511  1.5336
   68CHL1  H16B 7461   1.640   5.640   9.278  0.8234 -1.4650  0.0241
   68CHL1   C17 7462   1.721   5.796   9.436  0.1694 -0.0978 -0.1695
   68CHL1   H17 7463   1.649   5.872   9.402  0.5810  0.6421  0.5776
   68CHL1   C13 7464   1.696   5.773   9.592  0.2144  0.4325  0.7528
   68CHL1   C18 7465   1.815   5.709   9.667  0.3639 -0.0662  0.9890
   68CHL1  H18A 7466   1.900   5.777   9.689 -1.2865  2.4436  0.1870
   68CHL1  H18B 7467   1.777   5.663   9.761  0.9166 -1.3513  0.5884
   68CHL1  H18C 7468   1.857   5.616   9.625 -0.7655 -1.2760  2.4324
   68CHL1   C12 7469   1.644   5.898   9.670  0.1332 -0.4135  0.2112
   68CHL1  H12A 7470   1.715   5.983   9.678 -1.1100  0.6917 -0.0892
   68CHL1  H12B 7471   1.556   5.933   9.611 -1.8756 -4.0115  0.8329
   68CHL1   C11 7472   1.599   5.862   9.813 -0.2704  0.1198  0.3606
   68CHL1  H11A 7473   1.699   5.835   9.854  0.5247  2.8578  0.3911
   68CHL1  H11B 7474   1.571   5.945   9.881  1.2837  0.0180  1.1944
   68CHL1    C9 7475   1.493   5.747   9.826  0.0598  0.3731 -0.7266
   68CHL1    H9 7476   1.403   5.801   9.787  1.0409  1.3507 -1.7061
   68CHL1   C10 7477   1.456   5.694   9.969 -0.1270 -0.2776 -0.2649
   68CHL1   C19 7478   1.592   5.679  10.048 -0.0325 -0.0147 -0.8345
   68CHL1  H19A 7479   1.681   5.667   9.983  1.1758 -0.1709  0.8020
   68CHL1  H19B 7480   1.611   5.778  10.094 -1.0413 -0.1035 -0.1770
   68CHL1  H19C 7481   1.574   5.606  10.130 -1.6413  0.6432 -0.5478
   68CHL1    C1 7482   1.363   5.801  10.038 -0.0993 -0.9658 -0.0405
   68CHL1   H1A 7483   1.428   5.887  10.064  0.0652 -0.3106 -2.4014
   68CHL1   H1B 7484   1.282   5.827   9.966  1.3315 -0.0244 -1.3637
   68CHL1    C2 7485   1.293   5.752  10.163  0.3422 -0.5509 -0.1152
   68CHL1   H2A 7486   1.229   5.834  10.201  0.8810 -0.5725  0.8791
   68CHL1   H2B 7487   1.373   5.729  10.236 -0.0408 -0.7190  0.2524
   68CHL1   C20 7488   1.864   5.841   9.413 -0.1486 -0.7385  0.5544
   68CHL1   H20 7489   1.938   5.777   9.465 -0.9816 -0.9667  1.4892
   68CHL1   C21 7490   1.883   5.983   9.468 -0.0713 -0.0531 -0.2733
   68CHL1  H21A 7491   1.813   6.061   9.432  0.1801  0.0978 -0.4382
   68CHL1  H21B 7492   1.987   6.014   9.443 -0.7400  0.7991 -2.1770
   68CHL1  H21C 7493   1.893   5.977   9.578  0.2665 -1.8221 -0.3677
   68CHL1   C22 7494   1.905   5.847   9.264  0.3384  0.9599  0.0645
   68CHL1  H22A 7495   2.014   5.853   9.248  0.8972 -2.8482  1.3507
   68CHL1  H22B 7496   1.892   5.745   9.224  0.8515  0.6062  0.7754
   68CHL1   C23 7497   1.817   5.934   9.177  0.3953  0.4073  0.1516
   68CHL1  H23A 7498   1.710   5.905   9.185  1.3080 -3.7632 -0.2490
   68CHL1  H23B 7499   1.817   6.036   9.220  2.6073  0.2168  0.7727
   68CHL1   C24 7500   1.866   5.935   9.034  0.0560  0.0878 -0.2886
   68CHL1  H24A 7501   1.975   5.951   9.023  0.0574 -0.7210 -1.6422
   68CHL1  H24B 7502   1.849   5.836   8.988 -0.1599  1.0781 -2.4903
   68CHL1   C25 7503   1.801   6.043   8.938  0.0196  0.5897 -0.0755
   68CHL1   H25 7504   1.792   6.137   8.997 -2.6234  0.4728 -0.1890
   68CHL1   C26 7505   1.888   6.074   8.815  0.3904  0.1732 -0.0166
   68CHL1  H26A 7506   1.927   5.981   8.771  0.0136 -0.4836  0.9837
   68CHL1  H26B 7507   1.827   6.126   8.738 -1.1266 -1.9607 -0.3569
   68CHL1  H26C 7508   1.978   6.133   8.842 -0.1337  0.2368  1.7155
   68CHL1   C27 7509   1.661   5.999   8.899  0.2469 -0.1470  0.1747
   68CHL1  H27A 7510   1.603   5.958   8.985  0.1462  3.0126  1.7898
   68CHL1  H27B 7511   1.603   6.087   8.863  1.6246  0.6863 -0.0955
   68CHL1  H27C 7512   1.668   5.929   8.814 -1.6840 -0.2383  0.0466
   69CHL1    C3 7513   0.512   6.044   6.701  0.3836 -0.1224  0.6468
   69CHL1    H3 7514   0.418   6.086   6.743 -0.3454 -0.8807 -0.1825
   69CHL1    O3 7515   0.492   6.026   6.564  0.5554 -0.1288  0.0372
   69CHL1   H3' 7516   0.460   5.937   6.549  0.3361 -0.2330  1.0280
   69CHL1    C4 7517   0.619   6.154   6.712 -0.3358 -0.1426  0.1340
   69CHL1   H4A 7518   0.703   6.122   6.647 -0.7677  1.6998 -1.4353
   69CHL1   H4B 7519   0.568   6.247   6.680 -0.2475 -0.6735 -1.6425
   69CHL1    C5 7520   0.668   6.170   6.854  0.1528  0.1294 -0.2300
   69CHL1    C6 7521   0.666   6.286   6.916 -0.0711 -0.0997  0.2898
   69CHL1    H6 7522   0.629   6.375   6.864 -0.5922 -0.5614 -0.1457
   69CHL1    C7 7523   0.728   6.302   7.048  0.3887 -0.0073  0.5939
   69CHL1   H7A 7524   0.800   6.386   7.049 -0.2344  0.5349  0.5582
   69CHL1   H7B 7525   0.656   6.343   7.122 -0.2965 -0.4407  0.1703
   69CHL1    C8 7526   0.796   6.176   7.121  0.2415  0.0828 -0.3027
   69CHL1    H8 7527   0.904   6.165   7.098  0.5638 -0.1016  1.2291
   69CHL1   C14 7528   0.779   6.188   7.277 -1.0681  0.5240  0.0592
   69CHL1   H14 7529   0.671   6.185   7.304 -1.3018  1.3632 -0.7501
   69CHL1   C15 7530   0.840   6.314   7.335  0.0783 -0.4361  0.0065
   69CHL1  H15A 7531   0.939   6.340   7.292  1.0441  0.0764  2.3768
   69CHL1  H15B 7532   0.768   6.397   7.318  0.0207 -0.3631  0.5916
   69CHL1   C16 7533   0.850   6.279   7.488 -0.8883 -0.1267  0.1235
   69CHL1  H16A 7534   0.948   6.317   7.523 -0.7795  0.6009 -0.8986
   69CHL1  H16B 7535   0.768   6.324   7.548 -0.6022  2.4450 -1.2460
   69CHL1   C17 7536   0.827   6.119   7.501 -0.2995  0.3639 -1.1328
   69CHL1   H17 7537   0.719   6.098   7.517  0.2601 -1.0984  1.1150
   69CHL1   C13 7538   0.847   6.074   7.355  0.4705 -0.0910  0.0678
   69CHL1   C18 7539   1.007   6.073   7.332  0.2406 -0.1978 -0.4205
   69CHL1  H18A 7540   1.048   6.175   7.348  2.5016 -1.1386  0.2419
   69CHL1  H18B 7541   1.054   6.001   7.402 -2.2136 -0.9596  0.5570
   69CHL1  H18C 7542   1.036   6.036   7.232  0.8455 -2.1370  0.4249
   69CHL1   C12 7543   0.776   5.944   7.307  0.0734 -0.0845  0.8682
   69CHL1  H12A 7544   0.798   5.849   7.360  0.5042  0.7916  2.3192
   69CHL1  H12B 7545   0.668   5.964   7.327  0.0305  0.9242 -0.2700
   69CHL1   C11 7546   0.781   5.928   7.159 -0.0582 -0.1309  0.1245
   69CHL1  H11A 7547   0.887   5.910   7.133  0.7196  0.3862  2.6709
   69CHL1  H11B 7548   0.722   5.839   7.130 -0.6766  0.6264 -1.0225
   69CHL1    C9 7549   0.722   6.055   7.082 -0.7232 -0.1713 -0.1851
   69CHL1    H9 7550   0.618   6.066   7.120 -0.3952 -0.9081  0.9649
   69CHL1   C10 7551   0.710   6.037   6.930  0.2481 -0.2182  0.3642
   69CHL1   C19 7552   0.851   5.992   6.875  0.4917 -0.2922 -0.0034
   69CHL1  H19A 7553   0.855   5.985   6.764 -2.9860 -2.9366 -0.1434
   69CHL1  H19B 7554   0.933   6.059   6.908 -0.4007  0.8247 -0.0021
   69CHL1  H19C 7555   0.871   5.889   6.911 -1.0708 -1.0084 -1.0458
   69CHL1    C1 7556   0.602   5.929   6.907  0.6328 -0.9239 -0.1491
   69CHL1   H1A 7557   0.636   5.830   6.944  0.6628 -0.7072  0.4157
   69CHL1   H1B 7558   0.510   5.946   6.967  0.6344 -0.4583 -0.2743
   69CHL1    C2 7559   0.561   5.913   6.763  0.1153 -0.2479  0.2071
   69CHL1   H2A 7560   0.478   5.839   6.769 -1.2459  0.9718 -2.0975
   69CHL1   H2B 7561   0.647   5.867   6.710  0.3578 -1.4596  1.5865
   69CHL1   C20 7562   0.895   6.051   7.623  0.4558 -0.4492 -0.1628
   69CHL1   H20 7563   1.006   6.049   7.612  0.6195 -0.7006  1.3316
   69CHL1   C21 7564   0.849   5.908   7.643  0.6518  1.0229 -0.0244
   69CHL1  H21A 7565   0.889   5.854   7.555 -1.9825 -0.4481 -0.4321
   69CHL1  H21B 7566   0.738   5.903   7.647  0.6914  0.4277  2.9222
   69CHL1  H21C 7567   0.885   5.864   7.739  0.2443  1.8352  0.5154
   69CHL1   C22 7568   0.880   6.138   7.753 -1.1383 -0.2589  1.3502
   69CHL1  H22A 7569   0.942   6.225   7.723 -1.8441 -0.4051 -0.7326
   69CHL1  H22B 7570   0.774   6.157   7.778 -1.3473  0.4437  0.0107
   69CHL1   C23 7571   0.943   6.083   7.884 -0.1342 -0.1452 -0.3500
   69CHL1  H23A 7572   0.896   5.984   7.902 -2.0224  0.2999 -2.2952
   69CHL1  H23B 7573   1.053   6.085   7.869  0.2445  0.5064  2.1262
   69CHL1   C24 7574   0.900   6.158   8.007  0.2150  0.7456 -0.5360
   69CHL1  H24A 7575   0.899   6.268   7.990  0.9444  1.3611  2.6981
   69CHL1  H24B 7576   0.798   6.121   8.032  0.9733 -1.8680 -1.1123
   69CHL1   C25 7577   0.991   6.125   8.135 -0.6649  0.1191 -0.3571
   69CHL1   H25 7578   1.032   6.022   8.135 -0.8358  0.0468  0.1012
   69CHL1   C26 7579   1.117   6.224   8.137 -1.0369 -0.2728  0.4143
   69CHL1  H26A 7580   1.175   6.229   8.042 -0.3884 -2.3852  0.6483
   69CHL1  H26B 7581   1.074   6.326   8.145  1.5083  0.9109 -0.1146
   69CHL1  H26C 7582   1.183   6.205   8.224 -0.3471  1.1212  0.2142
   69CHL1   C27 7583   0.913   6.140   8.267 -0.9593 -0.6719 -0.4650
   69CHL1  H27A 7584   0.864   6.239   8.275  0.1743 -0.2401  1.7027
   69CHL1  H27B 7585   0.846   6.051   8.262  1.2684 -2.3974 -1.8568
   69CHL1  H27C 7586   0.970   6.137   8.362 -3.9349 -1.0653  1.4495
   70CHL1    C3 7587   5.901   0.465   7.012 -0.3907 -0.9926 -1.1035
   70CHL1    H3 7588   5.985   0.417   7.065 -1.9729  1.4715  4.2565
   70CHL1    O3 7589   5.917   0.461   6.873  0.3570 -0.6585 -0.9949
   70CHL1   H3' 7590   5.862   0.531   6.837 -0.6120 -0.9910 -0.1801
   70CHL1    C4 7591   5.762   0.406   7.050  0.1815  0.1250  0.8575
   70CHL1   H4A 7592   5.679   0.459   6.998 -0.6753 -1.7318  0.2351
   70CHL1   H4B 7593   5.771   0.306   7.002  1.4052  0.7345 -0.2527
   70CHL1    C5 7594   5.737   0.393   7.196 -0.5565  0.4195 -0.1109
   70CHL1    C6 7595   5.715   0.284   7.268  0.1753 -0.6727  0.4454
   70CHL1    H6 7596   5.732   0.189   7.215  2.2797  0.9963 -2.1457
   70CHL1    C7 7597   5.686   0.273   7.415 -0.1096  0.3588 -0.1008
   70CHL1   H7A 7598   5.599   0.213   7.447  1.1226 -1.0920  0.6442
   70CHL1   H7B 7599   5.764   0.225   7.478 -0.5817  2.0773  1.9055
   70CHL1    C8 7600   5.662   0.413   7.475  0.2839 -0.6791  0.1244
   70CHL1    H8 7601   5.557   0.446   7.458  0.8014  0.7317 -0.4747
   70CHL1   C14 7602   5.674   0.411   7.626 -0.0398  0.5582  0.0415
   70CHL1   H14 7603   5.782   0.384   7.635 -0.3468 -0.7398 -0.0545
   70CHL1   C15 7604   5.603   0.289   7.700  0.0473 -0.4649  0.6487
   70CHL1  H15A 7605   5.496   0.272   7.675  0.3693  0.7981 -1.9000
   70CHL1  H15B 7606   5.660   0.194   7.687  2.5384  0.2165  4.6091
   70CHL1   C16 7607   5.625   0.338   7.840  0.2006  0.1325 -0.4282
   70CHL1  H16A 7608   5.532   0.327   7.900  1.1722 -0.7112  0.9995
   70CHL1  H16B 7609   5.696   0.276   7.900  0.0542  1.1423  0.8241
   70CHL1   C17 7610   5.672   0.487   7.845  0.2493 -1.0709  0.3511
   70CHL1   H17 7611   5.781   0.467   7.859  0.4061 -0.2922  0.2933
   70CHL1   C13 7612   5.649   0.536   7.705 -0.1803  0.1351 -0.0102
   70CHL1   C18 7613   5.501   0.586   7.688  0.1808  0.1425 -0.2324
   70CHL1  H18A 7614   5.431   0.523   7.746  1.4850 -0.4196  0.7857
   70CHL1  H18B 7615   5.490   0.682   7.742 -0.4377 -0.6170  1.0219
   70CHL1  H18C 7616   5.472   0.584   7.580  1.4408 -0.8260 -0.5845
   70CHL1   C12 7617   5.750   0.638   7.646 -0.0549  0.0344 -0.2636
   70CHL1  H12A 7618   5.749   0.741   7.688  0.8478  0.9682 -2.3806
   70CHL1  H12B 7619   5.848   0.591   7.667 -1.5567 -2.4611  1.9070
   70CHL1   C11 7620   5.734   0.658   7.494  0.1722  0.0362 -0.0353
   70CHL1  H11A 7621   5.635   0.705   7.475  0.1729 -0.1341 -0.4725
   70CHL1  H11B 7622   5.800   0.739   7.456  0.3047 -0.2074 -0.3338
   70CHL1    C9 7623   5.751   0.523   7.419 -0.0193 -0.1041  0.7007
   70CHL1    H9 7624   5.854   0.490   7.443 -0.4915 -1.6968  0.6733
   70CHL1   C10 7625   5.744   0.535   7.263  0.0116  0.2355 -0.5559
   70CHL1   C19 7626   5.619   0.625   7.228  0.0322  0.1642  0.0684
   70CHL1  H19A 7627   5.533   0.567   7.269  0.6820  0.7087  2.3492
   70CHL1  H19B 7628   5.631   0.726   7.272  0.6870 -0.0178  0.3227
   70CHL1  H19C 7629   5.619   0.633   7.117  1.0045  1.1295  0.1305
   70CHL1    C1 7630   5.875   0.610   7.218 -0.3722  0.6595  0.2376
   70CHL1   H1A 7631   5.867   0.718   7.243  2.9222  1.0417  0.0329
   70CHL1   H1B 7632   5.956   0.554   7.268 -1.2988 -1.1481 -0.1924
   70CHL1    C2 7633   5.898   0.615   7.068 -0.2120 -0.1971 -0.2163
   70CHL1   H2A 7634   5.998   0.658   7.045 -0.8694  0.2432 -2.4520
   70CHL1   H2B 7635   5.822   0.681   7.021 -0.8008 -0.7799 -0.0986
   70CHL1   C20 7636   5.625   0.566   7.966 -0.3683  0.1945 -0.0640
   70CHL1   H20 7637   5.515   0.580   7.962 -0.2755  1.3813  0.8554
   70CHL1   C21 7638   5.688   0.709   7.951  0.5189  0.3260  0.5690
   70CHL1  H21A 7639   5.674   0.770   8.042 -0.8519  0.3503  0.3565
   70CHL1  H21B 7640   5.645   0.758   7.861  0.4191 -2.2350 -0.8922
   70CHL1  H21C 7641   5.797   0.689   7.940  0.4463 -0.9945  1.9039
   70CHL1   C22 7642   5.659   0.501   8.105  0.5445 -0.3726  0.7896
   70CHL1  H22A 7643   5.604   0.560   8.181 -1.7636  0.6910 -1.5173
   70CHL1  H22B 7644   5.616   0.398   8.097 -1.9951  0.7262 -2.9926
   70CHL1   C23 7645   5.801   0.494   8.143 -0.5247  0.1365  0.1161
   70CHL1  H23A 7646   5.843   0.438   8.057  1.3288  0.2727  0.8893
   70CHL1  H23B 7647   5.842   0.596   8.156  1.1253 -0.4903  0.0803
   70CHL1   C24 7648   5.829   0.425   8.280 -0.1843 -0.8821 -0.4923
   70CHL1  H24A 7649   5.788   0.323   8.298  0.4587 -0.7727  1.9222
   70CHL1  H24B 7650   5.938   0.418   8.299  0.3298  0.4406 -2.5901
   70CHL1   C25 7651   5.776   0.507   8.396 -0.4615 -0.3786  0.3528
   70CHL1   H25 7652   5.670   0.539   8.382 -0.7150 -0.6924  1.4949
   70CHL1   C26 7653   5.782   0.423   8.523 -0.3478 -0.2744 -0.2120
   70CHL1  H26A 7654   5.708   0.456   8.598  0.8463  0.8099  0.5301
   70CHL1  H26B 7655   5.773   0.314   8.504  1.3721 -0.6581  0.9313
   70CHL1  H26C 7656   5.884   0.441   8.566 -0.9778  4.7499 -0.2043
   70CHL1   C27 7657   5.856   0.640   8.435  0.7457 -0.3237  0.4459
   70CHL1  H27A 7658   5.789   0.695   8.504  1.1413 -0.1067  0.6602
   70CHL1  H27B 7659   5.954   0.624   8.486  0.8865  2.3122  1.1331
   70CHL1  H27C 7660   5.870   0.707   8.347 -0.5395 -0.3302  0.2154
   71CHL1    C3 7661   4.484   4.930   6.759  0.0642 -0.6774  0.3005
   71CHL1    H3 7662   4.535   4.832   6.759  0.2065 -0.6092 -0.7991
   71CHL1    O3 7663   4.480   4.981   6.628 -0.2139 -0.1202 -0.1569
   71CHL1   H3' 7664   4.426   5.060   6.637 -1.6023 -0.6987 -2.5096
   71CHL1    C4 7665   4.339   4.926   6.822 -0.4649 -0.8594  0.7647
   71CHL1   H4A 7666   4.296   5.027   6.805  1.4768  0.3073  2.3850
   71CHL1   H4B 7667   4.280   4.848   6.768  2.1481 -1.4775 -1.3877
   71CHL1    C5 7668   4.343   4.886   6.965 -0.5578  0.0630  0.4446
   71CHL1    C6 7669   4.281   4.772   7.001  0.5804 -0.8719 -0.5965
   71CHL1    H6 7670   4.231   4.706   6.927  1.2186 -2.6822  0.5241
   71CHL1    C7 7671   4.279   4.725   7.141 -0.3691  0.6817 -0.0069
   71CHL1   H7A 7672   4.174   4.696   7.162 -1.4437  3.4599 -1.0814
   71CHL1   H7B 7673   4.345   4.640   7.167 -0.1399  0.6636 -0.6358
   71CHL1    C8 7674   4.327   4.836   7.237  0.3487  0.8031 -0.4959
   71CHL1    H8 7675   4.244   4.909   7.245  0.0556  0.3084  1.9977
   71CHL1   C14 7676   4.338   4.770   7.370 -0.8595 -1.2779 -0.2269
   71CHL1   H14 7677   4.421   4.696   7.366 -1.9092 -2.4365 -1.3266
   71CHL1   C15 7678   4.214   4.694   7.419 -0.5089  0.0132  0.1515
   71CHL1  H15A 7679   4.124   4.754   7.391 -1.1792 -0.9153  0.2636
   71CHL1  H15B 7680   4.198   4.594   7.373 -0.0220 -0.0892  0.2039
   71CHL1   C16 7681   4.227   4.692   7.569  0.8187  0.5855  0.2140
   71CHL1  H16A 7682   4.145   4.755   7.611 -0.4915  1.3593 -3.1786
   71CHL1  H16B 7683   4.222   4.588   7.607 -0.0800  0.6651  0.3461
   71CHL1   C17 7684   4.357   4.767   7.604 -0.4542 -0.0976  0.2058
   71CHL1   H17 7685   4.440   4.694   7.587  1.0753  1.6874 -0.3499
   71CHL1   C13 7686   4.381   4.864   7.483 -0.0780 -0.5632 -0.3316
   71CHL1   C18 7687   4.276   4.983   7.504 -0.0386  1.1222 -0.8910
   71CHL1  H18A 7688   4.327   5.066   7.558 -0.7111 -0.5305  2.5725
   71CHL1  H18B 7689   4.229   5.016   7.409 -3.2285  1.1618  0.5685
   71CHL1  H18C 7690   4.191   4.952   7.568  0.9753  0.5393  0.2331
   71CHL1   C12 7691   4.523   4.911   7.441  0.0260 -0.1542  0.3626
   71CHL1  H12A 7692   4.571   4.981   7.513 -1.3919  1.8177 -0.5365
   71CHL1  H12B 7693   4.600   4.831   7.430  2.1129  2.0203 -2.2771
   71CHL1   C11 7694   4.515   4.988   7.306 -0.7109 -0.9429  0.4414
   71CHL1  H11A 7695   4.448   5.073   7.328  1.1559  0.0068  3.0298
   71CHL1  H11B 7696   4.615   5.031   7.283 -1.8974  0.4290 -2.7582
   71CHL1    C9 7697   4.462   4.898   7.194 -1.0047 -0.1123  0.2110
   71CHL1    H9 7698   4.532   4.812   7.182 -1.2860 -0.4881  1.1490
   71CHL1   C10 7699   4.432   4.967   7.056 -0.0532  0.0379 -0.7395
   71CHL1   C19 7700   4.368   5.103   7.066  0.6946 -0.1800  0.6369
   71CHL1  H19A 7701   4.342   5.157   6.972  0.2901 -0.0524  0.8216
   71CHL1  H19B 7702   4.284   5.105   7.138  0.9064 -0.4815  0.8979
   71CHL1  H19C 7703   4.438   5.174   7.115 -0.7384  3.2543 -1.8910
   71CHL1    C1 7704   4.573   4.981   6.987  0.0747  0.2703  0.4853
   71CHL1   H1A 7705   4.639   5.050   7.044  3.4687 -0.3977 -2.2583
   71CHL1   H1B 7706   4.635   4.889   6.990  1.4728  1.1576 -0.2257
   71CHL1    C2 7707   4.577   5.024   6.837 -0.3433 -0.3167 -0.5699
   71CHL1   H2A 7708   4.677   5.008   6.791  0.0260  0.3633 -0.0075
   71CHL1   H2B 7709   4.561   5.133   6.840 -0.8005 -0.3958  0.1864
   71CHL1   C20 7710   4.348   4.824   7.749 -0.6890 -0.3896  0.1393
   71CHL1   H20 7711   4.264   4.895   7.767  0.3547  0.6753  0.9138
   71CHL1   C21 7712   4.478   4.905   7.786 -0.6869 -1.0046 -0.2216
   71CHL1  H21A 7713   4.555   4.838   7.830 -0.6570 -0.9134 -0.1370
   71CHL1  H21B 7714   4.453   4.982   7.862 -1.7892  0.0288 -1.5723
   71CHL1  H21C 7715   4.513   4.966   7.701 -0.3912  2.9593  2.4886
   71CHL1   C22 7716   4.336   4.708   7.848  0.8595  0.1835 -0.5539
   71CHL1  H22A 7717   4.238   4.656   7.850 -0.2546  2.1663 -0.3853
   71CHL1  H22B 7718   4.406   4.624   7.828  1.4458 -0.0294  1.9992
   71CHL1   C23 7719   4.350   4.758   7.997  0.6486 -0.4194 -0.6769
   71CHL1  H23A 7720   4.325   4.675   8.067 -2.6512 -0.3977 -1.6344
   71CHL1  H23B 7721   4.455   4.785   8.021  0.2958 -1.2399  2.1458
   71CHL1   C24 7722   4.251   4.870   8.041 -0.1996  0.5153  0.2810
   71CHL1  H24A 7723   4.293   4.972   8.023  0.3211  0.8846  3.1625
   71CHL1  H24B 7724   4.147   4.864   8.004  0.5087 -1.4092 -1.5655
   71CHL1   C25 7725   4.239   4.877   8.197 -0.0571 -0.0543 -0.1664
   71CHL1   H25 7726   4.178   4.794   8.238 -1.9864  1.0047 -0.7840
   71CHL1   C26 7727   4.376   4.853   8.277  0.1582 -0.0311 -0.8620
   71CHL1  H26A 7728   4.393   4.744   8.288 -1.2285 -0.2531 -0.7726
   71CHL1  H26B 7729   4.465   4.907   8.238  0.1148 -1.0862 -2.5742
   71CHL1  H26C 7730   4.360   4.895   8.378 -0.5681 -2.0528 -0.0850
   71CHL1   C27 7731   4.174   5.011   8.230 -0.0859 -0.5309 -0.0432
   71CHL1  H27A 7732   4.254   5.083   8.202 -0.5423 -0.7279 -1.9594
   71CHL1  H27B 7733   4.085   5.040   8.170  0.4575  0.6400 -0.3166
   71CHL1  H27C 7734   4.161   5.026   8.340  0.4901  2.2401 -0.2642
   72CHL1    C3 7735   0.028   2.302   7.081 -0.4107  0.0264  0.7555
   72CHL1    H3 7736   0.098   2.382   7.113 -0.5280 -0.0550  1.2257
   72CHL1    O3 7737   0.053   2.276   6.947 -0.4106 -0.4801  0.1042
   72CHL1   H3' 7738   0.004   2.193   6.937  1.3516 -2.0423  3.0089
   72CHL1    C4 7739   0.039   2.177   7.160  0.2559 -0.4589 -0.4216
   72CHL1   H4A 7740  -0.043   2.106   7.132  0.5231 -0.5581 -0.9703
   72CHL1   H4B 7741   0.136   2.128   7.139  1.5026  1.8117 -0.1590
   72CHL1    C5 7742   0.021   2.208   7.311  0.1846 -0.1224 -0.1398
   72CHL1    C6 7743   0.116   2.177   7.391  0.2527  0.1065  0.0602
   72CHL1    H6 7744   0.203   2.127   7.345 -0.8840  0.6889 -2.9991
   72CHL1    C7 7745   0.109   2.202   7.537 -0.1406 -0.2214 -0.2858
   72CHL1   H7A 7746   0.140   2.116   7.599  0.8197  1.4715  1.6762
   72CHL1   H7B 7747   0.189   2.277   7.549  0.5273 -1.2552  2.4976
   72CHL1    C8 7748  -0.027   2.247   7.592 -0.7895 -0.0048 -1.5900
   72CHL1    H8 7749  -0.089   2.156   7.607  0.7614 -1.0259 -1.1754
   72CHL1   C14 7750  -0.002   2.316   7.728 -0.3013  0.1984  0.5470
   72CHL1   H14 7751   0.068   2.400   7.712 -1.8814  1.7331  1.3673
   72CHL1   C15 7752   0.065   2.224   7.835 -0.2627  0.1429  0.4385
   72CHL1  H15A 7753   0.031   2.120   7.817 -2.7255  0.8405  0.7068
   72CHL1  H15B 7754   0.174   2.244   7.819 -0.1552 -1.2058 -0.6058
   72CHL1   C16 7755   0.022   2.299   7.963  0.1699 -0.2151  0.7509
   72CHL1  H16A 7756  -0.029   2.218   8.019  2.9087 -3.2292 -0.7361
   72CHL1  H16B 7757   0.106   2.338   8.024  0.8688  3.4980 -2.2380
   72CHL1   C17 7758  -0.075   2.416   7.927  0.1118  0.0554  0.3629
   72CHL1   H17 7759  -0.010   2.505   7.910  0.7932  0.1439  3.0678
   72CHL1   C13 7760  -0.135   2.376   7.793 -0.2491 -0.3323  0.2612
   72CHL1   C18 7761  -0.241   2.262   7.816  0.0655  0.1878 -0.6901
   72CHL1  H18A 7762  -0.227   2.201   7.908 -4.6632  0.1162  0.2378
   72CHL1  H18B 7763  -0.343   2.305   7.816  0.9008  2.2807 -1.2120
   72CHL1  H18C 7764  -0.251   2.197   7.726 -0.4898 -0.6675 -0.0347
   72CHL1   C12 7765  -0.189   2.487   7.695 -0.2818 -0.0906 -0.6265
   72CHL1  H12A 7766  -0.287   2.530   7.726 -1.4911 -3.1787  0.1272
   72CHL1  H12B 7767  -0.113   2.568   7.687 -1.4013  1.0457 -0.1371
   72CHL1   C11 7768  -0.211   2.418   7.551 -0.1102 -0.8669 -0.7243
   72CHL1  H11A 7769  -0.297   2.350   7.569 -0.1972 -0.3084  1.2694
   72CHL1  H11B 7770  -0.245   2.503   7.488  1.0462  0.5154  0.4565
   72CHL1    C9 7771  -0.095   2.345   7.498 -0.2122  0.2129 -0.0903
   72CHL1    H9 7772  -0.020   2.426   7.486  1.0550 -1.0694 -1.2974
   72CHL1   C10 7773  -0.106   2.290   7.350  0.1082 -0.6047  0.1059
   72CHL1   C19 7774  -0.227   2.198   7.345  0.4052 -0.1534 -0.2777
   72CHL1  H19A 7775  -0.244   2.157   7.243  1.4814 -2.4764  0.4047
   72CHL1  H19B 7776  -0.208   2.105   7.402  0.5250  0.2705  0.3806
   72CHL1  H19C 7777  -0.320   2.245   7.385 -1.4542 -1.0071 -3.2495
   72CHL1    C1 7778  -0.128   2.408   7.246 -0.2544  0.3544  0.2485
   72CHL1   H1A 7779  -0.217   2.473   7.262 -0.1489  0.5683 -0.0292
   72CHL1   H1B 7780  -0.042   2.473   7.273  1.3094 -1.5432  0.0648
   72CHL1    C2 7781  -0.108   2.370   7.095 -0.5588  0.6164  1.0056
   72CHL1   H2A 7782  -0.102   2.456   7.025 -2.4836  1.7066  2.0686
   72CHL1   H2B 7783  -0.190   2.303   7.060  0.1571  0.8869 -1.3622
   72CHL1   C20 7784  -0.168   2.460   8.045 -0.3366 -0.6734 -0.6054
   72CHL1   H20 7785  -0.247   2.381   8.049 -1.2003  0.1683 -0.7164
   72CHL1   C21 7786  -0.227   2.602   8.035 -0.3209 -0.3664  0.1623
   72CHL1  H21A 7787  -0.309   2.611   8.109 -1.9025  3.1693 -1.8052
   72CHL1  H21B 7788  -0.272   2.623   7.936  0.0286  0.9321  0.2715
   72CHL1  H21C 7789  -0.149   2.678   8.053 -1.9236  1.4688 -0.3270
   72CHL1   C22 7790  -0.091   2.442   8.184  0.3020  0.0985  0.1502
   72CHL1  H22A 7791  -0.075   2.335   8.208 -3.6429 -1.1597 -2.0329
   72CHL1  H22B 7792   0.004   2.500   8.180 -0.0642  0.8632  1.6379
   72CHL1   C23 7793  -0.174   2.490   8.305  0.2532 -0.4503 -0.5726
   72CHL1  H23A 7794  -0.190   2.600   8.295  1.9617 -0.0776  0.4142
   72CHL1  H23B 7795  -0.266   2.429   8.319  2.0479 -2.5795  3.2384
   72CHL1   C24 7796  -0.096   2.473   8.437  0.0290  0.0696 -0.3376
   72CHL1  H24A 7797  -0.091   2.365   8.462  1.7350  0.2697  0.3697
   72CHL1  H24B 7798   0.012   2.498   8.425  0.7816 -3.0435 -0.8543
   72CHL1   C25 7799  -0.156   2.549   8.563 -0.0182 -0.6090  0.6082
   72CHL1   H25 7800  -0.263   2.569   8.541  1.0461  1.1658 -3.9341
   72CHL1   C26 7801  -0.154   2.458   8.681  0.0960  0.0618 -0.2650
   72CHL1  H26A 7802  -0.055   2.418   8.713 -1.0531 -0.6428  2.8046
   72CHL1  H26B 7803  -0.188   2.518   8.768  2.7138  2.3393 -0.6824
   72CHL1  H26C 7804  -0.234   2.383   8.661 -1.1704  1.7561 -1.8814
   72CHL1   C27 7805  -0.086   2.686   8.590 -0.2300  0.2764  0.2400
   72CHL1  H27A 7806   0.024   2.667   8.586 -0.4150 -0.6374 -1.0571
   72CHL1  H27B 7807  -0.111   2.767   8.518  1.5915 -0.5505 -1.4414
   72CHL1  H27C 7808  -0.113   2.721   8.692  0.4191 -0.0398  0.5285
   73CHL1    C3 7809   0.100   6.315   6.923  0.5073  0.4850 -0.3728
   73CHL1    H3 7810   0.062   6.223   6.972  2.2854  0.5828  1.3264
   73CHL1    O3 7811   0.047   6.319   6.791  0.0075  0.0315  0.2200
   73CHL1   H3' 7812   0.085   6.396   6.749  2.1721 -1.0553  0.0347
   73CHL1    C4 7813   0.040   6.432   6.995  0.3180  0.3983  0.2256
   73CHL1   H4A 7814   0.071   6.528   6.949 -0.3505  0.4658 -0.0915
   73CHL1   H4B 7815  -0.070   6.420   6.985  0.3857 -0.4032  0.3921
   73CHL1    C5 7816   0.085   6.449   7.137 -1.2327  0.1493  0.3115
   73CHL1    C6 7817   0.003   6.455   7.243  0.1995  0.3255 -0.3107
   73CHL1    H6 7818  -0.104   6.433   7.234 -0.2628  1.2416  2.1595
   73CHL1    C7 7819   0.055   6.487   7.382  0.4981 -0.7326 -0.1128
   73CHL1   H7A 7820  -0.013   6.557   7.435  1.5418  0.5017 -0.3635
   73CHL1   H7B 7821   0.049   6.394   7.442  1.7256 -0.7841 -0.0428
   73CHL1    C8 7822   0.206   6.540   7.390 -0.1967  0.4874  0.5888
   73CHL1    H8 7823   0.204   6.648   7.365  0.6050  0.2522 -0.5893
   73CHL1   C14 7824   0.259   6.529   7.531  0.0766 -0.0422  0.0891
   73CHL1   H14 7825   0.241   6.424   7.562 -2.3730  0.5026  0.7698
   73CHL1   C15 7826   0.190   6.617   7.634 -0.3913  0.3854 -0.0229
   73CHL1  H15A 7827   0.196   6.723   7.599  1.8130  0.8240  1.4654
   73CHL1  H15B 7828   0.084   6.591   7.655  0.0170 -0.5329  1.0015
   73CHL1   C16 7829   0.272   6.602   7.757 -0.2415 -0.3746  0.3750
   73CHL1  H16A 7830   0.289   6.693   7.819  0.3178  1.3283 -2.1310
   73CHL1  H16B 7831   0.237   6.523   7.827  1.2753 -1.2831  0.1485
   73CHL1   C17 7832   0.410   6.542   7.707  0.0753 -0.0451  0.8387
   73CHL1   H17 7833   0.411   6.432   7.719  0.1067 -0.1388  0.0515
   73CHL1   C13 7834   0.405   6.565   7.552 -0.0831  0.4993  0.4980
   73CHL1   C18 7835   0.446   6.712   7.508  0.2663  0.8299 -0.4483
   73CHL1  H18A 7836   0.388   6.795   7.555 -0.0263 -0.8541  2.3557
   73CHL1  H18B 7837   0.555   6.725   7.523  0.3780 -1.5721  1.3615
   73CHL1  H18C 7838   0.415   6.736   7.403  0.3430  1.2409 -0.3784
   73CHL1   C12 7839   0.486   6.466   7.467 -0.8584  0.9254  0.3717
   73CHL1  H12A 7840   0.597   6.469   7.470 -0.7411 -1.7522  1.4954
   73CHL1  H12B 7841   0.468   6.368   7.516 -2.7342 -0.2003 -2.3428
   73CHL1   C11 7842   0.442   6.458   7.322  0.1471  0.1006  0.3263
   73CHL1  H11A 7843   0.463   6.553   7.269 -1.4753  0.1863 -0.2392
   73CHL1  H11B 7844   0.493   6.371   7.275  1.0179  0.9654 -0.3518
   73CHL1    C9 7845   0.288   6.453   7.293  0.4260  0.3222  0.3386
   73CHL1    H9 7846   0.274   6.349   7.330 -0.2056  0.5619  0.7941
   73CHL1   C10 7847   0.241   6.459   7.144 -0.1509  0.4124 -0.5106
   73CHL1   C19 7848   0.274   6.600   7.091  0.6738 -0.0734  0.4591
   73CHL1  H19A 7849   0.219   6.672   7.154  0.0731  0.9365 -1.1677
   73CHL1  H19B 7850   0.383   6.622   7.089  1.2379 -2.4476  1.1475
   73CHL1  H19C 7851   0.247   6.602   6.983  1.3643  1.3417  0.2906
   73CHL1    C1 7852   0.313   6.350   7.059  0.8849 -0.3131  0.0032
   73CHL1   H1A 7853   0.422   6.371   7.059  0.8541 -0.1526 -0.0337
   73CHL1   H1B 7854   0.292   6.258   7.118 -1.4109  1.4260  2.1190
   73CHL1    C2 7855   0.253   6.326   6.921 -0.0472  1.0039  0.5822
   73CHL1   H2A 7856   0.300   6.232   6.886 -0.0829  1.0624  0.3744
   73CHL1   H2B 7857   0.288   6.410   6.856  3.0568 -0.5210  0.1136
   73CHL1   C20 7858   0.527   6.610   7.782  0.2808 -0.3123 -0.4516
   73CHL1   H20 7859   0.519   6.719   7.761 -0.3833 -0.0241  1.1790
   73CHL1   C21 7860   0.668   6.570   7.735  0.2099 -0.2687 -0.2607
   73CHL1  H21A 7861   0.703   6.614   7.639  1.1527 -1.2297 -0.3822
   73CHL1  H21B 7862   0.667   6.461   7.713 -1.3417 -0.3730  0.2096
   73CHL1  H21C 7863   0.735   6.585   7.823 -0.2504 -2.7232  0.6061
   73CHL1   C22 7864   0.519   6.591   7.938  0.3974  0.2828 -0.0704
   73CHL1  H22A 7865   0.413   6.595   7.973 -0.7140 -2.8817 -2.6080
   73CHL1  H22B 7866   0.556   6.489   7.962  0.1542  0.5570  1.5750
   73CHL1   C23 7867   0.604   6.703   8.008 -0.5509  0.3362  0.2236
   73CHL1  H23A 7868   0.712   6.698   7.983 -0.8516  0.6990 -1.2607
   73CHL1  H23B 7869   0.561   6.799   7.972  0.2430  1.9988  3.3560
   73CHL1   C24 7870   0.586   6.688   8.158 -0.7395  0.4410  0.0776
   73CHL1  H24A 7871   0.479   6.671   8.184 -1.0648  2.6521  0.3731
   73CHL1  H24B 7872   0.653   6.609   8.198 -0.6325  1.1914  1.4477
   73CHL1   C25 7873   0.632   6.818   8.226  0.1621 -0.1292  0.8026
   73CHL1   H25 7874   0.582   6.901   8.170 -1.0158 -0.3300  1.5276
   73CHL1   C26 7875   0.588   6.814   8.379 -0.3954  0.1643 -0.7685
   73CHL1  H26A 7876   0.636   6.895   8.438  1.5062 -2.1526  1.0814
   73CHL1  H26B 7877   0.477   6.814   8.378 -0.4915 -0.6883  2.1538
   73CHL1  H26C 7878   0.621   6.722   8.432  1.3619  1.3515  0.3198
   73CHL1   C27 7879   0.781   6.831   8.226 -0.0769 -0.3936 -0.6072
   73CHL1  H27A 7880   0.827   6.817   8.126 -1.1064 -1.6465 -0.9427
   73CHL1  H27B 7881   0.820   6.923   8.273  0.8002 -1.0188 -0.0863
   73CHL1  H27C 7882   0.820   6.745   8.284  3.7366  1.3682 -0.2871
   74CHL1    C3 7883   3.093   3.206   6.780 -0.3355 -0.2185 -0.2894
   74CHL1    H3 7884   3.171   3.127   6.791  0.4713  0.7800  1.6691
   74CHL1    O3 7885   3.055   3.238   6.651 -0.2614 -0.2654  1.1020
   74CHL1   H3' 7886   3.108   3.313   6.625  1.5465 -2.0728 -0.8137
   74CHL1    C4 7887   2.971   3.145   6.850  0.7522  0.0028 -0.3097
   74CHL1   H4A 7888   2.890   3.221   6.854 -0.0704 -0.9128  1.0090
   74CHL1   H4B 7889   2.924   3.064   6.790 -0.2616 -0.7208  1.3835
   74CHL1    C5 7890   2.988   3.115   6.998  0.3402 -0.5857  0.3350
   74CHL1    C6 7891   2.957   2.997   7.040  0.5206  1.1647 -0.1316
   74CHL1    H6 7892   2.921   2.918   6.972  1.4906  1.6135 -1.2013
   74CHL1    C7 7893   2.958   2.952   7.184  0.3545 -0.2960 -0.1316
   74CHL1   H7A 7894   2.865   2.895   7.206  0.6249 -1.7071 -2.2953
   74CHL1   H7B 7895   3.037   2.876   7.201  0.8427 -0.0522 -1.2311
   74CHL1    C8 7896   2.981   3.078   7.274  0.3433  0.2108 -0.4624
   74CHL1    H8 7897   2.882   3.125   7.292  0.0122 -0.5135 -0.3523
   74CHL1   C14 7898   3.018   3.032   7.413  0.0264 -0.1957 -0.2853
   74CHL1   H14 7899   3.125   3.009   7.396  0.6610  1.3019  1.3952
   74CHL1   C15 7900   2.948   2.906   7.480 -0.0600 -0.2889  0.1159
   74CHL1  H15A 7901   2.838   2.916   7.475 -0.0704 -0.3191  0.2680
   74CHL1  H15B 7902   2.973   2.818   7.417  3.4083 -0.9144  2.0679
   74CHL1   C16 7903   3.010   2.909   7.619 -0.2091  0.3070  0.0244
   74CHL1  H16A 7904   2.918   2.908   7.681 -1.9668 -0.3546 -2.4609
   74CHL1  H16B 7905   3.070   2.822   7.653 -0.2343  0.8901  1.6942
   74CHL1   C17 7906   3.088   3.042   7.640 -0.3976  0.5665  0.1232
   74CHL1   H17 7907   3.196   3.038   7.615 -0.4416 -1.4778  0.0506
   74CHL1   C13 7908   3.046   3.134   7.529 -0.2393 -0.1980 -0.0167
   74CHL1   C18 7909   2.910   3.203   7.556  0.7405  0.4386 -0.1274
   74CHL1  H18A 7910   2.833   3.131   7.592  2.6123 -0.7855  1.6514
   74CHL1  H18B 7911   2.929   3.287   7.626  2.1324 -0.9710  1.2709
   74CHL1  H18C 7912   2.871   3.258   7.468 -4.4542 -0.9969  0.8995
   74CHL1   C12 7913   3.156   3.235   7.475  0.0309  0.1456  0.8173
   74CHL1  H12A 7914   3.163   3.314   7.552  1.7884  1.0819 -0.2461
   74CHL1  H12B 7915   3.259   3.195   7.470 -0.1137 -0.7225  3.3660
   74CHL1   C11 7916   3.108   3.284   7.339  1.0483 -0.2706 -0.0415
   74CHL1  H11A 7917   3.015   3.343   7.357  0.9691 -0.6821  0.9692
   74CHL1  H11B 7918   3.177   3.358   7.294  0.3636 -0.3640 -1.2843
   74CHL1    C9 7919   3.082   3.177   7.229 -0.4694 -0.0821  0.6533
   74CHL1    H9 7920   3.172   3.115   7.206 -1.1832 -0.6578 -0.6834
   74CHL1   C10 7921   3.039   3.237   7.083 -0.2650 -0.1006 -0.3504
   74CHL1   C19 7922   2.929   3.337   7.110  0.2214  0.2176 -0.4993
   74CHL1  H19A 7923   2.843   3.295   7.166  0.0939  0.8234 -0.2322
   74CHL1  H19B 7924   2.965   3.427   7.165 -0.4732  0.4023 -0.3434
   74CHL1  H19C 7925   2.902   3.386   7.014  3.5500  0.6439 -1.3575
   74CHL1    C1 7926   3.162   3.300   7.013  0.2440  0.8429  0.3689
   74CHL1   H1A 7927   3.198   3.388   7.070 -1.6755  0.4449  2.3595
   74CHL1   H1B 7928   3.247   3.229   7.017 -0.2913  0.2202  1.7157
   74CHL1    C2 7929   3.139   3.332   6.857 -0.0399  0.4534 -0.1559
   74CHL1   H2A 7930   3.234   3.369   6.812  1.0890 -1.3696  0.6308
   74CHL1   H2B 7931   3.060   3.409   6.844  0.2279  0.5863 -1.1338
   74CHL1   C20 7932   3.070   3.103   7.778  0.4225  0.3233 -0.7108
   74CHL1   H20 7933   2.980   3.169   7.776 -0.4043 -0.7924 -1.4647
   74CHL1   C21 7934   3.187   3.201   7.812 -0.5747  1.0816  0.1488
   74CHL1  H21A 7935   3.226   3.257   7.724  0.1033  1.0600  0.4275
   74CHL1  H21B 7936   3.268   3.133   7.845 -1.6310 -0.2771  0.0277
   74CHL1  H21C 7937   3.176   3.275   7.895 -0.6279 -1.4060  2.4875
   74CHL1   C22 7938   3.046   2.999   7.902  0.2195  0.1368 -0.2749
   74CHL1  H22A 7939   2.945   2.955   7.886  0.7304 -0.0038 -3.8928
   74CHL1  H22B 7940   3.119   2.916   7.901 -2.2446 -2.2166  1.4469
   74CHL1   C23 7941   3.051   3.067   8.044  0.5863 -0.2680  0.0047
   74CHL1  H23A 7942   3.149   3.113   8.069  0.9187 -1.1779  0.4266
   74CHL1  H23B 7943   2.975   3.146   8.025 -1.1885 -2.6000 -3.8320
   74CHL1   C24 7944   3.000   2.979   8.157 -0.1046 -0.6033 -0.0059
   74CHL1  H24A 7945   2.897   2.940   8.144 -0.3833 -1.2802  3.3175
   74CHL1  H24B 7946   3.062   2.887   8.149  0.8776 -0.0436  0.7889
   74CHL1   C25 7947   3.029   3.020   8.304 -0.1011 -0.6341  0.3533
   74CHL1   H25 7948   3.135   3.049   8.316  0.1452 -1.5053  0.3504
   74CHL1   C26 7949   2.953   3.144   8.356  0.2032  1.3593 -0.2665
   74CHL1  H26A 7950   2.844   3.127   8.371  0.7022 -0.4284  1.8479
   74CHL1  H26B 7951   3.008   3.183   8.444  0.7873 -0.0733  0.0283
   74CHL1  H26C 7952   2.963   3.222   8.277  2.6606  1.2546 -0.1268
   74CHL1   C27 7953   3.007   2.893   8.390  0.1565  0.8484 -0.6542
   74CHL1  H27A 7954   2.899   2.870   8.398  0.2933  0.7870  1.6938
   74CHL1  H27B 7955   3.073   2.808   8.362 -1.8138 -0.8287 -0.4518
   74CHL1  H27C 7956   3.035   2.910   8.496 -1.6165 -1.1322  0.2056
   75CHL1    C3 7957   3.858   5.085   6.861 -0.8322 -0.8254  0.0052
   75CHL1    H3 7958   3.798   5.175   6.889 -0.1604 -1.0309  2.3014
   75CHL1    O3 7959   3.901   5.104   6.728 -0.0402 -0.8455 -0.0080
   75CHL1   H3' 7960   3.948   5.023   6.710 -2.2828 -2.0149 -1.0222
   75CHL1    C4 7961   3.980   5.069   6.944  0.0214 -0.2530  0.3496
   75CHL1   H4A 7962   4.037   4.986   6.897  2.8789  2.1947 -0.8217
   75CHL1   H4B 7963   4.046   5.156   6.924  0.9637 -0.7188  1.3273
   75CHL1    C5 7964   3.955   5.056   7.089  0.8038  0.2161 -0.3269
   75CHL1    C6 7965   3.990   5.148   7.180  0.5247  0.0783 -0.6918
   75CHL1    H6 7966   4.055   5.232   7.152  1.6546 -0.5346  0.0212
   75CHL1    C7 7967   3.951   5.149   7.326  0.0275 -0.3524  0.0889
   75CHL1   H7A 7968   4.040   5.159   7.391  0.4183 -2.9340  0.0642
   75CHL1   H7B 7969   3.871   5.226   7.336 -0.8133 -1.3076  0.9765
   75CHL1    C8 7970   3.892   5.014   7.368 -0.9450 -0.6054 -0.3568
   75CHL1    H8 7971   3.982   4.950   7.376 -1.0581 -1.0851 -2.4580
   75CHL1   C14 7972   3.829   5.025   7.506  0.4019 -0.6577 -0.0960
   75CHL1   H14 7973   3.749   5.100   7.489  0.5805 -0.0842  1.4260
   75CHL1   C15 7974   3.902   5.092   7.625  0.6060  0.4553  0.3922
   75CHL1  H15A 7975   4.003   5.046   7.632  1.2173  1.5590 -0.8824
   75CHL1  H15B 7976   3.914   5.200   7.605 -1.2641  0.6043 -0.0653
   75CHL1   C16 7977   3.814   5.057   7.748 -0.6063  0.6435 -0.4190
   75CHL1  H16A 7978   3.886   5.007   7.816  0.7862  1.3374 -1.3308
   75CHL1  H16B 7979   3.773   5.143   7.805  0.1179  2.5090 -2.5616
   75CHL1   C17 7980   3.708   4.949   7.706  0.9196 -0.2079 -0.5568
   75CHL1   H17 7981   3.617   5.011   7.689  1.6882  1.7126  1.7691
   75CHL1   C13 7982   3.757   4.899   7.562 -0.6894 -0.6819  0.1687
   75CHL1   C18 7983   3.864   4.792   7.598 -0.2725  0.1836  0.2254
   75CHL1  H18A 7984   3.821   4.696   7.634 -0.3460  0.3618  0.6177
   75CHL1  H18B 7985   3.912   4.761   7.503 -2.4235 -3.3135  0.0999
   75CHL1  H18C 7986   3.941   4.836   7.665  1.2328  1.3563 -2.1457
   75CHL1   C12 7987   3.651   4.849   7.458  0.1611  0.4520  0.5264
   75CHL1  H12A 7988   3.603   4.754   7.488  0.7976  0.0988  0.4446
   75CHL1  H12B 7989   3.574   4.929   7.452 -2.2347 -1.8063 -1.0066
   75CHL1   C11 7990   3.720   4.828   7.318  0.4412  0.2087 -0.3235
   75CHL1  H11A 7991   3.776   4.733   7.323  1.4854  0.5907 -3.0429
   75CHL1  H11B 7992   3.643   4.811   7.240 -0.3758  1.9680  0.0407
   75CHL1    C9 7993   3.792   4.953   7.270  0.4429 -0.2399  0.6444
   75CHL1    H9 7994   3.722   5.039   7.257  0.7431 -0.1213 -0.2479
   75CHL1   C10 7995   3.857   4.937   7.122  0.5389  1.1633 -0.9038
   75CHL1   C19 7996   3.935   4.801   7.110  0.0246  0.2431  0.5392
   75CHL1  H19A 7997   3.999   4.772   7.195 -1.1645 -1.7531  0.8178
   75CHL1  H19B 7998   3.856   4.722   7.102  0.8465 -0.5240 -0.2709
   75CHL1  H19C 7999   3.985   4.800   7.011  0.7506 -0.3089  0.9064
   75CHL1    C1 8000   3.736   4.935   7.016  0.3616 -0.3784  0.1926
   75CHL1   H1A 8001   3.688   4.837   7.036  0.1082 -0.1400  0.7881
   75CHL1   H1B 8002   3.650   4.999   7.047  0.9654 -0.4138  2.1019
   75CHL1    C2 8003   3.772   4.957   6.871 -0.0811  0.0856  0.3023
   75CHL1   H2A 8004   3.677   4.959   6.814  0.0761  1.1375  0.0450
   75CHL1   H2B 8005   3.825   4.868   6.832 -1.1048 -0.8652  1.0184
   75CHL1   C20 8006   3.687   4.848   7.823 -0.7204  0.0266 -0.4515
   75CHL1   H20 8007   3.781   4.790   7.834  1.4211  3.0653 -1.3673
   75CHL1   C21 8008   3.559   4.763   7.789 -0.5493 -0.4545  0.1886
   75CHL1  H21A 8009   3.551   4.712   7.690 -0.8305 -0.1524  0.0514
   75CHL1  H21B 8010   3.460   4.813   7.793 -1.6004 -2.1082 -2.4174
   75CHL1  H21C 8011   3.559   4.690   7.873  1.1531  2.2657  2.7404
   75CHL1   C22 8012   3.654   4.930   7.955 -0.4878  0.3261  0.0049
   75CHL1  H22A 8013   3.734   4.996   7.994  0.0985 -0.7700  0.6759
   75CHL1  H22B 8014   3.568   5.001   7.949 -0.8512 -0.0199  0.8757
   75CHL1   C23 8015   3.616   4.843   8.073  0.4711  0.3293 -1.0123
   75CHL1  H23A 8016   3.516   4.799   8.055  0.9958 -1.4353  0.1085
   75CHL1  H23B 8017   3.684   4.755   8.084  1.2850  1.0887  0.3263
   75CHL1   C24 8018   3.613   4.914   8.208  0.2917 -0.4354  0.6960
   75CHL1  H24A 8019   3.705   4.975   8.223  0.9378 -0.9376 -0.9401
   75CHL1  H24B 8020   3.532   4.990   8.209  0.5543 -0.1624  1.9463
   75CHL1   C25 8021   3.608   4.829   8.335  0.0081 -0.4872  0.6713
   75CHL1   H25 8022   3.523   4.758   8.343 -0.5344  0.3805  3.6028
   75CHL1   C26 8023   3.731   4.743   8.369 -0.1338  0.2107  0.2939
   75CHL1  H26A 8024   3.735   4.658   8.297 -1.6962  0.8086 -0.5395
   75CHL1  H26B 8025   3.821   4.807   8.380 -0.9528  1.0999  2.3485
   75CHL1  H26C 8026   3.731   4.693   8.468 -1.9353 -0.4786 -0.0167
   75CHL1   C27 8027   3.589   4.924   8.450 -0.6283 -0.6538 -0.1473
   75CHL1  H27A 8028   3.680   4.985   8.467  0.5799 -1.3391 -3.4426
   75CHL1  H27B 8029   3.498   4.987   8.449 -0.5487 -0.4713  1.4159
   75CHL1  H27C 8030   3.582   4.873   8.549  0.8729 -0.3026  0.1543
   76CHL1    C3 8031   5.742   6.578   7.375  0.5152  0.4902 -0.0689
   76CHL1    H3 8032   5.846   6.551   7.402  0.2233 -0.6718 -0.0547
   76CHL1    O3 8033   5.724   6.558   7.234  0.0378 -0.2100 -0.3822
   76CHL1   H3' 8034   5.639   6.598   7.214  0.9938  1.7742 -0.6892
   76CHL1    C4 8035   5.651   6.472   7.448  0.1803 -1.1937  0.3686
   76CHL1   H4A 8036   5.550   6.480   7.403  1.1517 -1.2254 -1.9307
   76CHL1   H4B 8037   5.689   6.371   7.419 -2.4640 -1.9407 -0.7372
   76CHL1    C5 8038   5.649   6.491   7.594  0.7572 -0.4958 -0.1831
   76CHL1    C6 8039   5.680   6.389   7.674  0.0781 -0.9640  0.1763
   76CHL1    H6 8040   5.705   6.288   7.637 -0.9045 -0.7452 -1.1254
   76CHL1    C7 8041   5.668   6.399   7.829 -0.0923 -1.0640  0.6073
   76CHL1   H7A 8042   5.644   6.301   7.875  0.5093 -1.9183 -0.8162
   76CHL1   H7B 8043   5.770   6.427   7.864 -0.4037 -0.6670  1.2148
   76CHL1    C8 8044   5.582   6.524   7.870  0.4267  0.5109 -0.0252
   76CHL1    H8 8045   5.476   6.500   7.844  0.3987 -0.0032  0.5524
   76CHL1   C14 8046   5.597   6.546   8.020  0.0511 -0.4823  0.0804
   76CHL1   H14 8047   5.706   6.565   8.032 -0.3560  1.7956  0.7020
   76CHL1   C15 8048   5.565   6.428   8.114  0.9856 -0.1565 -0.3087
   76CHL1  H15A 8049   5.466   6.390   8.081  1.4621 -0.7759 -1.0585
   76CHL1  H15B 8050   5.641   6.347   8.117  0.3012 -0.8011  0.1716
   76CHL1   C16 8051   5.537   6.501   8.250  0.9045 -0.2037  0.4322
   76CHL1  H16A 8052   5.433   6.481   8.282  0.3304  1.1757 -0.4794
   76CHL1  H16B 8053   5.619   6.482   8.323  0.0810 -1.1170  1.1394
   76CHL1   C17 8054   5.546   6.655   8.229 -0.4998 -0.4443  0.6666
   76CHL1   H17 8055   5.652   6.682   8.251 -0.7843 -0.1646  1.7472
   76CHL1   C13 8056   5.528   6.671   8.075  0.4416  0.1574  0.1859
   76CHL1   C18 8057   5.378   6.662   8.041 -0.0844 -0.3120  0.3639
   76CHL1  H18A 8058   5.356   6.677   7.933 -2.1956 -0.3799  0.7348
   76CHL1  H18B 8059   5.332   6.565   8.071 -0.6128  0.2525  1.4552
   76CHL1  H18C 8060   5.323   6.748   8.086 -0.9054 -0.6109 -0.0448
   76CHL1   C12 8061   5.591   6.800   8.014 -0.2689  0.5494  0.4453
   76CHL1  H12A 8062   5.527   6.883   8.052 -0.8865  0.6122 -0.6807
   76CHL1  H12B 8063   5.694   6.814   8.054 -0.5806  0.4508  1.3146
   76CHL1   C11 8064   5.587   6.790   7.858 -0.0524 -0.5133 -0.8970
   76CHL1  H11A 8065   5.480   6.811   7.837 -0.3971  0.3387  1.3858
   76CHL1  H11B 8066   5.651   6.875   7.827  1.5325 -1.6617 -0.8991
   76CHL1    C9 8067   5.632   6.652   7.793  0.1613 -0.8804  0.4151
   76CHL1    H9 8068   5.742   6.654   7.808 -0.0304  0.2750  1.9297
   76CHL1   C10 8069   5.612   6.636   7.641  0.0646 -0.3566 -0.1393
   76CHL1   C19 8070   5.465   6.682   7.610  0.3937  0.9558 -0.2591
   76CHL1  H19A 8071   5.447   6.791   7.617  0.0248  1.1004 -2.7636
   76CHL1  H19B 8072   5.443   6.646   7.507  0.0619  0.7091 -0.1048
   76CHL1  H19C 8073   5.390   6.635   7.678  0.3523  0.0756 -0.8932
   76CHL1    C1 8074   5.701   6.733   7.563 -0.1028 -0.0350 -0.0715
   76CHL1   H1A 8075   5.675   6.838   7.589  0.6391  0.2275 -0.3726
   76CHL1   H1B 8076   5.801   6.712   7.606  0.3570 -1.2699 -1.6596
   76CHL1    C2 8077   5.700   6.718   7.409  0.4627  0.1488  0.2471
   76CHL1   H2A 8078   5.775   6.781   7.357  0.5901 -0.4868 -0.3465
   76CHL1   H2B 8079   5.595   6.731   7.375 -1.2881 -1.1990  4.3869
   76CHL1   C20 8080   5.469   6.748   8.330 -0.0184  0.4092  0.6749
   76CHL1   H20 8081   5.370   6.752   8.280  0.8768  1.0823 -1.1818
   76CHL1   C21 8082   5.539   6.891   8.328  0.1272 -0.4223  0.0066
   76CHL1  H21A 8083   5.648   6.873   8.335  0.1389 -0.6655 -0.6670
   76CHL1  H21B 8084   5.510   6.948   8.419  0.0918  0.8526 -0.7634
   76CHL1  H21C 8085   5.504   6.949   8.239  0.8626  1.1741  0.7152
   76CHL1   C22 8086   5.460   6.703   8.480  0.2225 -0.6723  0.2393
   76CHL1  H22A 8087   5.415   6.602   8.491 -1.5004 -0.2078 -1.9520
   76CHL1  H22B 8088   5.558   6.705   8.533 -1.1949  0.1736  3.0440
   76CHL1   C23 8089   5.364   6.796   8.569 -0.1186 -0.2638  0.2045
   76CHL1  H23A 8090   5.423   6.881   8.609  1.3523 -0.9526 -0.4030
   76CHL1  H23B 8091   5.277   6.827   8.508  0.4620  1.6708  0.3119
   76CHL1   C24 8092   5.307   6.716   8.681  0.1970 -0.3782 -0.1165
   76CHL1  H24A 8093   5.237   6.634   8.652  1.6561 -1.5728 -0.4467
   76CHL1  H24B 8094   5.395   6.672   8.733 -0.8882 -1.9010  0.5168
   76CHL1   C25 8095   5.236   6.809   8.785 -0.3876  0.3263 -0.2365
   76CHL1   H25 8096   5.316   6.878   8.822 -0.2016 -1.0965  2.2267
   76CHL1   C26 8097   5.124   6.895   8.715  0.5233 -0.2412 -0.3362
   76CHL1  H26A 8098   5.158   6.936   8.618  2.3191 -1.4753 -0.2878
   76CHL1  H26B 8099   5.031   6.835   8.709 -0.0990  0.7659 -1.0196
   76CHL1  H26C 8100   5.096   6.984   8.775  0.0007 -1.1196  0.7643
   76CHL1   C27 8101   5.183   6.726   8.900  0.6647  0.4146  0.1139
   76CHL1  H27A 8102   5.084   6.685   8.873 -0.0949  2.7662 -0.9185
   76CHL1  H27B 8103   5.244   6.636   8.923 -1.4860 -0.9099  0.9062
   76CHL1  H27C 8104   5.164   6.789   8.990  2.3377 -2.6127  2.7816
   77CHL1    C3 8105   0.889   5.611   6.731  1.1754 -0.0799  0.2805
   77CHL1    H3 8106   0.837   5.703   6.766  2.3811 -0.0653  2.1337
   77CHL1    O3 8107   0.853   5.576   6.598  0.3109  0.2593  0.1411
   77CHL1   H3' 8108   0.898   5.495   6.572 -0.6217 -0.1400 -0.2704
   77CHL1    C4 8109   1.038   5.629   6.756  0.8493 -0.5869  0.1491
   77CHL1   H4A 8110   1.088   5.541   6.712 -0.2560 -1.7028  1.0378
   77CHL1   H4B 8111   1.076   5.716   6.699  0.8946 -1.0062 -0.4649
   77CHL1    C5 8112   1.073   5.634   6.897  0.0334  0.1668  0.0242
   77CHL1    C6 8113   1.145   5.737   6.943  0.4318  0.9168 -0.2977
   77CHL1    H6 8114   1.177   5.810   6.868  1.1447  0.8823 -0.0276
   77CHL1    C7 8115   1.177   5.757   7.087  0.3004  0.3372 -0.1532
   77CHL1   H7A 8116   1.279   5.800   7.098  1.3566 -0.9300 -3.7920
   77CHL1   H7B 8117   1.105   5.831   7.128 -1.9567 -1.2534 -1.0564
   77CHL1    C8 8118   1.170   5.628   7.178  0.5648 -0.1602 -0.1401
   77CHL1    H8 8119   1.252   5.562   7.141  0.4239 -1.0496  1.0720
   77CHL1   C14 8120   1.170   5.662   7.328 -0.4951  0.2298  0.0988
   77CHL1   H14 8121   1.073   5.713   7.346 -0.0030  0.6824  1.6016
   77CHL1   C15 8122   1.271   5.764   7.380 -0.0314  0.5229 -0.0431
   77CHL1  H15A 8123   1.371   5.750   7.334  0.3210  0.8495  0.6098
   77CHL1  H15B 8124   1.236   5.867   7.356 -2.1386  0.1346  1.0914
   77CHL1   C16 8125   1.279   5.745   7.531 -0.0431  0.0609  0.6321
   77CHL1  H16A 8126   1.384   5.738   7.566  0.0298  0.1870  0.4429
   77CHL1  H16B 8127   1.234   5.823   7.596 -1.8994  0.6242 -1.2178
   77CHL1   C17 8128   1.195   5.614   7.558 -0.1040  0.1186  0.4680
   77CHL1   H17 8129   1.095   5.632   7.602  0.7976 -0.2721  2.7925
   77CHL1   C13 8130   1.174   5.548   7.419  0.1810  0.0194 -0.1230
   77CHL1   C18 8131   1.303   5.466   7.382 -0.2490 -0.2987  0.2131
   77CHL1  H18A 8132   1.385   5.524   7.428  0.0693 -2.2040  2.2079
   77CHL1  H18B 8133   1.297   5.371   7.439  0.0163 -0.6851 -0.3876
   77CHL1  H18C 8134   1.326   5.438   7.277  0.2310 -0.0620  0.2568
   77CHL1   C12 8135   1.044   5.472   7.402 -0.6719  0.0215 -0.1646
   77CHL1  H12A 8136   1.050   5.375   7.455 -0.8284  0.3274  0.4266
   77CHL1  H12B 8137   0.963   5.537   7.442 -0.6096  1.0640 -1.6537
   77CHL1   C11 8138   1.013   5.437   7.256  0.5918  0.4007  0.2467
   77CHL1  H11A 8139   1.087   5.360   7.225 -1.9554 -1.5300 -1.5129
   77CHL1  H11B 8140   0.915   5.386   7.245  1.3596 -0.8050 -1.5953
   77CHL1    C9 8141   1.033   5.554   7.147 -0.9654  0.2694 -0.5791
   77CHL1    H9 8142   0.950   5.626   7.166 -0.9196  0.2600 -0.3442
   77CHL1   C10 8143   1.018   5.519   6.992  0.1143 -0.7387  0.7136
   77CHL1   C19 8144   1.089   5.383   6.964 -0.2737 -0.5660 -0.2765
   77CHL1  H19A 8145   1.199   5.386   6.981 -0.5168  2.3585  1.4633
   77CHL1  H19B 8146   1.036   5.310   7.030  1.4772 -0.6330  1.1214
   77CHL1  H19C 8147   1.070   5.362   6.856  2.0082 -0.3767 -0.7569
   77CHL1    C1 8148   0.872   5.498   6.960  0.8095 -0.0985  0.6864
   77CHL1   H1A 8149   0.829   5.403   7.000 -2.8205  0.5624 -1.2035
   77CHL1   H1B 8150   0.814   5.583   7.002  0.5948 -0.7979  1.8804
   77CHL1    C2 8151   0.833   5.491   6.814 -0.8033  0.7872 -0.4336
   77CHL1   H2A 8152   0.725   5.505   6.797 -1.0932  0.9410  1.3411
   77CHL1   H2B 8153   0.871   5.393   6.778 -2.2620 -0.8458  2.2240
   77CHL1   C20 8154   1.258   5.531   7.667 -0.3234 -0.6790 -0.6434
   77CHL1   H20 8155   1.362   5.501   7.641  0.0138  0.3020 -0.4726
   77CHL1   C21 8156   1.180   5.397   7.703  0.2528  0.4468  0.6662
   77CHL1  H21A 8157   1.076   5.426   7.730  0.2519 -0.2089  1.4063
   77CHL1  H21B 8158   1.222   5.358   7.798 -0.6726  0.2333  1.0013
   77CHL1  H21C 8159   1.188   5.327   7.618  1.2876  0.8691  0.4025
   77CHL1   C22 8160   1.267   5.621   7.794 -0.8113 -0.1070  0.6856
   77CHL1  H22A 8161   1.317   5.562   7.874  2.5596  2.4753  0.6883
   77CHL1  H22B 8162   1.351   5.690   7.771 -0.1154 -0.9870  0.4909
   77CHL1   C23 8163   1.144   5.698   7.846  0.3218  0.5685  0.3721
   77CHL1  H23A 8164   1.097   5.757   7.764  0.6436  0.2120 -0.0757
   77CHL1  H23B 8165   1.075   5.618   7.878  1.5652 -0.7823 -0.2338
   77CHL1   C24 8166   1.156   5.797   7.965 -0.6950 -0.2039 -0.8334
   77CHL1  H24A 8167   1.209   5.885   7.922 -1.1923  0.6557  0.2563
   77CHL1  H24B 8168   1.060   5.823   8.015 -0.1732 -2.5129  1.6184
   77CHL1   C25 8169   1.252   5.740   8.080  0.5302 -0.5342 -0.3695
   77CHL1   H25 8170   1.349   5.719   8.030  1.2034  1.7249 -0.1319
   77CHL1   C26 8171   1.270   5.850   8.193  0.2434  0.4575 -0.0606
   77CHL1  H26A 8172   1.357   5.830   8.258 -0.2932  2.9430  1.5876
   77CHL1  H26B 8173   1.286   5.948   8.143  1.8398  1.1392  1.6792
   77CHL1  H26C 8174   1.173   5.851   8.247 -1.5333 -3.4980 -2.6887
   77CHL1   C27 8175   1.197   5.606   8.133  0.1516  0.0413 -0.5019
   77CHL1  H27A 8176   1.259   5.588   8.224 -0.5368  0.2906  0.0255
   77CHL1  H27B 8177   1.089   5.617   8.153 -0.2438 -1.9649 -1.3883
   77CHL1  H27C 8178   1.210   5.520   8.064 -1.7544 -0.5443 -0.1749
   78CHL1    C3 8179   1.912   0.213   6.707  0.0873 -0.3478  0.1037
   78CHL1    H3 8180   1.839   0.135   6.739 -0.1071 -0.6127 -0.9450
   78CHL1    O3 8181   1.964   0.184   6.580 -0.4326 -0.0322  0.4362
   78CHL1   H3' 8182   2.031   0.251   6.562 -1.3615  0.6664 -0.5142
   78CHL1    C4 8183   1.843   0.357   6.700  0.0631 -0.3381  1.0650
   78CHL1   H4A 8184   1.922   0.417   6.650  0.9116 -1.5031  0.9634
   78CHL1   H4B 8185   1.761   0.364   6.626  0.1665  2.8668  1.1223
   78CHL1    C5 8186   1.799   0.400   6.838 -0.2893  0.2503 -0.9362
   78CHL1    C6 8187   1.675   0.422   6.857 -0.1249 -0.1324 -0.3074
   78CHL1    H6 8188   1.605   0.411   6.773 -0.7066 -2.0615  0.3838
   78CHL1    C7 8189   1.623   0.454   6.994 -0.5234  0.2254 -0.2067
   78CHL1   H7A 8190   1.560   0.545   7.002 -0.6301  0.1295  0.0756
   78CHL1   H7B 8191   1.569   0.370   7.042  1.2938 -0.3294  0.9867
   78CHL1    C8 8192   1.730   0.491   7.098  0.1807  0.1065  0.1114
   78CHL1    H8 8193   1.773   0.591   7.075 -1.5673  0.6431 -0.9921
   78CHL1   C14 8194   1.668   0.488   7.237 -0.4076  0.4590  0.1011
   78CHL1   H14 8195   1.641   0.381   7.252 -1.3467  0.6070 -0.4077
   78CHL1   C15 8196   1.528   0.555   7.264 -0.3169 -0.4846 -0.1400
   78CHL1  H15A 8197   1.534   0.650   7.208  1.8013  0.3289  1.3652
   78CHL1  H15B 8198   1.443   0.489   7.236  1.6186 -3.2165 -0.0398
   78CHL1   C16 8199   1.536   0.579   7.414 -0.2689  0.2222  0.2096
   78CHL1  H16A 8200   1.531   0.690   7.424  2.6287  0.5567 -0.9041
   78CHL1  H16B 8201   1.456   0.524   7.468  0.3706  0.2428  1.1998
   78CHL1   C17 8202   1.670   0.519   7.466 -0.2776 -0.7375 -0.8588
   78CHL1   H17 8203   1.651   0.411   7.484  1.1684 -0.6730  1.3674
   78CHL1   C13 8204   1.766   0.523   7.352  0.1372 -0.4259  0.2514
   78CHL1   C18 8205   1.813   0.668   7.327 -0.5012 -0.1169  0.0423
   78CHL1  H18A 8206   1.742   0.753   7.341  0.6231  0.4926  2.7661
   78CHL1  H18B 8207   1.901   0.702   7.387 -0.8847  0.8525  0.0747
   78CHL1  H18C 8208   1.851   0.682   7.224 -1.8169  1.2127 -0.2989
   78CHL1   C12 8209   1.885   0.421   7.346 -0.3501 -0.2838  0.2536
   78CHL1  H12A 8210   1.957   0.440   7.428 -2.4293 -1.4342  2.4794
   78CHL1  H12B 8211   1.846   0.321   7.376  3.6269 -2.2576 -0.4597
   78CHL1   C11 8212   1.946   0.413   7.206  1.0134 -0.0947  0.3109
   78CHL1  H11A 8213   2.026   0.487   7.188  1.3663 -0.5288  0.0499
   78CHL1  H11B 8214   2.010   0.322   7.212  0.2674 -0.8608 -2.1569
   78CHL1    C9 8215   1.843   0.390   7.090  0.6106  0.2828  0.3931
   78CHL1    H9 8216   1.802   0.287   7.104  0.8053  0.1127 -0.2460
   78CHL1   C10 8217   1.905   0.385   6.948  0.6007 -0.7250 -0.9557
   78CHL1   C19 8218   1.987   0.510   6.927  0.6235  0.7459  0.3574
   78CHL1  H19A 8219   2.034   0.493   6.828 -0.7346 -3.4536  0.2489
   78CHL1  H19B 8220   1.931   0.606   6.930  1.3273  1.2069 -0.6811
   78CHL1  H19C 8221   2.067   0.524   7.004 -0.5851  0.0930  1.7828
   78CHL1    C1 8222   1.998   0.263   6.938 -0.1040  0.0533 -0.5123
   78CHL1   H1A 8223   2.086   0.259   7.006 -0.1424  3.0219 -0.1561
   78CHL1   H1B 8224   1.930   0.184   6.976 -0.6337  0.8857  0.3152
   78CHL1    C2 8225   2.035   0.221   6.795 -0.5475  0.1551  0.6648
   78CHL1   H2A 8226   2.099   0.131   6.792  1.4767  1.3777  3.2791
   78CHL1   H2B 8227   2.108   0.295   6.757 -2.7749  1.8694 -0.4862
   78CHL1   C20 8228   1.708   0.580   7.599  0.1860  0.3066  0.1134
   78CHL1   H20 8229   1.737   0.687   7.586  1.5702  0.1013  1.2271
   78CHL1   C21 8230   1.829   0.514   7.666  0.0259  0.0244 -0.5417
   78CHL1  H21A 8231   1.844   0.568   7.761 -0.4601 -0.4437 -0.1945
   78CHL1  H21B 8232   1.922   0.531   7.608  0.5019  1.5186  0.6104
   78CHL1  H21C 8233   1.808   0.407   7.687  0.7256  0.3100  1.8297
   78CHL1   C22 8234   1.591   0.582   7.701  0.1784 -1.0140 -0.3712
   78CHL1  H22A 8235   1.519   0.652   7.654 -0.2700  1.2867  3.3551
   78CHL1  H22B 8236   1.549   0.480   7.717  1.3191 -1.3205  0.8414
   78CHL1   C23 8237   1.620   0.653   7.835 -0.2372  0.0130 -0.5363
   78CHL1  H23A 8238   1.690   0.583   7.885 -0.3577  0.1515 -0.1762
   78CHL1  H23B 8239   1.666   0.754   7.829  2.2956 -1.0596 -0.6976
   78CHL1   C24 8240   1.485   0.663   7.919 -0.3357 -0.0124  0.1528
   78CHL1  H24A 8241   1.440   0.751   7.869  1.3829  1.2195  0.6780
   78CHL1  H24B 8242   1.420   0.573   7.909  1.1167 -0.9355 -1.8081
   78CHL1   C25 8243   1.509   0.703   8.068 -0.0334  0.1640 -0.1908
   78CHL1   H25 8244   1.568   0.614   8.098 -0.3573 -0.5077 -1.4995
   78CHL1   C26 8245   1.602   0.825   8.086 -0.3180  0.3100  0.8531
   78CHL1  H26A 8246   1.600   0.853   8.194 -1.1209  0.0814  0.9056
   78CHL1  H26B 8247   1.708   0.800   8.061 -0.2602 -1.2784  2.4585
   78CHL1  H26C 8248   1.572   0.912   8.023  1.1941  0.0181 -0.3296
   78CHL1   C27 8249   1.381   0.704   8.146  0.5171 -0.6129 -0.3313
   78CHL1  H27A 8250   1.330   0.606   8.132 -0.7122  0.1233 -1.1962
   78CHL1  H27B 8251   1.414   0.718   8.251 -0.7002 -0.8142  0.0984
   78CHL1  H27C 8252   1.308   0.782   8.114  0.4931 -0.5026 -0.0121
   79CHL1    C3 8253   6.458   0.428   7.140  0.0989  0.1091 -0.0773
   79CHL1    H3 8254   6.410   0.329   7.146 -0.3937  0.4204  1.2899
   79CHL1    O3 8255   6.489   0.468   7.002 -0.0086  0.2068  1.1303
   79CHL1   H3' 8256   6.519   0.558   7.014 -0.1261  0.2335  1.2195
   79CHL1    C4 8257   6.373   0.543   7.220 -0.3585  0.0672  0.1933
   79CHL1   H4A 8258   6.420   0.642   7.200 -0.5480 -0.1090 -1.2124
   79CHL1   H4B 8259   6.275   0.543   7.166  0.1389 -1.1553 -0.7588
   79CHL1    C5 8260   6.359   0.535   7.371  0.5509  0.0377  0.4930
   79CHL1    C6 8261   6.242   0.545   7.432 -0.6729  0.1119 -0.2422
   79CHL1    H6 8262   6.149   0.563   7.376 -2.8563 -1.6373  2.5009
   79CHL1    C7 8263   6.215   0.529   7.581  0.0031 -0.1288  0.3846
   79CHL1   H7A 8264   6.171   0.624   7.618  1.5610  1.5870 -1.8582
   79CHL1   H7B 8265   6.146   0.447   7.610 -1.3460  1.1669  0.9867
   79CHL1    C8 8266   6.353   0.510   7.654  0.2793  0.1652 -0.4408
   79CHL1    H8 8267   6.388   0.615   7.661  0.9490 -0.1464  1.1781
   79CHL1   C14 8268   6.322   0.469   7.798  0.0167 -0.3642 -0.2223
   79CHL1   H14 8269   6.285   0.364   7.791  0.2998 -0.6038  1.4112
   79CHL1   C15 8270   6.218   0.553   7.883 -0.4561 -0.2348  1.1002
   79CHL1  H15A 8271   6.227   0.663   7.872 -1.2922 -0.1243  1.3960
   79CHL1  H15B 8272   6.112   0.529   7.858 -0.2070 -0.7973  0.5589
   79CHL1   C16 8273   6.244   0.507   8.024 -0.7593  0.0228 -0.6528
   79CHL1  H16A 8274   6.284   0.587   8.090  1.1632 -2.9190  2.0622
   79CHL1  H16B 8275   6.157   0.462   8.076 -0.7965  0.4074 -0.3700
   79CHL1   C17 8276   6.378   0.417   8.019 -0.0607  0.6241  0.8812
   79CHL1   H17 8277   6.344   0.311   8.017 -0.2814  0.6895  1.1508
   79CHL1   C13 8278   6.441   0.459   7.888 -0.3262 -1.2999 -0.6322
   79CHL1   C18 8279   6.503   0.595   7.913  0.0915 -0.2023  0.5837
   79CHL1  H18A 8280   6.441   0.659   7.978  2.7562 -1.2802  4.5402
   79CHL1  H18B 8281   6.592   0.585   7.979  1.1054 -0.1755 -0.7117
   79CHL1  H18C 8282   6.536   0.642   7.817  0.3202 -0.8639  0.3276
   79CHL1   C12 8283   6.541   0.363   7.820  0.3754 -0.0935 -0.1049
   79CHL1  H12A 8284   6.629   0.369   7.888 -0.6444  0.2387  1.2077
   79CHL1  H12B 8285   6.487   0.266   7.827 -1.3441  0.9350  2.0098
   79CHL1   C11 8286   6.581   0.411   7.681 -0.7567  0.2973 -0.2649
   79CHL1  H11A 8287   6.644   0.503   7.684 -2.2216  1.4016 -1.5314
   79CHL1  H11B 8288   6.647   0.330   7.643 -0.1144 -0.2001  1.7882
   79CHL1    C9 8289   6.458   0.422   7.584  0.4257 -0.2153  0.8199
   79CHL1    H9 8290   6.403   0.326   7.572  1.4796 -1.1028  2.6011
   79CHL1   C10 8291   6.488   0.485   7.443 -0.4161 -0.2784  0.1384
   79CHL1   C19 8292   6.563   0.619   7.449 -0.4507 -0.9820  0.3029
   79CHL1  H19A 8293   6.588   0.665   7.351  0.1443 -2.5051 -0.2874
   79CHL1  H19B 8294   6.517   0.697   7.514  1.1819 -0.0045  0.3685
   79CHL1  H19C 8295   6.661   0.599   7.499 -0.0084  2.0178  0.8681
   79CHL1    C1 8296   6.564   0.375   7.372 -0.3041  0.2426  0.6139
   79CHL1   H1A 8297   6.658   0.364   7.430 -1.2096  0.1693  2.1150
   79CHL1   H1B 8298   6.520   0.273   7.384 -1.7828  0.3803 -2.6109
   79CHL1    C2 8299   6.593   0.408   7.221  0.2908 -0.2847  0.3678
   79CHL1   H2A 8300   6.660   0.330   7.178 -0.0655  0.8594 -2.4401
   79CHL1   H2B 8301   6.643   0.507   7.211 -1.0579  0.2303 -2.1930
   79CHL1   C20 8302   6.463   0.417   8.148 -0.7169  0.0549 -0.1132
   79CHL1   H20 8303   6.522   0.511   8.150  0.5221 -0.6101 -2.3369
   79CHL1   C21 8304   6.558   0.296   8.159  0.7174 -1.1159  0.4374
   79CHL1  H21A 8305   6.656   0.321   8.113  0.6667 -2.4619 -0.4796
   79CHL1  H21B 8306   6.516   0.196   8.133 -1.4344  0.0146 -0.7735
   79CHL1  H21C 8307   6.577   0.295   8.269  0.5405  1.3927  0.5352
   79CHL1   C22 8308   6.366   0.424   8.276 -0.8607 -0.6009  0.1442
   79CHL1  H22A 8309   6.280   0.492   8.258 -1.3710 -1.1025  0.6677
   79CHL1  H22B 8310   6.330   0.321   8.295 -0.9686 -0.4254  0.9002
   79CHL1   C23 8311   6.438   0.476   8.411 -0.0054 -0.2856  0.1653
   79CHL1  H23A 8312   6.501   0.394   8.451  1.3757  0.5489 -0.2129
   79CHL1  H23B 8313   6.510   0.560   8.397  0.2741 -0.7358 -1.1435
   79CHL1   C24 8314   6.345   0.517   8.526 -0.5844 -0.7478  0.0863
   79CHL1  H24A 8315   6.400   0.564   8.610  1.1528 -0.1901 -1.3025
   79CHL1  H24B 8316   6.285   0.605   8.493  1.3387  1.0317  1.1331
   79CHL1   C25 8317   6.250   0.406   8.589 -0.1237 -0.1257  0.7797
   79CHL1   H25 8318   6.192   0.362   8.506  2.0809 -0.1669 -0.8491
   79CHL1   C26 8319   6.327   0.296   8.659  0.2555  0.3947  0.6728
   79CHL1  H26A 8320   6.401   0.244   8.594  0.8498  0.6391  1.1484
   79CHL1  H26B 8321   6.391   0.328   8.743  0.8416  0.4887  0.1967
   79CHL1  H26C 8322   6.263   0.213   8.696  0.8853 -1.0085 -1.1959
   79CHL1   C27 8323   6.154   0.457   8.690  0.6832 -0.1527  0.4659
   79CHL1  H27A 8324   6.202   0.508   8.777 -0.6076  1.3741  0.3315
   79CHL1  H27B 8325   6.090   0.531   8.638 -0.6514 -1.9198 -0.4996
   79CHL1  H27C 8326   6.099   0.371   8.732  0.5238 -1.1262 -1.5984
   80CHL1    C3 8327   5.749   3.327   6.926 -0.1538 -0.1918  0.6714
   80CHL1    H3 8328   5.764   3.217   6.941  2.1790 -0.4433 -2.4569
   80CHL1    O3 8329   5.735   3.354   6.787 -0.0638  0.1596  0.3371
   80CHL1   H3' 8330   5.648   3.318   6.768 -0.6917  1.2884  0.9517
   80CHL1    C4 8331   5.631   3.389   7.006 -0.1639  0.1229  0.3451
   80CHL1   H4A 8332   5.622   3.498   6.985 -0.5253 -0.3337 -2.1795
   80CHL1   H4B 8333   5.536   3.345   6.970 -0.4351 -1.4774  2.7635
   80CHL1    C5 8334   5.649   3.366   7.155  0.6931  0.1421 -0.1494
   80CHL1    C6 8335   5.558   3.291   7.227  0.1515 -0.0649  0.0458
   80CHL1    H6 8336   5.470   3.246   7.179 -0.9851 -1.7499  3.3797
   80CHL1    C7 8337   5.550   3.269   7.372 -0.1734  0.1113 -0.3625
   80CHL1   H7A 8338   5.445   3.299   7.394 -0.0428  2.6254 -2.6318
   80CHL1   H7B 8339   5.578   3.170   7.414 -0.3719  0.7608  1.4119
   80CHL1    C8 8340   5.651   3.367   7.450 -0.0743  0.3027  0.7681
   80CHL1    H8 8341   5.595   3.464   7.448  1.8881  1.4711 -0.1337
   80CHL1   C14 8342   5.681   3.332   7.595  0.5086 -0.3305  0.3925
   80CHL1   H14 8343   5.722   3.229   7.593 -1.1351 -1.0151  0.2038
   80CHL1   C15 8344   5.554   3.331   7.685 -0.4159  0.3901  0.1216
   80CHL1  H15A 8345   5.487   3.415   7.655  0.9571  0.6424 -2.6050
   80CHL1  H15B 8346   5.486   3.245   7.672 -0.8684  0.8306 -0.5144
   80CHL1   C16 8347   5.610   3.349   7.825 -0.7127 -0.0498  0.1853
   80CHL1  H16A 8348   5.558   3.439   7.864  0.5286  1.4289 -1.4120
   80CHL1  H16B 8349   5.588   3.258   7.885 -0.4489  0.3262  0.8656
   80CHL1   C17 8350   5.768   3.363   7.814 -0.6630 -0.1449  0.8481
   80CHL1   H17 8351   5.821   3.268   7.795  1.0441  0.7533  0.9101
   80CHL1   C13 8352   5.785   3.421   7.672 -0.4664 -0.9646  0.5152
   80CHL1   C18 8353   5.733   3.568   7.664  0.1004  0.0409  0.0376
   80CHL1  H18A 8354   5.707   3.597   7.560  1.1700 -1.2176 -0.6167
   80CHL1  H18B 8355   5.642   3.576   7.727 -1.4332 -2.2979 -1.6828
   80CHL1  H18C 8356   5.818   3.630   7.696 -0.2432 -0.0977  1.2596
   80CHL1   C12 8357   5.917   3.407   7.599  0.3705 -0.1787  0.2232
   80CHL1  H12A 8358   5.996   3.478   7.632 -0.8023  0.1948  2.3655
   80CHL1  H12B 8359   5.954   3.303   7.583 -0.9550 -0.7818  0.9124
   80CHL1   C11 8360   5.898   3.445   7.449 -0.0024  0.4647  0.5499
   80CHL1  H11A 8361   5.878   3.554   7.441 -0.1789  0.5147  1.5646
   80CHL1  H11B 8362   5.998   3.447   7.402 -0.4737 -0.5410 -0.5575
   80CHL1    C9 8363   5.792   3.367   7.371  0.9926 -0.6394 -0.4107
   80CHL1    H9 8364   5.825   3.261   7.372  2.0885 -0.3084  0.5651
   80CHL1   C10 8365   5.773   3.425   7.223 -0.6985  0.0510  0.3888
   80CHL1   C19 8366   5.757   3.582   7.208  0.8810 -0.6639  0.0527
   80CHL1  H19A 8367   5.729   3.612   7.105  0.0319  1.0156  0.7286
   80CHL1  H19B 8368   5.691   3.632   7.282 -1.7375 -0.7314 -2.1196
   80CHL1  H19C 8369   5.855   3.629   7.234  1.0347 -1.8283  1.7695
   80CHL1    C1 8370   5.896   3.384   7.135 -0.6305  0.2562  0.0898
   80CHL1   H1A 8371   5.987   3.439   7.164  1.8252 -2.0435 -2.6415
   80CHL1   H1B 8372   5.917   3.277   7.157 -0.8172  0.1526 -0.2325
   80CHL1    C2 8373   5.880   3.396   6.979  0.2838  0.1051  0.0956
   80CHL1   H2A 8374   5.964   3.354   6.920  0.8338  1.1857  0.0855
   80CHL1   H2B 8375   5.879   3.507   6.969  0.7508  0.1027  0.0409
   80CHL1   C20 8376   5.843   3.420   7.937 -0.1117  0.0077  0.6924
   80CHL1   H20 8377   5.822   3.529   7.937  1.0889  0.2545 -0.1018
   80CHL1   C21 8378   6.000   3.422   7.916 -0.4654  0.5137  0.4061
   80CHL1  H21A 8379   6.061   3.442   8.007 -2.1459 -0.9920  1.9496
   80CHL1  H21B 8380   6.018   3.496   7.835 -1.3125  2.2947  1.7926
   80CHL1  H21C 8381   6.031   3.321   7.881 -0.7914  0.6387 -0.2656
   80CHL1   C22 8382   5.812   3.354   8.073  0.1317 -0.0089  0.4377
   80CHL1  H22A 8383   5.702   3.339   8.080 -0.1249  2.0525  1.3762
   80CHL1  H22B 8384   5.867   3.257   8.077 -0.8815 -0.8125 -2.7183
   80CHL1   C23 8385   5.856   3.451   8.191  0.2927  0.8882 -0.2415
   80CHL1  H23A 8386   5.961   3.480   8.170  0.4505  0.7363  0.3363
   80CHL1  H23B 8387   5.783   3.533   8.210 -1.3894 -0.8511  1.2482
   80CHL1   C24 8388   5.846   3.372   8.331 -0.1779 -0.2071  0.2393
   80CHL1  H24A 8389   5.766   3.409   8.398  0.1992 -0.6635  0.9539
   80CHL1  H24B 8390   5.825   3.265   8.310 -1.2605 -0.1826  1.1303
   80CHL1   C25 8391   5.985   3.382   8.403  0.0501 -0.7257 -0.6585
   80CHL1   H25 8392   5.999   3.491   8.420  0.5877 -0.6346 -1.5918
   80CHL1   C26 8393   5.972   3.322   8.548 -0.2196  0.0665 -0.2048
   80CHL1  H26A 8394   5.941   3.216   8.543 -1.0469  0.3216 -0.7965
   80CHL1  H26B 8395   6.073   3.332   8.591 -0.2717 -0.1113 -0.0397
   80CHL1  H26C 8396   5.910   3.383   8.617  1.2054  1.0777  0.2232
   80CHL1   C27 8397   6.105   3.323   8.335 -0.1670 -0.0199  0.1027
   80CHL1  H27A 8398   6.192   3.318   8.404 -0.5756 -1.5867  0.5448
   80CHL1  H27B 8399   6.065   3.220   8.324 -0.8768  0.3666 -1.1243
   80CHL1  H27C 8400   6.135   3.360   8.234 -4.0886  2.1544 -0.4467
   81CHL1    C3 8401   2.746   4.118   6.756  0.2111  0.7313  0.2728
   81CHL1    H3 8402   2.820   4.165   6.825  1.1221  1.3302 -1.0688
   81CHL1    O3 8403   2.755   4.158   6.621 -0.4172  0.0210  0.1376
   81CHL1   H3' 8404   2.721   4.248   6.622  1.7483  1.1296 -3.8203
   81CHL1    C4 8405   2.761   3.967   6.765  0.6519  0.1148  0.3826
   81CHL1   H4A 8406   2.689   3.922   6.694 -0.3807  0.5410  1.1471
   81CHL1   H4B 8407   2.868   3.944   6.745  0.2442 -1.9257  0.3040
   81CHL1    C5 8408   2.740   3.909   6.904  1.1278 -0.4777  0.5872
   81CHL1    C6 8409   2.829   3.830   6.966  0.1902  0.6337  0.1230
   81CHL1    H6 8410   2.924   3.813   6.913  0.4540 -1.5688  1.2257
   81CHL1    C7 8411   2.786   3.751   7.088  0.1177 -0.4452 -0.6866
   81CHL1   H7A 8412   2.811   3.643   7.078 -2.3548 -0.9653 -1.8356
   81CHL1   H7B 8413   2.852   3.784   7.172  2.0957  0.4493 -2.4956
   81CHL1    C8 8414   2.643   3.755   7.133  0.2125  0.3653  0.6582
   81CHL1    H8 8415   2.576   3.685   7.078  2.5075  0.5574 -2.7398
   81CHL1   C14 8416   2.634   3.717   7.284  0.5779  0.7035  0.6544
   81CHL1   H14 8417   2.708   3.789   7.325  0.0398  2.1074 -0.7256
   81CHL1   C15 8418   2.701   3.582   7.327  0.0754 -0.1930  0.7587
   81CHL1  H15A 8419   2.645   3.504   7.272 -1.8770  2.3298 -1.0336
   81CHL1  H15B 8420   2.809   3.602   7.309 -0.3543  0.2702 -1.5338
   81CHL1   C16 8421   2.668   3.592   7.474  1.3300  0.5338 -1.1218
   81CHL1  H16A 8422   2.634   3.492   7.507  0.0795  0.7652 -1.6775
   81CHL1  H16B 8423   2.752   3.612   7.544  0.3823  1.3571 -0.1863
   81CHL1   C17 8424   2.556   3.703   7.503 -0.8616  0.1331 -0.2025
   81CHL1   H17 8425   2.600   3.802   7.524 -1.5111  0.0842  1.5668
   81CHL1   C13 8426   2.500   3.735   7.361  0.5025 -0.0727 -0.6067
   81CHL1   C18 8427   2.395   3.629   7.311  0.2416  0.1424 -0.7416
   81CHL1  H18A 8428   2.305   3.628   7.377  0.8175  1.3449  0.0934
   81CHL1  H18B 8429   2.354   3.663   7.213  0.0799 -0.6518 -0.9581
   81CHL1  H18C 8430   2.431   3.524   7.317 -0.3437 -0.0814 -0.9999
   81CHL1   C12 8431   2.451   3.880   7.335 -0.2461  0.6503  0.4872
   81CHL1  H12A 8432   2.347   3.885   7.373 -0.4330 -0.6951  0.2016
   81CHL1  H12B 8433   2.509   3.960   7.385  1.6332 -0.0895 -0.4289
   81CHL1   C11 8434   2.454   3.912   7.189 -0.1651 -0.4133  0.7883
   81CHL1  H11A 8435   2.384   3.850   7.129 -0.4404  1.0095 -0.4474
   81CHL1  H11B 8436   2.422   4.018   7.181  1.4731  0.0492 -0.1798
   81CHL1    C9 8437   2.590   3.899   7.116 -0.6664 -0.3483 -0.2065
   81CHL1    H9 8438   2.660   3.957   7.181  2.6110 -2.6084 -1.4382
   81CHL1   C10 8439   2.601   3.951   6.970 -0.0113  0.4957 -0.0028
   81CHL1   C19 8440   2.479   3.882   6.894 -0.0651  0.2510  0.2570
   81CHL1  H19A 8441   2.381   3.914   6.936  0.4274 -2.2274  3.7134
   81CHL1  H19B 8442   2.490   3.897   6.784  1.3631 -0.6209  0.2518
   81CHL1  H19C 8443   2.479   3.771   6.891  0.8962  0.2642 -1.2335
   81CHL1    C1 8444   2.595   4.105   6.966  0.1482 -0.3020 -0.3392
   81CHL1   H1A 8445   2.492   4.132   6.997 -0.1817  0.7663 -2.2520
   81CHL1   H1B 8446   2.674   4.148   7.031 -1.9395 -1.7142  3.4509
   81CHL1    C2 8447   2.602   4.146   6.815 -0.5492  0.1597  0.0660
   81CHL1   H2A 8448   2.598   4.257   6.801  1.5264  0.3641  0.7255
   81CHL1   H2B 8449   2.521   4.092   6.760 -0.2496 -0.3091  0.0881
   81CHL1   C20 8450   2.459   3.662   7.611  0.3634  0.5787 -0.1734
   81CHL1   H20 8451   2.406   3.571   7.575  0.6235 -0.2273  1.3573
   81CHL1   C21 8452   2.366   3.783   7.638  0.9139 -0.3505  0.3966
   81CHL1  H21A 8453   2.417   3.875   7.675 -0.6323 -0.1048  2.0197
   81CHL1  H21B 8454   2.300   3.760   7.724  1.3065 -0.3434  0.7013
   81CHL1  H21C 8455   2.298   3.794   7.551  2.1885 -1.0233 -0.7262
   81CHL1   C22 8456   2.529   3.623   7.745 -0.1977  0.3320  0.4127
   81CHL1  H22A 8457   2.617   3.556   7.740  0.1617  0.6888  1.7467
   81CHL1  H22B 8458   2.567   3.715   7.794 -0.0313 -0.2699  1.4491
   81CHL1   C23 8459   2.434   3.553   7.841 -0.2294 -0.3581 -0.3496
   81CHL1  H23A 8460   2.351   3.619   7.873 -0.9132 -0.8691 -1.0210
   81CHL1  H23B 8461   2.382   3.467   7.793 -1.4115  0.9816 -1.5511
   81CHL1   C24 8462   2.499   3.518   7.973 -0.2250 -0.5495 -0.2305
   81CHL1  H24A 8463   2.593   3.460   7.962 -0.6266 -1.2901  0.1889
   81CHL1  H24B 8464   2.529   3.615   8.019  0.6772  0.9547 -3.6273
   81CHL1   C25 8465   2.402   3.431   8.057 -0.7250 -0.4384  0.0486
   81CHL1   H25 8466   2.348   3.358   7.993 -2.0728  2.2076 -2.0482
   81CHL1   C26 8467   2.477   3.355   8.168 -0.3794  0.3564 -0.0961
   81CHL1  H26A 8468   2.570   3.311   8.125 -1.0540 -2.8677  1.4370
   81CHL1  H26B 8469   2.491   3.423   8.254  0.2037 -3.6882  3.2970
   81CHL1  H26C 8470   2.427   3.265   8.210  0.2140 -0.2492 -0.6414
   81CHL1   C27 8471   2.282   3.513   8.127  0.2498  0.0401  0.5720
   81CHL1  H27A 8472   2.224   3.444   8.192 -0.6960  0.8678  0.6394
   81CHL1  H27B 8473   2.314   3.603   8.184 -2.8529  1.3442  0.4862
   81CHL1  H27C 8474   2.208   3.559   8.057  1.1198 -1.3561 -1.3520
   82CHL1    C3 8475   4.209   5.474   6.853 -0.3602  0.1235 -0.5392
   82CHL1    H3 8476   4.193   5.366   6.874 -2.0007  0.4101 -0.1765
   82CHL1    O3 8477   4.227   5.476   6.712 -0.0051 -0.6394  0.0108
   82CHL1   H3' 8478   4.195   5.560   6.679  0.0951  0.2456  2.0368
   82CHL1    C4 8479   4.078   5.545   6.889  0.2831  0.1093  0.3610
   82CHL1   H4A 8480   4.087   5.642   6.835  0.4269  0.3768  0.8684
   82CHL1   H4B 8481   3.993   5.492   6.839  0.2154 -1.6997  2.2872
   82CHL1    C5 8482   4.055   5.564   7.036  0.2848 -0.0319  0.0216
   82CHL1    C6 8483   3.937   5.537   7.096  0.5619 -0.4419 -0.4971
   82CHL1    H6 8484   3.855   5.508   7.029 -1.5851 -0.3239  1.9205
   82CHL1    C7 8485   3.906   5.555   7.243  0.0901 -0.1959  0.1648
   82CHL1   H7A 8486   3.818   5.621   7.257 -0.1840  0.1173 -2.4194
   82CHL1   H7B 8487   3.882   5.464   7.302 -1.2028  0.4425  0.6666
   82CHL1    C8 8488   4.027   5.624   7.320 -0.0033 -0.5637 -0.1044
   82CHL1    H8 8489   4.021   5.734   7.306  0.7069 -0.6536 -1.2766
   82CHL1   C14 8490   4.009   5.581   7.469 -0.1344  0.2532 -0.4908
   82CHL1   H14 8491   4.002   5.470   7.465 -1.0408  0.3129 -3.3013
   82CHL1   C15 8492   3.880   5.625   7.539  0.8184 -0.1046  0.2336
   82CHL1  H15A 8493   3.872   5.734   7.521  1.0030  0.2383  1.9969
   82CHL1  H15B 8494   3.785   5.577   7.508  2.2063 -2.4091 -0.6921
   82CHL1   C16 8495   3.908   5.584   7.683  0.4603  1.1128  0.1400
   82CHL1  H16A 8496   3.886   5.682   7.729  2.8607  2.3874 -1.1715
   82CHL1  H16B 8497   3.853   5.499   7.727  0.2354  1.3392  0.2968
   82CHL1   C17 8498   4.061   5.562   7.691 -0.3323  0.2455 -0.3280
   82CHL1   H17 8499   4.069   5.452   7.683 -1.7307 -0.1256  2.3691
   82CHL1   C13 8500   4.120   5.622   7.565  0.1890  0.3579  0.1001
   82CHL1   C18 8501   4.138   5.773   7.593  0.0526  0.1364 -0.4465
   82CHL1  H18A 8502   4.197   5.797   7.684  0.0747  0.8388 -0.6441
   82CHL1  H18B 8503   4.180   5.835   7.512 -0.5355  2.5785  1.0143
   82CHL1  H18C 8504   4.037   5.812   7.620 -0.1976 -1.2622  0.7886
   82CHL1   C12 8505   4.253   5.576   7.506 -0.0591  0.1151 -0.3422
   82CHL1  H12A 8506   4.342   5.616   7.560 -1.4964  0.3498  1.9935
   82CHL1  H12B 8507   4.258   5.465   7.519  1.2612  0.4513  3.1829
   82CHL1   C11 8508   4.274   5.611   7.359 -0.4438  0.0509 -1.1713
   82CHL1  H11A 8509   4.291   5.720   7.355  0.0881 -0.0586 -2.2917
   82CHL1  H11B 8510   4.372   5.570   7.326 -0.5988 -0.4590 -1.0156
   82CHL1    C9 8511   4.160   5.574   7.270 -0.9131  0.0892  0.1530
   82CHL1    H9 8512   4.156   5.463   7.268 -2.7622  0.0338  2.1834
   82CHL1   C10 8513   4.177   5.607   7.121 -0.0061 -0.2859  0.6263
   82CHL1   C19 8514   4.204   5.758   7.105 -0.4045 -0.0491 -1.0003
   82CHL1  H19A 8515   4.116   5.821   7.129  0.8920  1.4481  0.1504
   82CHL1  H19B 8516   4.287   5.801   7.166 -0.6807 -0.4730 -0.3111
   82CHL1  H19C 8517   4.234   5.775   6.999  1.6421  0.9341 -0.3331
   82CHL1    C1 8518   4.302   5.529   7.074 -0.4338  0.0461 -0.2569
   82CHL1   H1A 8519   4.391   5.558   7.133 -0.7093 -0.5208  0.4486
   82CHL1   H1B 8520   4.284   5.423   7.100  0.2392  0.7569  3.7962
   82CHL1    C2 8521   4.334   5.532   6.918 -0.3381 -0.0907  0.0486
   82CHL1   H2A 8522   4.426   5.470   6.908 -1.0740 -1.5506  1.7284
   82CHL1   H2B 8523   4.344   5.639   6.889  1.4546 -0.5818 -1.3420
   82CHL1   C20 8524   4.122   5.587   7.826 -0.7624  0.2865  0.3294
   82CHL1   H20 8525   4.119   5.696   7.846 -1.8700  0.0688  1.4655
   82CHL1   C21 8526   4.271   5.546   7.830  0.8822  0.3948  0.6213
   82CHL1  H21A 8527   4.311   5.541   7.933  2.0453 -2.3309  0.1366
   82CHL1  H21B 8528   4.318   5.631   7.775  0.6153 -0.1208 -0.4288
   82CHL1  H21C 8529   4.284   5.454   7.769 -1.2632  0.8448 -0.6046
   82CHL1   C22 8530   4.040   5.525   7.939  0.3732 -0.6130 -0.0013
   82CHL1  H22A 8531   4.090   5.552   8.034 -0.3848 -0.2991  0.3199
   82CHL1  H22B 8532   3.938   5.569   7.947 -0.0705 -1.7455  0.8677
   82CHL1   C23 8533   4.032   5.374   7.927  0.4182 -0.5932 -0.7746
   82CHL1  H23A 8534   3.970   5.354   7.836  2.3432  1.6978 -2.7310
   82CHL1  H23B 8535   4.134   5.337   7.905  0.0963 -2.3838  0.5487
   82CHL1   C24 8536   3.996   5.321   8.061  0.5575  0.0841  0.0023
   82CHL1  H24A 8537   4.008   5.211   8.049  4.3311  0.2252  1.0956
   82CHL1  H24B 8538   4.080   5.350   8.129  0.7213  0.6306 -0.4252
   82CHL1   C25 8539   3.861   5.343   8.134 -0.0145  0.6715 -1.0814
   82CHL1   H25 8540   3.866   5.447   8.173  1.8048 -0.8030  3.2835
   82CHL1   C26 8541   3.733   5.345   8.040 -0.7772  0.5438 -0.1603
   82CHL1  H26A 8542   3.642   5.312   8.094 -0.9805  0.9143 -0.2773
   82CHL1  H26B 8543   3.717   5.440   7.986 -1.0700  0.0482 -0.9568
   82CHL1  H26C 8544   3.752   5.272   7.959  1.2410 -1.2725  1.7750
   82CHL1   C27 8545   3.852   5.253   8.259 -0.5506  0.3945  0.5039
   82CHL1  H27A 8546   3.840   5.145   8.240 -2.4884  0.8082 -0.9542
   82CHL1  H27B 8547   3.939   5.259   8.328 -1.0608 -2.2151  1.5029
   82CHL1  H27C 8548   3.762   5.287   8.316 -0.3311  0.0893  1.0353
   83CHL1    C3 8549   2.548   5.666   6.642  0.8401  0.7008 -0.1039
   83CHL1    H3 8550   2.450   5.630   6.607  0.5994 -0.1433  1.3527
   83CHL1    O3 8551   2.620   5.719   6.532 -0.0576 -0.2426 -0.2766
   83CHL1   H3' 8552   2.553   5.725   6.464 -0.8602 -1.1653  0.3981
   83CHL1    C4 8553   2.518   5.779   6.741  0.0495 -0.2730 -0.4843
   83CHL1   H4A 8554   2.607   5.844   6.754 -1.6871  2.5031 -1.7155
   83CHL1   H4B 8555   2.450   5.848   6.687 -3.2858 -3.9787 -1.4850
   83CHL1    C5 8556   2.463   5.734   6.872  0.4878  0.2046  0.2243
   83CHL1    C6 8557   2.340   5.772   6.923 -0.0812  0.3530  0.2237
   83CHL1    H6 8558   2.277   5.842   6.866 -1.4865  1.0795  2.5215
   83CHL1    C7 8559   2.291   5.733   7.056  0.2561 -0.0822 -1.0084
   83CHL1   H7A 8560   2.240   5.816   7.110 -2.8450 -0.1352 -3.5523
   83CHL1   H7B 8561   2.220   5.647   7.053 -0.6432  0.4799  1.7021
   83CHL1    C8 8562   2.408   5.684   7.144  0.3315  0.1998 -0.4225
   83CHL1    H8 8563   2.467   5.773   7.178 -0.8242  1.6625 -2.1096
   83CHL1   C14 8564   2.356   5.621   7.276 -0.0189  0.0028  0.8429
   83CHL1   H14 8565   2.299   5.529   7.249 -1.1717  0.7220  0.7546
   83CHL1   C15 8566   2.260   5.702   7.358  0.1447  0.0308 -0.6774
   83CHL1  H15A 8567   2.311   5.790   7.401  1.4038 -0.6663 -0.6970
   83CHL1  H15B 8568   2.167   5.735   7.307  1.3193  2.4089 -1.4314
   83CHL1   C16 8569   2.246   5.612   7.483  0.1275 -0.2923 -0.1409
   83CHL1  H16A 8570   2.240   5.670   7.577 -0.5983 -1.4407  0.5549
   83CHL1  H16B 8571   2.154   5.549   7.481  0.5116 -0.9107 -3.1070
   83CHL1   C17 8572   2.372   5.518   7.488  0.4211  0.3737 -0.3991
   83CHL1   H17 8573   2.333   5.423   7.445 -1.9707  1.9359 -1.9304
   83CHL1   C13 8574   2.460   5.573   7.372 -0.4735 -0.6487 -0.3111
   83CHL1   C18 8575   2.550   5.681   7.440 -0.0232 -0.3687 -0.2605
   83CHL1  H18A 8576   2.600   5.742   7.361  1.1577 -0.6980  0.2160
   83CHL1  H18B 8577   2.494   5.749   7.508 -0.9025 -1.9506  0.6393
   83CHL1  H18C 8578   2.629   5.616   7.483 -1.1781 -2.6353 -1.3950
   83CHL1   C12 8579   2.544   5.466   7.298 -0.1368  0.4475  0.2102
   83CHL1  H12A 8580   2.615   5.421   7.371 -1.8402 -0.4310  1.3919
   83CHL1  H12B 8581   2.474   5.382   7.278  0.8836 -0.3352 -0.1448
   83CHL1   C11 8582   2.604   5.515   7.169 -0.2174  0.1070  0.3575
   83CHL1  H11A 8583   2.670   5.601   7.193  1.7922 -0.3726 -2.8039
   83CHL1  H11B 8584   2.665   5.438   7.117  1.3235  1.7938 -0.4642
   83CHL1    C9 8585   2.500   5.584   7.075  0.0684  0.8480 -0.0927
   83CHL1    H9 8586   2.431   5.500   7.054  0.4334 -0.6643  3.9608
   83CHL1   C10 8587   2.561   5.639   6.941 -0.0610 -0.3972  0.6186
   83CHL1   C19 8588   2.701   5.710   6.976  0.4879  0.0668  0.0635
   83CHL1  H19A 8589   2.758   5.749   6.888  0.2897  1.6086  0.5889
   83CHL1  H19B 8590   2.684   5.796   7.044  1.7964  0.4050 -0.0185
   83CHL1  H19C 8591   2.766   5.635   7.024  0.1675 -0.7070 -0.6861
   83CHL1    C1 8592   2.587   5.520   6.847  0.0700  0.4272 -0.1090
   83CHL1   H1A 8593   2.663   5.457   6.898  1.1788  0.9272 -1.1063
   83CHL1   H1B 8594   2.488   5.471   6.829  0.3675 -0.2764  0.1282
   83CHL1    C2 8595   2.644   5.557   6.707  0.6227  0.0615  0.4333
   83CHL1   H2A 8596   2.665   5.481   6.628 -0.7228 -1.1295  1.1790
   83CHL1   H2B 8597   2.743   5.608   6.712 -0.0854  1.5376 -0.0006
   83CHL1   C20 8598   2.420   5.490   7.627 -0.3775 -0.3276 -0.5518
   83CHL1   H20 8599   2.481   5.576   7.663  0.9299 -1.2886 -0.4094
   83CHL1   C21 8600   2.515   5.366   7.626  0.3720 -0.8052  0.0758
   83CHL1  H21A 8601   2.551   5.346   7.729  1.0522  1.1638  0.2628
   83CHL1  H21B 8602   2.610   5.403   7.583  0.5153  2.1909  2.5736
   83CHL1  H21C 8603   2.486   5.270   7.579  1.7603 -0.7391 -0.9644
   83CHL1   C22 8604   2.305   5.450   7.726  0.3244 -0.5435  0.8304
   83CHL1  H22A 8605   2.343   5.435   7.829 -1.2346 -1.5949  1.2899
   83CHL1  H22B 8606   2.236   5.537   7.728  0.6907 -0.1830 -0.7867
   83CHL1   C23 8607   2.228   5.319   7.689 -0.0674  0.3159 -0.4987
   83CHL1  H23A 8608   2.194   5.319   7.583 -0.3339 -0.2446 -0.4168
   83CHL1  H23B 8609   2.295   5.232   7.707  0.4548  0.5326 -1.3215
   83CHL1   C24 8610   2.105   5.293   7.781 -0.5259 -0.1874 -0.2551
   83CHL1  H24A 8611   2.139   5.306   7.886  0.9557 -2.0344 -0.4572
   83CHL1  H24B 8612   2.035   5.374   7.753  0.4182  0.7423  0.0062
   83CHL1   C25 8613   2.042   5.154   7.757 -0.4084 -0.0624  0.0363
   83CHL1   H25 8614   2.129   5.086   7.768  0.4833  0.9733 -0.5102
   83CHL1   C26 8615   1.931   5.116   7.859 -0.2595 -0.1693 -0.3743
   83CHL1  H26A 8616   1.841   5.180   7.862 -0.2039 -0.1373  1.3645
   83CHL1  H26B 8617   1.897   5.010   7.851  0.1683 -0.2199 -1.9027
   83CHL1  H26C 8618   1.973   5.120   7.962 -0.4606  1.1680 -0.3330
   83CHL1   C27 8619   1.975   5.133   7.621 -0.0579  0.0367  0.9689
   83CHL1  H27A 8620   1.893   5.207   7.611 -0.4117 -0.6832 -2.3128
   83CHL1  H27B 8621   2.049   5.159   7.543  2.0162 -0.4974  2.6591
   83CHL1  H27C 8622   1.931   5.032   7.612 -0.8692  0.2471  2.2628
   84CHL1    C3 8623   1.979   3.786   6.806 -0.1432 -0.6560  0.5424
   84CHL1    H3 8624   1.921   3.692   6.790 -1.3343  0.3975 -1.7173
   84CHL1    O3 8625   2.010   3.824   6.675  0.5496  0.0312  0.6247
   84CHL1   H3' 8626   2.040   3.745   6.628  2.4972  0.5654  0.8906
   84CHL1    C4 8627   1.899   3.894   6.869  0.5505 -0.0616 -0.7603
   84CHL1   H4A 8628   1.967   3.980   6.855 -0.5033  1.5919  2.9534
   84CHL1   H4B 8629   1.802   3.905   6.815 -0.0894  0.0157  0.3716
   84CHL1    C5 8630   1.863   3.866   7.018  0.8327 -0.3902  0.4946
   84CHL1    C6 8631   1.738   3.879   7.063 -0.4038  0.1490 -0.0687
   84CHL1    H6 8632   1.655   3.916   7.002 -2.0048  0.6041  2.2499
   84CHL1    C7 8633   1.704   3.851   7.205  0.0552 -0.0676 -0.0313
   84CHL1   H7A 8634   1.651   3.941   7.241  1.1532 -0.0720  1.7574
   84CHL1   H7B 8635   1.639   3.761   7.208  1.2506 -0.9651 -0.2182
   84CHL1    C8 8636   1.818   3.819   7.304 -0.6121 -0.5418 -0.1676
   84CHL1    H8 8637   1.859   3.919   7.330 -0.0718  0.1185 -3.1274
   84CHL1   C14 8638   1.776   3.757   7.433  0.2256  0.0740 -0.0180
   84CHL1   H14 8639   1.735   3.656   7.409 -0.4700 -0.0139  1.4531
   84CHL1   C15 8640   1.660   3.821   7.511  0.6179  0.7879 -0.0419
   84CHL1  H15A 8641   1.681   3.929   7.505  0.8747  0.6950 -0.8727
   84CHL1  H15B 8642   1.562   3.803   7.463 -0.0506 -2.4117  2.1597
   84CHL1   C16 8643   1.680   3.767   7.655 -0.4720 -0.5893 -0.0251
   84CHL1  H16A 8644   1.685   3.856   7.722  0.8411 -0.3593 -0.3937
   84CHL1  H16B 8645   1.602   3.693   7.681 -0.3491  0.1216  2.5814
   84CHL1   C17 8646   1.813   3.693   7.651 -0.0294 -0.0103  0.5912
   84CHL1   H17 8647   1.783   3.588   7.630 -1.3104  0.6740 -1.2491
   84CHL1   C13 8648   1.891   3.737   7.530 -0.0295  0.4390 -0.0701
   84CHL1   C18 8649   1.972   3.872   7.565 -0.7633  0.4334 -0.0240
   84CHL1  H18A 8650   2.052   3.857   7.640  0.3842  0.5373 -1.1872
   84CHL1  H18B 8651   2.030   3.919   7.482 -0.4701  0.7311  0.3430
   84CHL1  H18C 8652   1.902   3.945   7.611  1.5575  2.4303  0.5982
   84CHL1   C12 8653   1.995   3.638   7.465  0.4824  0.2657  0.6349
   84CHL1  H12A 8654   2.074   3.614   7.541  0.0809  0.0894  1.0023
   84CHL1  H12B 8655   1.933   3.546   7.456 -1.2438  1.4323  0.3326
   84CHL1   C11 8656   2.041   3.678   7.324 -0.8048 -0.4669  0.3904
   84CHL1  H11A 8657   2.122   3.751   7.345 -0.2883 -1.4037  1.8373
   84CHL1  H11B 8658   2.078   3.588   7.272 -0.5711 -1.0756  1.5788
   84CHL1    C9 8659   1.929   3.738   7.235 -0.2662  0.0971 -0.2321
   84CHL1    H9 8660   1.880   3.648   7.191  1.5941  0.2834 -2.8554
   84CHL1   C10 8661   1.984   3.814   7.112 -0.1330  0.1655  0.5623
   84CHL1   C19 8662   2.059   3.948   7.148  0.8149 -0.4633 -0.5897
   84CHL1  H19A 8663   1.999   4.009   7.218  0.9077  0.3657 -1.2172
   84CHL1  H19B 8664   2.159   3.925   7.189  0.8593 -0.9750 -0.9705
   84CHL1  H19C 8665   2.078   4.013   7.060  0.0524  2.2971  1.1674
   84CHL1    C1 8666   2.069   3.719   7.023 -0.0352 -0.1963 -0.3117
   84CHL1   H1A 8667   2.158   3.704   7.087 -1.2754  0.4910  1.6699
   84CHL1   H1B 8668   2.007   3.628   7.008 -1.4180  0.5051  0.8230
   84CHL1    C2 8669   2.105   3.769   6.882 -0.1025 -0.1800 -0.1880
   84CHL1   H2A 8670   2.174   3.695   6.837  0.8980 -0.0031  0.9904
   84CHL1   H2B 8671   2.162   3.863   6.893  0.3227 -0.4084 -0.4219
   84CHL1   C20 8672   1.905   3.673   7.768 -0.4121  0.4657 -0.7376
   84CHL1   H20 8673   2.011   3.656   7.740 -0.1535  0.1603  0.3827
   84CHL1   C21 8674   1.859   3.533   7.838 -0.4711  0.4715  0.5395
   84CHL1  H21A 8675   1.753   3.539   7.869 -0.3177  2.9201  0.7966
   84CHL1  H21B 8676   1.912   3.506   7.931 -3.0185 -1.3947  1.5501
   84CHL1  H21C 8677   1.881   3.442   7.778  2.7684 -0.5665  3.0225
   84CHL1   C22 8678   1.889   3.782   7.870 -0.8846 -0.8956  0.6512
   84CHL1  H22A 8679   1.874   3.876   7.813  1.7105 -1.6308 -1.5153
   84CHL1  H22B 8680   1.791   3.765   7.919 -1.9451 -0.6517 -1.2795
   84CHL1   C23 8681   2.003   3.787   7.968 -0.6614 -0.3760 -0.2508
   84CHL1  H23A 8682   2.001   3.696   8.031  3.6235 -0.9470 -0.6534
   84CHL1  H23B 8683   2.105   3.781   7.925 -0.1399 -0.2772  0.9636
   84CHL1   C24 8684   1.991   3.917   8.051 -0.1533  0.0810 -0.1728
   84CHL1  H24A 8685   2.002   3.993   7.970  1.4595 -1.2605 -1.2725
   84CHL1  H24B 8686   1.886   3.920   8.089 -1.1569 -1.2473 -2.5973
   84CHL1   C25 8687   2.097   3.920   8.159  0.2834  0.0757 -0.7684
   84CHL1   H25 8688   2.085   3.820   8.206  0.0873 -0.2754 -1.5503
   84CHL1   C26 8689   2.232   3.936   8.101 -0.9018  0.3025 -0.7989
   84CHL1  H26A 8690   2.250   3.853   8.029  0.5428 -0.4602  0.3702
   84CHL1  H26B 8691   2.232   4.035   8.051 -1.7245  1.6773  1.7254
   84CHL1  H26C 8692   2.322   3.932   8.166 -0.3059  0.4903 -1.5969
   84CHL1   C27 8693   2.063   4.038   8.258  0.1000 -0.2142 -0.4337
   84CHL1  H27A 8694   2.155   4.050   8.320 -0.0232  1.4905 -0.5429
   84CHL1  H27B 8695   2.047   4.136   8.210 -0.0874  0.7349  1.4863
   84CHL1  H27C 8696   1.974   4.014   8.320 -0.9988 -0.5717 -2.1086
   85CHL1    C3 8697   1.428   5.909   6.839 -0.4179  0.6106 -0.1063
   85CHL1    H3 8698   1.390   5.816   6.887 -0.7823 -0.0991 -1.6942
   85CHL1    O3 8699   1.356   5.932   6.718  0.6266 -0.1552  0.2827
   85CHL1   H3' 8700   1.367   6.025   6.696  1.6834 -0.1737  0.7014
   85CHL1    C4 8701   1.410   6.032   6.921 -0.3815 -0.6965 -0.3212
   85CHL1   H4A 8702   1.441   6.115   6.853  0.3310 -0.7126 -0.0300
   85CHL1   H4B 8703   1.306   6.064   6.945  0.1835  1.0653 -0.0353
   85CHL1    C5 8704   1.499   6.027   7.041 -0.3370 -0.2018 -0.1427
   85CHL1    C6 8705   1.442   6.040   7.161  0.1614  0.5107  0.7430
   85CHL1    H6 8706   1.334   6.052   7.174  0.3798  2.2068  1.1752
   85CHL1    C7 8707   1.517   6.039   7.292 -0.0334  0.0992 -0.0082
   85CHL1   H7A 8708   1.474   6.129   7.341  1.1888  0.7045  0.0156
   85CHL1   H7B 8709   1.479   5.955   7.354 -0.0199 -0.4851 -0.7775
   85CHL1    C8 8710   1.661   6.056   7.278 -0.6145  0.2969 -0.5634
   85CHL1    H8 8711   1.669   6.163   7.247  0.7021  0.2864 -0.2939
   85CHL1   C14 8712   1.741   6.028   7.408 -0.4394 -0.5717 -0.4994
   85CHL1   H14 8713   1.725   5.920   7.430  1.3383 -0.8997 -0.5945
   85CHL1   C15 8714   1.695   6.096   7.537 -0.8246  0.2642  0.7203
   85CHL1  H15A 8715   1.645   6.192   7.513 -1.6389 -0.4983 -0.8125
   85CHL1  H15B 8716   1.615   6.039   7.587  0.0143 -1.0108  0.6568
   85CHL1   C16 8717   1.822   6.112   7.619  0.0185  0.4107 -0.1321
   85CHL1  H16A 8718   1.846   6.220   7.631  0.0415  0.1771  2.4594
   85CHL1  H16B 8719   1.812   6.074   7.723 -0.1472 -1.8777 -0.9282
   85CHL1   C17 8720   1.935   6.031   7.541 -0.1845 -0.0805 -0.3233
   85CHL1   H17 8721   1.923   5.925   7.570 -1.5826  0.0810 -0.2562
   85CHL1   C13 8722   1.892   6.049   7.397 -0.1978  0.3918 -0.0857
   85CHL1   C18 8723   1.925   6.191   7.353 -0.2478 -0.1257  0.4510
   85CHL1  H18A 8724   2.033   6.201   7.333 -0.3187  0.9127  0.5488
   85CHL1  H18B 8725   1.852   6.222   7.275  1.5382 -2.5048 -2.4048
   85CHL1  H18C 8726   1.914   6.260   7.439  2.0134  2.5457 -1.2344
   85CHL1   C12 8727   1.940   5.939   7.297  0.4515 -0.2260  0.0939
   85CHL1  H12A 8728   2.050   5.926   7.294  0.4500 -0.0382 -2.7224
   85CHL1  H12B 8729   1.920   5.836   7.334 -0.4849 -0.4596 -1.0223
   85CHL1   C11 8730   1.872   5.962   7.162  0.1045 -0.4681  0.1481
   85CHL1  H11A 8731   1.916   6.060   7.133 -0.1252 -1.1680 -2.8787
   85CHL1  H11B 8732   1.893   5.883   7.087  2.1766 -2.4025  2.5922
   85CHL1    C9 8733   1.717   5.972   7.158 -0.5790  0.4199  0.1641
   85CHL1    H9 8734   1.697   5.865   7.180 -0.5560  0.3231 -0.2766
   85CHL1   C10 8735   1.651   5.997   7.022 -0.6280  0.2861  0.5959
   85CHL1   C19 8736   1.718   6.122   6.962  0.5090  0.1527 -0.1887
   85CHL1  H19A 8737   1.727   6.207   7.033  1.9476 -1.1340  1.2165
   85CHL1  H19B 8738   1.822   6.091   6.939  0.3459  0.6106 -1.7281
   85CHL1  H19C 8739   1.687   6.159   6.861  1.0036 -0.7268 -0.6771
   85CHL1    C1 8740   1.655   5.870   6.934  0.9452  0.3165  0.2721
   85CHL1   H1A 8741   1.761   5.857   6.902  1.4597  2.4496  0.9334
   85CHL1   H1B 8742   1.601   5.781   6.972  2.3340  0.1284  1.9548
   85CHL1    C2 8743   1.577   5.882   6.804 -0.1097 -0.8823 -0.1508
   85CHL1   H2A 8744   1.598   5.785   6.755  0.7981 -0.8451  0.1383
   85CHL1   H2B 8745   1.622   5.963   6.742 -2.0554  0.1395 -0.2871
   85CHL1   C20 8746   2.072   6.082   7.597 -0.0998  0.2986  0.3449
   85CHL1   H20 8747   2.074   6.192   7.581 -0.0961  0.2437 -0.0219
   85CHL1   C21 8748   2.191   6.024   7.525  0.0346 -0.2528  0.0651
   85CHL1  H21A 8749   2.287   6.051   7.573  1.0225 -2.1400 -0.7451
   85CHL1  H21B 8750   2.200   6.053   7.418 -2.1531  0.2243 -0.0373
   85CHL1  H21C 8751   2.191   5.913   7.528  2.2815 -0.2764  1.3850
   85CHL1   C22 8752   2.084   6.070   7.750  0.2221  0.4881 -0.7759
   85CHL1  H22A 8753   2.190   6.100   7.766  0.9067 -1.5566 -1.1359
   85CHL1  H22B 8754   2.021   6.141   7.807  2.3179  1.3538  0.5846
   85CHL1   C23 8755   2.056   5.930   7.817 -0.0812  0.2512  0.2921
   85CHL1  H23A 8756   1.948   5.932   7.841  0.0671  3.6529  1.2095
   85CHL1  H23B 8757   2.095   5.847   7.755 -1.1698  0.3426 -0.5505
   85CHL1   C24 8758   2.141   5.921   7.951  0.0955 -0.0253 -0.5781
   85CHL1  H24A 8759   2.245   5.951   7.923 -0.7135  0.4357 -3.4262
   85CHL1  H24B 8760   2.121   6.011   8.014  1.5049  0.1965 -0.3982
   85CHL1   C25 8761   2.129   5.792   8.044 -0.4720 -0.1729  0.0366
   85CHL1   H25 8762   2.029   5.803   8.091 -0.2543 -0.8747  0.6866
   85CHL1   C26 8763   2.131   5.661   7.972 -0.1735  0.2260  0.8819
   85CHL1  H26A 8764   2.214   5.659   7.898  0.7851  0.7397  1.9131
   85CHL1  H26B 8765   2.160   5.585   8.048  1.1266  2.3845  2.6586
   85CHL1  H26C 8766   2.036   5.645   7.916 -0.5676  2.6755  0.7083
   85CHL1   C27 8767   2.232   5.789   8.162 -0.8304 -0.6241 -0.7648
   85CHL1  H27A 8768   2.216   5.884   8.217 -2.7657  0.8902 -3.7127
   85CHL1  H27B 8769   2.224   5.698   8.226  0.0913 -1.2201 -1.4741
   85CHL1  H27C 8770   2.334   5.790   8.119  0.8124  2.1169  2.6482
   86CHL1    C3 8771   3.429   5.373   6.822  0.3720 -0.0369  0.0698
   86CHL1    H3 8772   3.319   5.362   6.825  0.5728 -2.5085  2.0608
   86CHL1    O3 8773   3.472   5.400   6.695 -0.3020 -0.3640 -0.3433
   86CHL1   H3' 8774   3.429   5.344   6.630 -0.0289  0.1228 -0.9569
   86CHL1    C4 8775   3.474   5.499   6.903 -0.2886  0.3708 -0.7559
   86CHL1   H4A 8776   3.583   5.513   6.883 -0.2374  1.4045  0.2237
   86CHL1   H4B 8777   3.425   5.593   6.873 -4.0272 -0.4527  2.0560
   86CHL1    C5 8778   3.441   5.476   7.049 -0.2525 -0.2932  0.2458
   86CHL1    C6 8779   3.384   5.576   7.118  0.1481 -1.4583  0.0692
   86CHL1    H6 8780   3.357   5.677   7.084 -0.0408 -0.8541  1.8863
   86CHL1    C7 8781   3.353   5.578   7.262 -0.7927 -0.0173 -0.4621
   86CHL1   H7A 8782   3.384   5.680   7.294  3.9317 -1.3351 -0.0204
   86CHL1   H7B 8783   3.245   5.559   7.277 -0.6534  1.2685  3.1662
   86CHL1    C8 8784   3.430   5.465   7.337 -0.5320  0.4502 -0.2950
   86CHL1    H8 8785   3.536   5.491   7.359 -0.7454  0.6405  0.5767
   86CHL1   C14 8786   3.374   5.444   7.484 -0.2666  0.7623 -0.3592
   86CHL1   H14 8787   3.271   5.410   7.460 -0.4562  1.2702 -0.2793
   86CHL1   C15 8788   3.371   5.562   7.581 -0.0466 -0.4146 -0.7835
   86CHL1  H15A 8789   3.475   5.602   7.577 -0.4704  0.7163 -4.5230
   86CHL1  H15B 8790   3.310   5.651   7.558 -0.0960  0.8799  3.5363
   86CHL1   C16 8791   3.335   5.500   7.717  0.3954  0.1187  0.5541
   86CHL1  H16A 8792   3.414   5.534   7.787  2.8870 -0.9764 -1.5510
   86CHL1  H16B 8793   3.234   5.529   7.753  0.2761  1.4843 -0.8027
   86CHL1   C17 8794   3.344   5.344   7.691 -0.8809  0.3104  0.2090
   86CHL1   H17 8795   3.241   5.310   7.664 -2.1483  2.5808  1.8571
   86CHL1   C13 8796   3.432   5.332   7.564  0.5416  0.1315  0.2932
   86CHL1   C18 8797   3.581   5.349   7.605  0.8730  0.5595  0.9108
   86CHL1  H18A 8798   3.621   5.262   7.663  4.1184 -0.5198 -2.5619
   86CHL1  H18B 8799   3.639   5.358   7.511  0.1348 -0.0847  0.3887
   86CHL1  H18C 8800   3.602   5.441   7.663  2.0309  0.6268  0.4126
   86CHL1   C12 8801   3.417   5.207   7.477 -0.2582  0.8994 -0.0665
   86CHL1  H12A 8802   3.465   5.119   7.524  2.0384  1.5225 -1.1049
   86CHL1  H12B 8803   3.307   5.190   7.468 -0.4943  2.1025  0.3846
   86CHL1   C11 8804   3.492   5.219   7.345 -0.1916 -0.1716 -0.5021
   86CHL1  H11A 8805   3.602   5.233   7.356 -0.3485  1.0698 -0.4356
   86CHL1  H11B 8806   3.468   5.128   7.285  0.4558 -0.5728 -0.1779
   86CHL1    C9 8807   3.435   5.330   7.256  0.1952  0.1736 -0.4994
   86CHL1    H9 8808   3.328   5.299   7.255 -0.1371  1.2654 -0.3085
   86CHL1   C10 8809   3.494   5.352   7.112 -0.0617  0.3401  0.3081
   86CHL1   C19 8810   3.648   5.369   7.124  0.3302  0.1372  0.0520
   86CHL1  H19A 8811   3.677   5.449   7.196  1.5157 -0.7791  0.6440
   86CHL1  H19B 8812   3.688   5.275   7.167  0.8548 -0.6027 -1.9234
   86CHL1  H19C 8813   3.700   5.384   7.027 -0.3401 -1.8440 -0.6463
   86CHL1    C1 8814   3.465   5.228   7.026 -0.8608 -0.0299 -0.1889
   86CHL1   H1A 8815   3.527   5.145   7.066 -0.1426  1.2647  1.4766
   86CHL1   H1B 8816   3.359   5.196   7.032 -0.1759 -2.7739 -1.1627
   86CHL1    C2 8817   3.495   5.246   6.880  0.0097 -0.6520  0.0560
   86CHL1   H2A 8818   3.452   5.156   6.831  1.7300 -1.6919  0.3722
   86CHL1   H2B 8819   3.603   5.240   6.855  0.2519  3.4075 -0.6255
   86CHL1   C20 8820   3.380   5.268   7.823  0.3676  0.1857  0.4060
   86CHL1   H20 8821   3.489   5.278   7.841  0.9320 -2.4008 -1.0715
   86CHL1   C21 8822   3.348   5.117   7.796  0.3463 -0.1372  0.0131
   86CHL1  H21A 8823   3.364   5.060   7.891 -0.0242 -0.5916 -0.1931
   86CHL1  H21B 8824   3.421   5.075   7.723  1.8465 -0.5562  1.6537
   86CHL1  H21C 8825   3.244   5.106   7.760 -0.0858 -0.8815  1.4337
   86CHL1   C22 8826   3.300   5.325   7.946 -0.5450 -0.0931 -0.1790
   86CHL1  H22A 8827   3.339   5.429   7.957 -0.6104  0.1190 -1.7710
   86CHL1  H22B 8828   3.194   5.325   7.914 -0.1384 -0.4016 -1.5648
   86CHL1   C23 8829   3.313   5.256   8.081 -0.1730 -0.6828 -0.7732
   86CHL1  H23A 8830   3.246   5.168   8.072 -1.2794 -0.4378  3.1876
   86CHL1  H23B 8831   3.412   5.214   8.109  0.0646  1.4327  2.0033
   86CHL1   C24 8832   3.265   5.341   8.199 -0.7189  0.4677 -0.4763
   86CHL1  H24A 8833   3.346   5.412   8.229 -0.2195 -0.0174 -0.6543
   86CHL1  H24B 8834   3.180   5.401   8.160 -0.7069  0.5991 -0.3032
   86CHL1   C25 8835   3.209   5.258   8.320  0.2188  0.5902 -0.1086
   86CHL1   H25 8836   3.165   5.164   8.281 -3.0530  2.0384 -0.2585
   86CHL1   C26 8837   3.313   5.203   8.409  0.1069  0.1339  0.5525
   86CHL1  H26A 8838   3.277   5.124   8.478 -1.3125  1.6784  1.6963
   86CHL1  H26B 8839   3.388   5.165   8.337 -0.5557 -0.2954  0.0726
   86CHL1  H26C 8840   3.352   5.291   8.465 -0.2706 -0.4577  1.7710
   86CHL1   C27 8841   3.093   5.318   8.400 -0.1783  0.4350  0.0186
   86CHL1  H27A 8842   3.119   5.409   8.459 -1.2243 -0.1329  1.4186
   86CHL1  H27B 8843   3.007   5.339   8.333 -0.9359 -0.5778  0.6424
   86CHL1  H27C 8844   3.058   5.242   8.473  3.2550 -0.6502  0.7372
   87CHL1    C3 8845   5.639   1.893   6.877  0.2790  0.2011 -0.0812
   87CHL1    H3 8846   5.595   1.794   6.851 -0.7357  0.3277  1.0980
   87CHL1    O3 8847   5.713   1.938   6.765  0.3885 -0.4410 -0.1793
   87CHL1   H3' 8848   5.726   2.033   6.777 -2.8154 -0.0449  1.1633
   87CHL1    C4 8849   5.524   1.990   6.904 -0.5193 -0.2656 -0.1135
   87CHL1   H4A 8850   5.567   2.092   6.917 -0.9175 -0.3775  2.4606
   87CHL1   H4B 8851   5.453   2.002   6.819 -1.2502  1.1479  0.6697
   87CHL1    C5 8852   5.452   1.983   7.036  0.2440  0.6025 -0.3799
   87CHL1    C6 8853   5.320   1.972   7.032 -0.1618  0.2356 -0.0582
   87CHL1    H6 8854   5.263   1.974   6.938 -0.5800  2.5336  0.2006
   87CHL1    C7 8855   5.239   1.962   7.155  0.6629  0.2338 -0.5855
   87CHL1   H7A 8856   5.148   2.024   7.138  0.6916  0.7165  0.9199
   87CHL1   H7B 8857   5.197   1.863   7.183  1.5379  0.1784  0.5862
   87CHL1    C8 8858   5.312   2.007   7.286  1.1960 -0.4644  1.0329
   87CHL1    H8 8859   5.325   2.118   7.291 -2.3670  0.0729  0.4687
   87CHL1   C14 8860   5.242   1.976   7.414  1.5398 -0.3609  0.0865
   87CHL1   H14 8861   5.234   1.865   7.413  0.2943 -0.2826 -0.7268
   87CHL1   C15 8862   5.096   2.028   7.422  0.7319 -0.2773  0.1037
   87CHL1  H15A 8863   5.084   2.126   7.371  1.4877 -0.0560  0.3316
   87CHL1  H15B 8864   5.032   1.948   7.379 -0.5815  0.9080 -0.2244
   87CHL1   C16 8865   5.073   2.049   7.572  0.3320 -0.2998 -0.7288
   87CHL1  H16A 8866   5.068   2.159   7.586 -0.7409 -0.2966 -1.0350
   87CHL1  H16B 8867   4.976   2.015   7.615  2.1128 -0.4205  3.7236
   87CHL1   C17 8868   5.197   1.986   7.652  0.6526  0.2587  0.0750
   87CHL1   H17 8869   5.177   1.878   7.662  2.2526 -0.1308 -0.5417
   87CHL1   C13 8870   5.316   2.012   7.545  0.0514  0.2580 -0.0908
   87CHL1   C18 8871   5.353   2.157   7.536 -0.1018 -0.4247 -0.3637
   87CHL1  H18A 8872   5.446   2.172   7.476  0.8576 -2.0015  0.6407
   87CHL1  H18B 8873   5.281   2.232   7.498 -1.0021 -1.7016 -1.2372
   87CHL1  H18C 8874   5.380   2.194   7.637 -1.2211 -0.8388  0.0922
   87CHL1   C12 8875   5.439   1.917   7.549 -0.2391 -0.6510  0.4559
   87CHL1  H12A 8876   5.505   1.937   7.636  1.3234 -0.5697 -0.6962
   87CHL1  H12B 8877   5.402   1.813   7.558 -0.8487 -0.4576  0.2075
   87CHL1   C11 8878   5.526   1.934   7.421  0.0753 -0.5217  0.2748
   87CHL1  H11A 8879   5.579   2.032   7.431  2.9629 -2.1608  2.9646
   87CHL1  H11B 8880   5.609   1.861   7.406  1.1343  0.4139  1.3269
   87CHL1    C9 8881   5.453   1.935   7.283  0.0863 -0.2570 -0.3397
   87CHL1    H9 8882   5.433   1.827   7.265 -1.1753 -0.4557  1.8696
   87CHL1   C10 8883   5.539   1.982   7.157  0.0362  0.1322  0.1398
   87CHL1   C19 8884   5.578   2.137   7.171 -0.0334  1.4523  0.2073
   87CHL1  H19A 8885   5.658   2.160   7.098  0.7169 -2.5418 -0.4392
   87CHL1  H19B 8886   5.485   2.197   7.165 -0.2750  0.9104 -2.1224
   87CHL1  H19C 8887   5.631   2.143   7.269 -0.7484 -1.3898  0.8689
   87CHL1    C1 8888   5.660   1.878   7.129 -0.2510  0.0240 -0.0264
   87CHL1   H1A 8889   5.726   1.898   7.216 -1.2928  0.2996  0.7243
   87CHL1   H1B 8890   5.618   1.775   7.129  0.3872 -0.2396 -0.1426
   87CHL1    C2 8891   5.731   1.890   6.994 -0.5728  1.0286 -0.0077
   87CHL1   H2A 8892   5.801   1.806   6.975 -0.8025  1.0127 -0.8555
   87CHL1   H2B 8893   5.785   1.987   7.000  2.5686 -0.3234 -3.0720
   87CHL1   C20 8894   5.196   2.059   7.786  0.4649  0.6275  0.0319
   87CHL1   H20 8895   5.198   2.169   7.771  0.1031  0.4440 -1.4636
   87CHL1   C21 8896   5.328   2.029   7.859  0.1664  0.4213 -0.0795
   87CHL1  H21A 8897   5.327   1.918   7.862 -1.1053  0.2635 -2.7955
   87CHL1  H21B 8898   5.345   2.061   7.964 -1.9826  0.1092  0.4090
   87CHL1  H21C 8899   5.414   2.055   7.793 -2.5695  2.9462 -2.9923
   87CHL1   C22 8900   5.076   2.024   7.882  0.3375  0.7397  0.3229
   87CHL1  H22A 8901   4.987   2.061   7.828  0.6685  3.2994  1.3949
   87CHL1  H22B 8902   5.067   1.915   7.900 -0.7741  1.1638  2.8152
   87CHL1   C23 8903   5.093   2.103   8.009  0.4034  0.2144 -0.6714
   87CHL1  H23A 8904   5.154   2.059   8.091  0.2834  2.2526  0.5898
   87CHL1  H23B 8905   5.151   2.194   7.986 -1.2771  1.4442 -0.2639
   87CHL1   C24 8906   4.949   2.124   8.067 -1.2024  0.2037  0.2731
   87CHL1  H24A 8907   4.897   2.179   7.986  1.2226  0.4371 -1.2394
   87CHL1  H24B 8908   4.910   2.024   8.093 -0.0086  0.0903  1.7566
   87CHL1   C25 8909   4.936   2.218   8.197  0.0922  0.6407  0.6868
   87CHL1   H25 8910   4.828   2.197   8.212  0.1432 -0.7222 -0.5509
   87CHL1   C26 8911   5.014   2.161   8.316 -0.2744 -0.0328  0.1330
   87CHL1  H26A 8912   4.967   2.065   8.346  2.4045 -0.4174  3.7031
   87CHL1  H26B 8913   5.121   2.148   8.292 -0.4300  1.6105 -1.7900
   87CHL1  H26C 8914   5.006   2.223   8.408  1.4593 -0.8283  0.8502
   87CHL1   C27 8915   4.967   2.363   8.162  0.3521 -0.4342 -0.3871
   87CHL1  H27A 8916   5.077   2.376   8.156  0.2109  0.3301 -1.6936
   87CHL1  H27B 8917   4.919   2.412   8.075  0.0285  0.4039  0.2492
   87CHL1  H27C 8918   4.959   2.433   8.248  2.3211  1.8854 -1.9561
   88CHL1    C3 8919   0.865   0.886   7.027 -0.0494 -0.2790  0.0794
   88CHL1    H3 8920   0.959   0.874   7.085 -0.1447  0.4535  0.3985
   88CHL1    O3 8921   0.901   0.879   6.894 -0.3217 -0.2909  0.1034
   88CHL1   H3' 8922   0.820   0.863   6.845  0.0280  0.8038 -0.8779
   88CHL1    C4 8923   0.778   0.763   7.060 -0.0431  0.2441  0.2379
   88CHL1   H4A 8924   0.689   0.755   6.994 -0.2087 -0.0598  0.4925
   88CHL1   H4B 8925   0.843   0.676   7.038  2.6904  1.2544  3.4341
   88CHL1    C5 8926   0.742   0.757   7.206 -0.0067 -0.0360  0.4113
   88CHL1    C6 8927   0.794   0.655   7.289 -0.0721 -0.1311 -0.4454
   88CHL1    H6 8928   0.849   0.572   7.242 -2.5999 -1.2017 -1.6657
   88CHL1    C7 8929   0.767   0.657   7.435 -0.4546 -0.6190 -0.5397
   88CHL1   H7A 8930   0.743   0.551   7.460  1.7109 -0.7487  1.3108
   88CHL1   H7B 8931   0.859   0.687   7.489 -0.5928 -1.8302  0.4227
   88CHL1    C8 8932   0.657   0.753   7.485  0.5823 -0.6163 -0.4359
   88CHL1    H8 8933   0.558   0.717   7.451  0.3994  0.6113 -1.2796
   88CHL1   C14 8934   0.647   0.768   7.638  0.1860 -0.1186 -0.0388
   88CHL1   H14 8935   0.751   0.787   7.669  0.7231 -2.1791 -0.3980
   88CHL1   C15 8936   0.621   0.641   7.726 -0.3179 -0.5815  0.1374
   88CHL1  H15A 8937   0.536   0.583   7.684  0.6195  0.1473 -3.0875
   88CHL1  H15B 8938   0.705   0.569   7.720 -0.5620 -0.9830  1.2853
   88CHL1   C16 8939   0.591   0.704   7.866  0.2968  0.2420  0.5047
   88CHL1  H16A 8940   0.494   0.670   7.909  0.7018  1.0753  2.1961
   88CHL1  H16B 8941   0.662   0.682   7.948  0.8905  0.2412 -0.0067
   88CHL1   C17 8942   0.587   0.861   7.842 -0.4412  0.2169 -0.2360
   88CHL1   H17 8943   0.693   0.891   7.859 -1.0075  0.8987  2.5544
   88CHL1   C13 8944   0.564   0.885   7.693 -0.6123  0.6124  0.3529
   88CHL1   C18 8945   0.416   0.866   7.646 -0.4654 -0.1428 -0.0876
   88CHL1  H18A 8946   0.421   0.850   7.536 -1.2041  0.4080 -0.2036
   88CHL1  H18B 8947   0.381   0.772   7.695 -1.2217  0.8723  1.4007
   88CHL1  H18C 8948   0.350   0.950   7.675 -1.6920 -1.4000  0.8987
   88CHL1   C12 8949   0.615   1.015   7.632 -0.7504  0.3541 -0.1676
   88CHL1  H12A 8950   0.549   1.099   7.662  0.7196  2.2214 -1.8692
   88CHL1  H12B 8951   0.720   1.021   7.669 -0.9717  0.7462  0.4023
   88CHL1   C11 8952   0.622   1.017   7.483  0.3712 -0.1350  0.0574
   88CHL1  H11A 8953   0.515   1.027   7.453  0.0231  0.0421  1.2852
   88CHL1  H11B 8954   0.670   1.106   7.437 -0.2906  0.1626 -0.0756
   88CHL1    C9 8955   0.684   0.887   7.411  0.0412  0.3004  0.2109
   88CHL1    H9 8956   0.792   0.890   7.434  0.3794 -0.0406 -1.2180
   88CHL1   C10 8957   0.670   0.881   7.256  0.3559  0.2385  0.1410
   88CHL1   C19 8958   0.522   0.869   7.210 -0.6426 -0.1398  0.0642
   88CHL1  H19A 8959   0.492   0.762   7.215  0.7405 -0.6015 -1.0506
   88CHL1  H19B 8960   0.459   0.941   7.265  2.8691  3.3287 -0.0691
   88CHL1  H19C 8961   0.524   0.900   7.103 -0.2726  0.7726  0.3323
   88CHL1    C1 8962   0.728   1.016   7.190  0.0792  0.3685  0.4411
   88CHL1   H1A 8963   0.642   1.085   7.202 -0.7238  0.4524 -3.9492
   88CHL1   H1B 8964   0.803   1.036   7.269  1.1679 -0.5844 -0.3112
   88CHL1    C2 8965   0.781   1.008   7.053  0.2568 -0.6914 -0.2433
   88CHL1   H2A 8966   0.829   1.104   7.025 -2.4324  0.2541 -2.0612
   88CHL1   H2B 8967   0.700   1.011   6.976  1.3333  2.3756 -1.3740
   88CHL1   C20 8968   0.502   0.936   7.947  0.4138  0.4597 -0.5219
   88CHL1   H20 8969   0.401   0.892   7.939  1.1031 -1.3982  0.4568
   88CHL1   C21 8970   0.489   1.089   7.933  0.0637  0.0327  0.3328
   88CHL1  H21A 8971   0.589   1.135   7.949  0.6297 -0.8430 -0.5368
   88CHL1  H21B 8972   0.421   1.138   8.006  0.7210 -0.0207  0.9808
   88CHL1  H21C 8973   0.455   1.111   7.829 -1.0005 -1.8315  0.2285
   88CHL1   C22 8974   0.544   0.900   8.088 -0.1300  0.6325  0.4934
   88CHL1  H22A 8975   0.537   0.790   8.105  2.0214 -0.2032 -2.9705
   88CHL1  H22B 8976   0.652   0.925   8.100 -0.2024  0.5098  1.4879
   88CHL1   C23 8977   0.467   0.972   8.205 -0.4186  0.5097  0.9658
   88CHL1  H23A 8978   0.522   0.939   8.296  1.8022 -1.1411 -0.8534
   88CHL1  H23B 8979   0.487   1.082   8.199  2.2459  0.0961  0.6721
   88CHL1   C24 8980   0.319   0.939   8.199  0.1245 -0.6231  0.4181
   88CHL1  H24A 8981   0.284   0.961   8.096 -0.4082 -2.0373  0.2721
   88CHL1  H24B 8982   0.313   0.831   8.225  1.0566 -0.5301  1.0339
   88CHL1   C25 8983   0.230   1.018   8.299 -0.1555  0.5361 -0.1081
   88CHL1   H25 8984   0.242   1.124   8.267  0.0689  1.0195  1.4611
   88CHL1   C26 8985   0.081   0.992   8.281  0.0628 -0.0368 -0.6563
   88CHL1  H26A 8986   0.046   1.032   8.183  0.5228  1.6401 -0.1704
   88CHL1  H26B 8987   0.046   0.888   8.301 -2.4342  0.4750 -1.8817
   88CHL1  H26C 8988   0.027   1.044   8.363 -0.7696 -0.9764 -0.5951
   88CHL1   C27 8989   0.273   0.994   8.446 -0.1282 -0.0817 -1.2174
   88CHL1  H27A 8990   0.244   0.890   8.475 -2.1407  0.4651 -1.0836
   88CHL1  H27B 8991   0.379   1.017   8.468  0.3171 -1.4354 -1.7918
   88CHL1  H27C 8992   0.205   1.063   8.501 -1.2674 -1.6850 -0.5265
   89CHL1    C3 8993   5.075   4.877   7.062  0.0694  0.1990  0.1204
   89CHL1    H3 8994   4.987   4.812   7.081 -0.2221  0.8270  1.0203
   89CHL1    O3 8995   5.091   4.877   6.923 -0.6702 -0.0861 -0.1313
   89CHL1   H3' 8996   5.041   4.951   6.890 -0.2436 -1.0546 -3.2343
   89CHL1    C4 8997   5.047   5.023   7.121  0.5279 -0.0283  0.0037
   89CHL1   H4A 8998   5.127   5.098   7.101  2.0163 -1.3513  0.7056
   89CHL1   H4B 8999   4.955   5.059   7.071  1.7004  1.1990 -1.4028
   89CHL1    C5 9000   5.029   4.998   7.269 -0.6993 -0.7342 -0.5492
   89CHL1    C6 9001   4.918   5.038   7.322  0.3369 -0.3618 -0.4031
   89CHL1    H6 9002   4.856   5.105   7.261 -0.1921 -0.0719  0.4361
   89CHL1    C7 9003   4.892   5.024   7.472  0.1557 -0.6357  0.3784
   89CHL1   H7A 9004   4.836   5.114   7.504  0.3114 -1.1356  2.2017
   89CHL1   H7B 9005   4.824   4.937   7.485  0.3993 -0.8321  0.3658
   89CHL1    C8 9006   5.017   4.998   7.562  0.0012 -0.2612  0.4842
   89CHL1    H8 9007   5.081   5.088   7.574  1.7181 -0.8564 -2.7798
   89CHL1   C14 9008   4.977   4.955   7.701  0.8035  0.7092  0.1732
   89CHL1   H14 9009   4.915   4.863   7.689  1.5643 -0.0508  1.6373
   89CHL1   C15 9010   4.890   5.060   7.765  0.0301 -0.1427  0.4391
   89CHL1  H15A 9011   4.940   5.160   7.759  0.3195 -0.2032  1.5605
   89CHL1  H15B 9012   4.784   5.048   7.735  0.0025  2.1385 -0.6231
   89CHL1   C16 9013   4.902   5.021   7.911  0.3312  0.0679  0.2127
   89CHL1  H16A 9014   4.929   5.106   7.979 -2.5602  0.8908  0.4371
   89CHL1  H16B 9015   4.802   4.983   7.941  0.1693 -0.1337 -0.5815
   89CHL1   C17 9016   4.999   4.897   7.926  0.3638 -0.0894 -0.2557
   89CHL1   H17 9017   4.944   4.803   7.905 -0.6372  0.2216  0.8565
   89CHL1   C13 9018   5.088   4.915   7.799  0.1572 -0.2725 -0.6847
   89CHL1   C18 9019   5.179   5.038   7.834 -0.2445  0.1769  0.5502
   89CHL1  H18A 9020   5.230   5.074   7.742  1.0730 -1.9395  0.3718
   89CHL1  H18B 9021   5.132   5.122   7.888 -1.3543  0.1063 -0.2658
   89CHL1  H18C 9022   5.266   5.007   7.897  2.9956  2.8729 -2.2197
   89CHL1   C12 9023   5.162   4.802   7.727 -0.0746  0.3095  0.2915
   89CHL1  H12A 9024   5.248   4.766   7.787 -0.5549  0.4178  1.0588
   89CHL1  H12B 9025   5.090   4.720   7.704  0.2160  0.7031 -2.3724
   89CHL1   C11 9026   5.221   4.848   7.585 -0.5769  0.6354 -0.0257
   89CHL1  H11A 9027   5.291   4.933   7.602 -0.0036  0.5318 -1.7111
   89CHL1  H11B 9028   5.277   4.760   7.548 -2.1918 -0.3088 -0.3039
   89CHL1    C9 9029   5.104   4.894   7.493  0.1495  0.5313  0.0017
   89CHL1    H9 9030   5.042   4.803   7.490  0.7357  0.1321 -0.2076
   89CHL1   C10 9031   5.140   4.921   7.342 -0.1379 -0.3663  0.2469
   89CHL1   C19 9032   5.259   5.020   7.354 -0.0397  0.0274  0.1502
   89CHL1  H19A 9033   5.249   5.100   7.431 -3.5081 -0.2997  0.1903
   89CHL1  H19B 9034   5.355   4.968   7.376 -2.0332 -3.0277  2.3938
   89CHL1  H19C 9035   5.284   5.058   7.253  0.0448 -1.5177 -0.4342
   89CHL1    C1 9036   5.178   4.787   7.273  0.2213  0.0651  0.2423
   89CHL1   H1A 9037   5.266   4.737   7.318 -1.4732 -3.7555 -0.2573
   89CHL1   H1B 9038   5.092   4.716   7.280  1.6549 -2.1439 -2.7139
   89CHL1    C2 9039   5.198   4.801   7.124 -0.0582 -0.3168 -0.4294
   89CHL1   H2A 9040   5.212   4.700   7.078 -2.8408 -0.6974 -0.6513
   89CHL1   H2B 9041   5.284   4.866   7.098  1.0435 -1.9137 -0.9988
   89CHL1   C20 9042   5.062   4.880   8.062  0.5267 -0.2345 -0.5717
   89CHL1   H20 9043   5.107   4.978   8.090 -2.2468  1.4409 -1.5595
   89CHL1   C21 9044   5.169   4.772   8.047 -0.1394  0.4098  0.5526
   89CHL1  H21A 9045   5.131   4.688   7.985  2.5692 -0.9033  0.5192
   89CHL1  H21B 9046   5.196   4.735   8.148  0.9499  1.0219  0.5041
   89CHL1  H21C 9047   5.259   4.817   7.998 -0.3290 -0.1348 -0.3301
   89CHL1   C22 9048   4.968   4.834   8.175  0.3745 -0.1087 -0.4547
   89CHL1  H22A 9049   4.866   4.875   8.155  0.6368  1.2090  0.7751
   89CHL1  H22B 9050   4.959   4.724   8.182  2.1358 -0.3175 -1.1514
   89CHL1   C23 9051   5.022   4.890   8.308  0.2300 -0.1666 -0.5567
   89CHL1  H23A 9052   5.119   4.838   8.325 -0.0782 -1.7600 -3.2790
   89CHL1  H23B 9053   5.032   4.999   8.286  1.9588  0.1331  1.3634
   89CHL1   C24 9054   4.926   4.867   8.432 -0.1714 -0.0614  0.2066
   89CHL1  H24A 9055   4.918   4.756   8.431  0.0835 -0.0759 -0.1459
   89CHL1  H24B 9056   4.983   4.904   8.520  1.7142  0.3239 -1.1234
   89CHL1   C25 9057   4.792   4.937   8.424  0.4860 -0.5203  0.4171
   89CHL1   H25 9058   4.743   4.913   8.327 -0.1741 -0.0744  0.6282
   89CHL1   C26 9059   4.700   4.898   8.531 -0.3862  0.2207 -0.0438
   89CHL1  H26A 9060   4.607   4.954   8.506  0.2655  1.4552  0.2333
   89CHL1  H26B 9061   4.673   4.790   8.522 -3.0159  0.6886  1.2812
   89CHL1  H26C 9062   4.751   4.932   8.623  2.1526  1.7262 -1.8684
   89CHL1   C27 9063   4.788   5.086   8.423 -1.0084 -0.8583  0.2165
   89CHL1  H27A 9064   4.685   5.123   8.441 -0.3342  0.1976  2.2115
   89CHL1  H27B 9065   4.861   5.110   8.504 -4.0703  0.7214  2.7293
   89CHL1  H27C 9066   4.819   5.135   8.328 -1.5524 -1.4650 -0.2858
   90CHL1    C3 9067   5.512   6.105   7.062  0.4200  0.2828  0.1632
   90CHL1    H3 9068   5.412   6.059   7.077 -0.0108  0.7526 -1.1709
   90CHL1    O3 9069   5.511   6.184   6.947 -0.1695  0.1736  0.0325
   90CHL1   H3' 9070   5.506   6.123   6.873  0.8378  0.9390 -0.6983
   90CHL1    C4 9071   5.542   6.202   7.176  0.4011 -0.1837 -0.6359
   90CHL1   H4A 9072   5.636   6.259   7.163 -1.7472  3.2428 -2.7645
   90CHL1   H4B 9073   5.460   6.277   7.175  0.6242  0.0868 -2.6676
   90CHL1    C5 9074   5.540   6.132   7.318  0.5766  0.0113  0.8175
   90CHL1    C6 9075   5.449   6.170   7.415 -0.4726 -0.1343  0.1156
   90CHL1    H6 9076   5.371   6.246   7.397  0.3864  0.7835  0.1672
   90CHL1    C7 9077   5.432   6.104   7.548 -0.1725 -0.1771 -0.0142
   90CHL1   H7A 9078   5.416   6.182   7.625 -2.1907  1.5209 -2.0269
   90CHL1   H7B 9079   5.349   6.031   7.558 -1.6869  1.3543 -0.9854
   90CHL1    C8 9080   5.562   6.019   7.581 -0.4965 -0.4857 -1.1702
   90CHL1    H8 9081   5.646   6.088   7.600 -1.1089  0.6681 -2.5297
   90CHL1   C14 9082   5.540   5.934   7.710  0.7578  0.5557 -0.2169
   90CHL1   H14 9083   5.458   5.861   7.695  0.6444 -0.1963  3.3834
   90CHL1   C15 9084   5.491   6.003   7.841  0.2224 -0.5316  0.2378
   90CHL1  H15A 9085   5.549   6.097   7.855 -0.3632 -0.3830  2.0025
   90CHL1  H15B 9086   5.380   6.006   7.834  0.2933 -0.7076 -1.1361
   90CHL1   C16 9087   5.515   5.910   7.957  0.0655  0.4486  0.1781
   90CHL1  H16A 9088   5.574   5.963   8.035  0.7323  0.0641 -0.0537
   90CHL1  H16B 9089   5.424   5.869   8.004 -1.3008  3.1203  0.0581
   90CHL1   C17 9090   5.613   5.802   7.889  0.3615 -0.2528 -0.5851
   90CHL1   H17 9091   5.534   5.728   7.864 -0.1946 -0.1573  0.7989
   90CHL1   C13 9092   5.662   5.859   7.756  0.4182  0.9193  0.4242
   90CHL1   C18 9093   5.779   5.958   7.779  0.6175  0.3851  0.8166
   90CHL1  H18A 9094   5.815   6.013   7.690 -1.4827 -0.3095 -0.5212
   90CHL1  H18B 9095   5.757   6.036   7.855  0.6524  0.7056  0.4964
   90CHL1  H18C 9096   5.869   5.907   7.822 -0.1277 -0.5867  1.2649
   90CHL1   C12 9097   5.692   5.750   7.645  1.0063  0.1601 -0.1527
   90CHL1  H12A 9098   5.771   5.679   7.675 -0.8084 -0.2811  4.4781
   90CHL1  H12B 9099   5.595   5.695   7.639  1.8264 -1.3423  0.0499
   90CHL1   C11 9100   5.706   5.821   7.511  0.2691 -0.7732  0.0791
   90CHL1  H11A 9101   5.806   5.870   7.518  1.9764 -3.9352  0.0693
   90CHL1  H11B 9102   5.724   5.735   7.442 -0.2589 -2.0214  1.4340
   90CHL1    C9 9103   5.596   5.932   7.465  0.2855  0.8359 -0.3461
   90CHL1    H9 9104   5.504   5.879   7.433 -1.1000  3.9268 -1.7931
   90CHL1   C10 9105   5.629   6.007   7.334 -0.0068 -0.1486  0.1137
   90CHL1   C19 9106   5.773   6.065   7.333 -0.0494  0.1500 -0.4803
   90CHL1  H19A 9107   5.796   6.144   7.258 -0.2462  1.8776  1.1836
   90CHL1  H19B 9108   5.781   6.116   7.431  2.0010 -0.5173 -0.2550
   90CHL1  H19C 9109   5.850   5.985   7.327  2.0740  1.6378  3.3400
   90CHL1    C1 9110   5.601   5.916   7.208 -0.3633  0.3973 -0.5437
   90CHL1   H1A 9111   5.682   5.840   7.211 -1.2720 -0.5888 -0.3692
   90CHL1   H1B 9112   5.509   5.854   7.216  1.1938 -1.7005  3.8178
   90CHL1    C2 9113   5.613   5.992   7.067 -0.2334 -0.5808 -0.3622
   90CHL1   H2A 9114   5.599   5.918   6.985 -1.8735  0.8899 -1.4864
   90CHL1   H2B 9115   5.707   6.051   7.062 -0.6583  0.3819  1.7285
   90CHL1   C20 9116   5.718   5.738   7.985 -0.3048  0.5448  0.4591
   90CHL1   H20 9117   5.787   5.818   8.020  1.9406 -0.8739 -0.4643
   90CHL1   C21 9118   5.812   5.630   7.921 -0.7159 -0.2373  0.1078
   90CHL1  H21A 9119   5.877   5.664   7.838 -2.5298 -1.0005 -1.7256
   90CHL1  H21B 9120   5.758   5.536   7.897  0.3998 -1.0358  0.6093
   90CHL1  H21C 9121   5.894   5.614   7.995  0.2452  0.8651 -0.6785
   90CHL1   C22 9122   5.650   5.668   8.104 -0.1882  0.4397 -0.4982
   90CHL1  H22A 9123   5.609   5.752   8.164 -0.8079  2.0905 -3.0724
   90CHL1  H22B 9124   5.581   5.601   8.049 -0.3364  1.9390 -2.2355
   90CHL1   C23 9125   5.738   5.581   8.198  0.3062 -0.2287  0.2938
   90CHL1  H23A 9126   5.754   5.481   8.151 -2.6702 -0.0037 -1.5020
   90CHL1  H23B 9127   5.837   5.622   8.228  0.7529  0.3404 -1.7991
   90CHL1   C24 9128   5.664   5.547   8.331 -0.4805 -0.4725  0.3687
   90CHL1  H24A 9129   5.594   5.630   8.352  2.0275  2.0685 -0.7413
   90CHL1  H24B 9130   5.602   5.459   8.302 -0.2247  0.2184 -2.6691
   90CHL1   C25 9131   5.751   5.513   8.457 -0.1900 -0.0854  0.3284
   90CHL1   H25 9132   5.829   5.592   8.462 -1.4252  1.2584 -0.5911
   90CHL1   C26 9133   5.678   5.532   8.589  0.1354  0.4245 -0.5591
   90CHL1  H26A 9134   5.741   5.536   8.680 -0.0545  0.2256 -0.4184
   90CHL1  H26B 9135   5.636   5.635   8.595 -1.5738 -0.2843  0.5371
   90CHL1  H26C 9136   5.586   5.470   8.592 -1.4777  2.6687 -0.6559
   90CHL1   C27 9137   5.818   5.376   8.444  0.2588  0.4751 -0.3103
   90CHL1  H27A 9138   5.752   5.288   8.426  2.8908 -1.5513 -0.7029
   90CHL1  H27B 9139   5.889   5.377   8.358  0.8633 -0.0984  0.1691
   90CHL1  H27C 9140   5.886   5.359   8.530 -0.2915 -0.8796 -0.1053
   91CHL1    C3 9141   6.273   6.508   7.287  0.3371  0.0757 -0.3661
   91CHL1    H3 9142   6.343   6.590   7.315 -0.4361  0.4554  0.4877
   91CHL1    O3 9143   6.269   6.489   7.146 -0.5909 -0.1487 -0.2477
   91CHL1   H3' 9144   6.208   6.417   7.126  2.0690 -2.7475  0.3120
   91CHL1    C4 9145   6.316   6.375   7.346  0.1934 -0.5107 -0.1004
   91CHL1   H4A 9146   6.266   6.285   7.303  0.6664 -1.1009  0.5600
   91CHL1   H4B 9147   6.421   6.360   7.315  2.0991 -0.1077  5.1962
   91CHL1    C5 9148   6.303   6.363   7.495 -1.0631 -0.0239  0.2528
   91CHL1    C6 9149   6.409   6.332   7.580 -0.3211 -0.3396  0.9228
   91CHL1    H6 9150   6.507   6.300   7.542 -0.3034 -2.0126  2.2486
   91CHL1    C7 9151   6.398   6.318   7.724  0.1950  0.2636  0.1457
   91CHL1   H7A 9152   6.430   6.212   7.737 -1.7257 -0.2233  1.1320
   91CHL1   H7B 9153   6.461   6.393   7.777  0.8798  1.3080 -2.0100
   91CHL1    C8 9154   6.252   6.321   7.771 -0.0677 -0.9976 -0.2345
   91CHL1    H8 9155   6.208   6.221   7.753 -2.4016  0.0056 -0.4851
   91CHL1   C14 9156   6.249   6.330   7.927 -0.6872 -0.6313 -0.0733
   91CHL1   H14 9157   6.318   6.411   7.957 -1.3503 -1.0269  2.8150
   91CHL1   C15 9158   6.304   6.216   8.014 -0.6468  0.8623 -0.5490
   91CHL1  H15A 9159   6.253   6.122   7.982  0.6354  0.0144 -0.1584
   91CHL1  H15B 9160   6.414   6.209   7.998 -0.3435  2.1064  0.7472
   91CHL1   C16 9161   6.258   6.255   8.157  0.2735 -0.0498  0.0528
   91CHL1  H16A 9162   6.212   6.164   8.202  1.3336 -1.3364 -1.3574
   91CHL1  H16B 9163   6.328   6.299   8.231  0.5761  0.0843 -0.3067
   91CHL1   C17 9164   6.141   6.359   8.137 -1.1149 -0.2449  0.3747
   91CHL1   H17 9165   6.201   6.450   8.160 -0.4039 -0.4518 -0.5975
   91CHL1   C13 9166   6.115   6.360   7.983 -0.0770 -0.2915 -0.5308
   91CHL1   C18 9167   6.012   6.240   7.954  0.3563  0.1127 -0.2920
   91CHL1  H18A 9168   6.020   6.220   7.844 -0.2486 -1.2496 -0.1074
   91CHL1  H18B 9169   6.053   6.153   8.009 -0.2537  0.8408  1.3643
   91CHL1  H18C 9170   5.909   6.271   7.979  0.6554  0.2732  0.7890
   91CHL1   C12 9171   6.064   6.497   7.912  0.5246 -0.6808 -0.1538
   91CHL1  H12A 9172   5.980   6.543   7.968  0.9214 -0.2826  0.1179
   91CHL1  H12B 9173   6.145   6.573   7.916 -1.0897  1.0642  0.6309
   91CHL1   C11 9174   6.036   6.467   7.762  0.3321 -0.7991  0.0940
   91CHL1  H11A 9175   5.956   6.390   7.755  2.0204 -2.6731  0.2150
   91CHL1  H11B 9176   5.990   6.555   7.712  0.7375 -1.6269 -1.8307
   91CHL1    C9 9177   6.168   6.430   7.695  0.2984  0.0302  0.6797
   91CHL1    H9 9178   6.226   6.523   7.710  1.0912 -0.4869  0.9041
   91CHL1   C10 9179   6.167   6.412   7.542  0.5087 -0.2833 -1.1082
   91CHL1   C19 9180   6.042   6.329   7.506  0.6586 -0.5682 -0.7230
   91CHL1  H19A 9181   6.036   6.239   7.572  1.2666 -0.8848 -1.0957
   91CHL1  H19B 9182   5.946   6.383   7.514  1.1913  0.2818  0.0932
   91CHL1  H19C 9183   6.058   6.278   7.409  0.9372  0.5879 -1.2998
   91CHL1    C1 9184   6.135   6.553   7.488 -0.2440  0.0076  0.0087
   91CHL1   H1A 9185   6.035   6.596   7.509 -0.5638  0.0623 -1.4973
   91CHL1   H1B 9186   6.213   6.627   7.516 -2.2818  1.4467  2.3137
   91CHL1    C2 9187   6.135   6.554   7.332  0.0298 -0.4029 -0.5615
   91CHL1   H2A 9188   6.109   6.655   7.293  0.7349  0.0582  0.1479
   91CHL1   H2B 9189   6.057   6.488   7.289 -1.4729  1.4743 -0.8772
   91CHL1   C20 9190   6.021   6.359   8.232  0.0717  0.4251  0.1218
   91CHL1   H20 9191   5.969   6.269   8.194 -0.9478  0.6861  0.8654
   91CHL1   C21 9192   5.938   6.480   8.216  0.3777  0.1300  0.2052
   91CHL1  H21A 9193   5.999   6.573   8.218 -0.5501  0.8350 -1.5333
   91CHL1  H21B 9194   5.863   6.478   8.297  0.2916  0.0882  0.1243
   91CHL1  H21C 9195   5.870   6.473   8.128  0.4904 -1.0562  0.1953
   91CHL1   C22 9196   6.059   6.332   8.385  1.2144 -0.0714 -0.0739
   91CHL1  H22A 9197   5.968   6.327   8.447  1.0904 -0.0069 -0.2497
   91CHL1  H22B 9198   6.106   6.232   8.398  2.1812  0.4012  0.2071
   91CHL1   C23 9199   6.159   6.433   8.435  0.0100  0.2643 -0.1178
   91CHL1  H23A 9200   6.245   6.435   8.365  1.9983  0.5073  2.1833
   91CHL1  H23B 9201   6.119   6.536   8.440 -4.7451 -1.3980  1.1704
   91CHL1   C24 9202   6.219   6.404   8.582  0.0723 -0.1088  0.4557
   91CHL1  H24A 9203   6.251   6.298   8.584 -0.3156 -0.2305  0.3263
   91CHL1  H24B 9204   6.306   6.470   8.600 -1.2712  2.2577 -1.0920
   91CHL1   C25 9205   6.126   6.430   8.703 -0.9079 -0.1921 -0.2744
   91CHL1   H25 9206   6.189   6.456   8.791 -0.6689 -0.3983 -0.3825
   91CHL1   C26 9207   6.028   6.537   8.681  0.5428  0.6347 -0.1016
   91CHL1  H26A 9208   6.070   6.632   8.641  2.7193 -0.0714  0.3580
   91CHL1  H26B 9209   5.942   6.509   8.617 -0.6715  1.0322  1.3165
   91CHL1  H26C 9210   5.973   6.555   8.776  1.7947  0.4886  0.6704
   91CHL1   C27 9211   6.064   6.291   8.743 -0.0116 -0.0853  0.6040
   91CHL1  H27A 9212   5.990   6.299   8.825 -2.2511 -2.0678 -1.0765
   91CHL1  H27B 9213   6.011   6.246   8.656  1.8820 -0.2982 -0.4826
   91CHL1  H27C 9214   6.149   6.229   8.778  0.2457  0.2664  0.6053
   92CHL1    C3 9215   3.717   3.185   6.898  0.3385 -0.3920  0.7246
   92CHL1    H3 9216   3.610   3.155   6.897 -0.3349  1.8148  1.6800
   92CHL1    O3 9217   3.766   3.181   6.766 -1.0790  0.1606 -0.6540
   92CHL1   H3' 9218   3.698   3.229   6.718  0.6193  1.1704 -2.1631
   92CHL1    C4 9219   3.727   3.325   6.961  0.1288  0.1040  0.0977
   92CHL1   H4A 9220   3.829   3.364   6.945 -0.7832  3.1870  1.0299
   92CHL1   H4B 9221   3.665   3.386   6.892 -0.5695  0.4826  1.0421
   92CHL1    C5 9222   3.675   3.335   7.101  0.5062 -0.3404 -0.4126
   92CHL1    C6 9223   3.578   3.421   7.136 -0.1466  0.3932  0.0527
   92CHL1    H6 9224   3.538   3.492   7.062 -0.5774 -0.6138 -0.7009
   92CHL1    C7 9225   3.520   3.427   7.272  0.3261 -1.1871  0.6582
   92CHL1   H7A 9226   3.477   3.528   7.289  1.1751 -0.7233  0.1206
   92CHL1   H7B 9227   3.435   3.356   7.263  0.3906 -1.0228 -2.1487
   92CHL1    C8 9228   3.624   3.388   7.376 -0.2191  0.0423 -0.2772
   92CHL1    H8 9229   3.712   3.456   7.378 -0.4483  0.3389  1.6181
   92CHL1   C14 9230   3.564   3.381   7.518  0.5353  0.2530  0.7797
   92CHL1   H14 9231   3.475   3.315   7.508  0.4529  0.4694  0.0736
   92CHL1   C15 9232   3.518   3.514   7.585  0.6542  0.2918 -0.7045
   92CHL1  H15A 9233   3.599   3.590   7.587  1.4918 -0.5815 -0.7700
   92CHL1  H15B 9234   3.431   3.557   7.532 -0.4776 -0.4829  0.4501
   92CHL1   C16 9235   3.488   3.468   7.731  0.2421  0.2949 -0.0661
   92CHL1  H16A 9236   3.519   3.556   7.791 -0.4401  1.7823 -1.8180
   92CHL1  H16B 9237   3.379   3.454   7.741  0.0780  1.3927 -0.1714
   92CHL1   C17 9238   3.569   3.333   7.758 -0.6890  0.2526  0.4559
   92CHL1   H17 9239   3.486   3.261   7.741 -0.6357  0.6711 -2.0147
   92CHL1   C13 9240   3.650   3.312   7.627  0.1874 -0.7406 -0.1516
   92CHL1   C18 9241   3.781   3.392   7.646  0.3899 -0.4002  0.6125
   92CHL1  H18A 9242   3.768   3.487   7.701 -0.9166  0.2167 -0.6764
   92CHL1  H18B 9243   3.859   3.328   7.692 -0.4836 -1.4745  0.6320
   92CHL1  H18C 9244   3.821   3.421   7.546 -1.8433 -0.0796 -0.2311
   92CHL1   C12 9245   3.676   3.167   7.583 -0.1222 -0.2861 -0.8923
   92CHL1  H12A 9246   3.747   3.121   7.655 -1.4448 -0.5027  0.3118
   92CHL1  H12B 9247   3.584   3.105   7.576 -0.4083  0.1171 -0.7235
   92CHL1   C11 9248   3.749   3.170   7.455  0.3403 -0.4244  0.2625
   92CHL1  H11A 9249   3.841   3.231   7.468  0.1428 -0.4843  2.2502
   92CHL1  H11B 9250   3.773   3.071   7.410  0.6368 -1.5691  2.7583
   92CHL1    C9 9251   3.671   3.241   7.335  0.3545 -0.3884 -0.1167
   92CHL1    H9 9252   3.580   3.178   7.318  0.6701 -0.8668 -0.0542
   92CHL1   C10 9253   3.739   3.237   7.197  0.3546 -0.1427  0.5256
   92CHL1   C19 9254   3.890   3.265   7.224  0.0587 -0.1243  0.1323
   92CHL1  H19A 9255   3.945   3.281   7.129  1.9074 -1.8675  0.8224
   92CHL1  H19B 9256   3.898   3.353   7.291 -1.7490  1.3173 -1.4320
   92CHL1  H19C 9257   3.930   3.175   7.275 -0.5848 -0.1462  0.6239
   92CHL1    C1 9258   3.727   3.095   7.128  0.1861  0.3117  0.0991
   92CHL1   H1A 9259   3.777   3.019   7.192 -1.0393  0.4710  1.3038
   92CHL1   H1B 9260   3.624   3.059   7.110 -0.5175  2.7030 -1.0304
   92CHL1    C2 9261   3.786   3.086   6.991 -0.3997 -0.1392  0.0129
   92CHL1   H2A 9262   3.771   2.985   6.948 -1.6245  0.2992 -0.6451
   92CHL1   H2B 9263   3.897   3.086   6.991 -0.3641  1.4463  0.9754
   92CHL1   C20 9264   3.644   3.310   7.894  0.3614  0.4897  0.2805
   92CHL1   H20 9265   3.738   3.369   7.890  1.3809 -1.0458 -3.7790
   92CHL1   C21 9266   3.680   3.158   7.927 -0.5993  0.0245  0.4092
   92CHL1  H21A 9267   3.722   3.138   8.028 -1.8473  0.1054  0.9621
   92CHL1  H21B 9268   3.753   3.118   7.853  1.0908  0.1031  1.9585
   92CHL1  H21C 9269   3.588   3.097   7.915 -1.9002  1.9722 -0.0869
   92CHL1   C22 9270   3.557   3.364   8.007 -0.4792  0.4563 -0.3683
   92CHL1  H22A 9271   3.549   3.471   7.981  0.5410  0.4402 -0.8079
   92CHL1  H22B 9272   3.463   3.304   8.004 -0.1081 -0.0968 -1.5119
   92CHL1   C23 9273   3.624   3.363   8.147  0.1958 -0.2463 -0.8124
   92CHL1  H23A 9274   3.663   3.262   8.169  0.8410  0.2577  0.4806
   92CHL1  H23B 9275   3.704   3.440   8.137 -0.9514  0.7683 -2.8757
   92CHL1   C24 9276   3.519   3.389   8.253 -0.0641  0.4252  0.2459
   92CHL1  H24A 9277   3.473   3.487   8.227 -2.8570 -1.6147 -3.3884
   92CHL1  H24B 9278   3.432   3.321   8.246  0.8183 -0.9482  1.9210
   92CHL1   C25 9279   3.577   3.401   8.397  0.3194  0.7112 -0.0346
   92CHL1   H25 9280   3.643   3.312   8.404 -0.1151  0.4142  0.3787
   92CHL1   C26 9281   3.652   3.527   8.417  0.1229 -0.7027  0.2108
   92CHL1  H26A 9282   3.733   3.544   8.344  0.7151 -0.0290  0.9997
   92CHL1  H26B 9283   3.577   3.609   8.411  2.0095  0.9975 -1.7107
   92CHL1  H26C 9284   3.699   3.521   8.518 -2.0579  0.2947  1.3482
   92CHL1   C27 9285   3.467   3.382   8.499  0.2291  0.9420  0.5283
   92CHL1  H27A 9286   3.488   3.415   8.603 -0.1587 -0.9417  1.2351
   92CHL1  H27B 9287   3.394   3.459   8.466  0.5113  0.6170 -0.9571
   92CHL1  H27C 9288   3.417   3.284   8.486 -0.4582  1.5992 -2.5223
   93CHL1    C3 9289   2.759   4.965   6.619  0.7940 -1.0535  0.5470
   93CHL1    H3 9290   2.789   4.862   6.647 -0.4216 -1.5688  0.0246
   93CHL1    O3 9291   2.798   4.979   6.482 -0.1965  0.2107 -0.6026
   93CHL1   H3' 9292   2.746   5.047   6.439  2.4542  2.8256  0.0588
   93CHL1    C4 9293   2.603   4.977   6.639  0.3752 -0.0983  0.3158
   93CHL1   H4A 9294   2.576   5.080   6.606 -0.6408 -0.8196 -1.2014
   93CHL1   H4B 9295   2.544   4.918   6.566 -0.4146 -0.8113  1.5060
   93CHL1    C5 9296   2.559   4.946   6.781 -0.9992 -0.1166  0.1265
   93CHL1    C6 9297   2.476   4.845   6.811 -0.4344  0.0802 -0.5884
   93CHL1    H6 9298   2.435   4.785   6.729  1.4028 -2.5734  0.2919
   93CHL1    C7 9299   2.427   4.809   6.958  0.1282  0.2402 -0.1355
   93CHL1   H7A 9300   2.316   4.801   6.963 -0.0537  2.5881  1.2810
   93CHL1   H7B 9301   2.477   4.717   6.994 -0.8327 -0.9018 -1.6050
   93CHL1    C8 9302   2.466   4.921   7.057 -0.8268 -0.3502  0.8119
   93CHL1    H8 9303   2.386   4.997   7.040 -0.2428 -0.0192 -0.5370
   93CHL1   C14 9304   2.448   4.873   7.197  0.0129  0.0378 -0.5556
   93CHL1   H14 9305   2.521   4.791   7.214 -0.8737 -0.7651 -0.5365
   93CHL1   C15 9306   2.314   4.813   7.238 -0.5579 -0.0208 -0.1745
   93CHL1  H15A 9307   2.231   4.872   7.194 -2.2379 -3.0438 -1.3638
   93CHL1  H15B 9308   2.308   4.708   7.203 -2.1869 -0.1273  0.3829
   93CHL1   C16 9309   2.313   4.822   7.394 -0.1893 -0.7653  0.0336
   93CHL1  H16A 9310   2.236   4.895   7.427  1.8014  0.3809  2.4647
   93CHL1  H16B 9311   2.292   4.725   7.444 -3.3280 -0.5088 -0.5395
   93CHL1   C17 9312   2.462   4.876   7.426 -0.8939 -0.8555  0.4418
   93CHL1   H17 9313   2.528   4.788   7.411  2.1675  1.3314  0.2309
   93CHL1   C13 9314   2.491   4.966   7.307 -0.3009 -0.4584  0.1775
   93CHL1   C18 9315   2.403   5.093   7.302  0.0165 -0.1239  0.5594
   93CHL1  H18A 9316   2.295   5.078   7.323 -0.6513  2.6242 -0.6292
   93CHL1  H18B 9317   2.440   5.162   7.380 -0.8280  1.9646 -0.8210
   93CHL1  H18C 9318   2.420   5.152   7.210  2.5360  2.1280  2.3172
   93CHL1   C12 9319   2.641   5.004   7.284 -0.3919  0.5553  0.2952
   93CHL1  H12A 9320   2.677   5.073   7.363  1.2539 -0.7573  0.7459
   93CHL1  H12B 9321   2.703   4.913   7.293 -1.6425 -0.3515 -0.0268
   93CHL1   C11 9322   2.658   5.063   7.145  0.3583  0.6303  0.2555
   93CHL1  H11A 9323   2.602   5.158   7.152  1.0569  1.0075  0.9475
   93CHL1  H11B 9324   2.763   5.088   7.116 -0.3776  1.0504 -2.2692
   93CHL1    C9 9325   2.603   4.970   7.032 -0.3407 -0.1503 -0.0288
   93CHL1    H9 9326   2.653   4.871   7.026  1.3570  0.7052 -0.5621
   93CHL1   C10 9327   2.630   5.035   6.889 -0.4882  0.6253 -0.3585
   93CHL1   C19 9328   2.571   5.176   6.879 -0.6566 -0.1520  0.2726
   93CHL1  H19A 9329   2.466   5.167   6.915 -1.2059  1.5210 -0.8003
   93CHL1  H19B 9330   2.623   5.257   6.934 -0.6257 -0.1023  0.1706
   93CHL1  H19C 9331   2.564   5.209   6.773  0.5439 -0.8135 -0.0289
   93CHL1    C1 9332   2.779   5.042   6.857 -0.0059 -0.2037  0.2154
   93CHL1   H1A 9333   2.823   5.122   6.920 -0.5785  1.2390 -1.1514
   93CHL1   H1B 9334   2.833   4.951   6.892 -1.9106 -1.7909 -0.7193
   93CHL1    C2 9335   2.825   5.072   6.710  0.0020  0.0461 -0.8489
   93CHL1   H2A 9336   2.935   5.064   6.715  0.1459  0.8849 -2.1833
   93CHL1   H2B 9337   2.801   5.176   6.678 -0.9247  0.7391  1.8408
   93CHL1   C20 9338   2.480   4.936   7.569 -0.4751 -0.0361  0.2599
   93CHL1   H20 9339   2.474   5.047   7.563 -2.0260 -0.1647 -2.3746
   93CHL1   C21 9340   2.618   4.888   7.620  0.7218  0.8390  0.3511
   93CHL1  H21A 9341   2.647   4.934   7.717  1.6095  0.5574  0.2250
   93CHL1  H21B 9342   2.695   4.924   7.549  1.4331  0.4559  0.9106
   93CHL1  H21C 9343   2.621   4.777   7.622  1.6274  0.8597  0.4022
   93CHL1   C22 9344   2.367   4.897   7.665  0.7411  0.3774 -0.1504
   93CHL1  H22A 9345   2.266   4.910   7.621  0.3287 -2.9562 -0.4122
   93CHL1  H22B 9346   2.372   4.787   7.672 -0.4816  0.3683  0.9571
   93CHL1   C23 9347   2.378   4.969   7.806  0.5329  0.2433  0.4469
   93CHL1  H23A 9348   2.487   4.978   7.825  0.4996  0.2164  0.6520
   93CHL1  H23B 9349   2.329   5.068   7.795 -1.6846 -0.9215 -0.9285
   93CHL1   C24 9350   2.316   4.889   7.921  0.0203 -0.5522 -0.3050
   93CHL1  H24A 9351   2.206   4.888   7.913 -0.1745  1.9885  1.1739
   93CHL1  H24B 9352   2.357   4.786   7.930  0.7718 -0.1655  0.9779
   93CHL1   C25 9353   2.348   4.953   8.061  0.5975 -0.9278  0.0206
   93CHL1   H25 9354   2.337   5.063   8.051 -2.1659 -1.1847 -0.5055
   93CHL1   C26 9355   2.234   4.914   8.165 -0.0256  0.1749  0.3252
   93CHL1  H26A 9356   2.248   4.808   8.195 -0.2857  0.1495  0.3563
   93CHL1  H26B 9357   2.235   4.970   8.261 -0.2406 -1.1455  1.1197
   93CHL1  H26C 9358   2.134   4.920   8.117  0.3105 -1.3142 -0.6327
   93CHL1   C27 9359   2.479   4.913   8.113 -0.8277  0.0033  0.1199
   93CHL1  H27A 9360   2.477   4.806   8.142 -0.9555  0.2554  1.0908
   93CHL1  H27B 9361   2.570   4.918   8.049 -0.9724 -1.1799 -0.1911
   93CHL1  H27C 9362   2.504   4.964   8.209  1.0503 -2.5094  1.0545
   94CHL1    C3 9363   4.302   3.949   6.866 -0.1255 -0.0207 -0.3717
   94CHL1    H3 9364   4.237   4.036   6.843  1.0595  0.5525 -1.7282
   94CHL1    O3 9365   4.331   3.889   6.738 -0.1975  0.3000 -0.8571
   94CHL1   H3' 9366   4.274   3.813   6.723 -0.6269 -0.2836  2.9120
   94CHL1    C4 9367   4.433   4.011   6.922 -0.1107 -0.5423  0.6201
   94CHL1   H4A 9368   4.510   3.932   6.934  0.5417 -0.0112  0.0756
   94CHL1   H4B 9369   4.471   4.079   6.842  1.2772 -0.4193  1.3556
   94CHL1    C5 9370   4.406   4.073   7.058 -0.4011 -0.4855 -0.3891
   94CHL1    C6 9371   4.427   4.205   7.085  0.3863 -0.5976  0.7510
   94CHL1    H6 9372   4.469   4.266   7.004  2.2856  0.4923  2.4681
   94CHL1    C7 9373   4.405   4.265   7.216 -0.3797 -0.5213 -0.4002
   94CHL1   H7A 9374   4.496   4.323   7.242 -1.7412  0.7955  1.8962
   94CHL1   H7B 9375   4.330   4.348   7.220 -0.5926 -0.7037 -0.6078
   94CHL1    C8 9376   4.403   4.158   7.334  1.1191 -0.3007 -0.5455
   94CHL1    H8 9377   4.507   4.120   7.344  0.9288 -0.5713  0.5586
   94CHL1   C14 9378   4.362   4.226   7.463  0.4090  0.5626  0.1580
   94CHL1   H14 9379   4.261   4.271   7.448  0.6983  1.3118  0.4014
   94CHL1   C15 9380   4.446   4.338   7.527  0.2804 -0.4998 -0.7721
   94CHL1  H15A 9381   4.554   4.314   7.536  1.3579  3.9896  0.5190
   94CHL1  H15B 9382   4.434   4.432   7.469 -0.0894 -0.1326 -0.1067
   94CHL1   C16 9383   4.390   4.342   7.662 -0.3131 -0.6436  0.0386
   94CHL1  H16A 9384   4.461   4.347   7.748 -1.3307  1.7547  0.8116
   94CHL1  H16B 9385   4.318   4.424   7.679 -3.0850 -2.5439 -1.6359
   94CHL1   C17 9386   4.295   4.219   7.691  0.0511  0.0302 -0.3489
   94CHL1   H17 9387   4.189   4.245   7.670 -0.0149 -0.5549 -0.7597
   94CHL1   C13 9388   4.338   4.122   7.579 -0.0487 -0.4584 -0.4859
   94CHL1   C18 9389   4.476   4.068   7.620 -0.1460  0.1232 -0.1417
   94CHL1  H18A 9390   4.547   4.144   7.659  1.0248  1.0797 -3.7555
   94CHL1  H18B 9391   4.465   3.994   7.702  1.6998  1.1264  1.0902
   94CHL1  H18C 9392   4.532   4.027   7.534  3.2535 -0.0497  1.9609
   94CHL1   C12 9393   4.234   4.016   7.537 -0.1610 -0.5783 -0.5449
   94CHL1  H12A 9394   4.208   3.942   7.615  0.0996  0.8345  0.9434
   94CHL1  H12B 9395   4.139   4.062   7.503 -0.3609  0.5366  1.3584
   94CHL1   C11 9396   4.289   3.937   7.418 -0.0652 -0.2629  0.5029
   94CHL1  H11A 9397   4.382   3.880   7.442 -0.0200 -0.6766 -0.6163
   94CHL1  H11B 9398   4.209   3.866   7.389 -1.2522  0.3362  2.1705
   94CHL1    C9 9399   4.312   4.039   7.299  0.8481 -0.4000 -0.4820
   94CHL1    H9 9400   4.215   4.090   7.282  0.2661 -0.8062  1.3277
   94CHL1   C10 9401   4.357   3.972   7.164 -0.3693 -0.0486  0.0367
   94CHL1   C19 9402   4.480   3.872   7.193  0.8243 -0.1552 -0.2049
   94CHL1  H19A 9403   4.462   3.795   7.272 -4.0602  1.7638  0.9429
   94CHL1  H19B 9404   4.516   3.822   7.101 -0.6105 -1.2522 -0.2029
   94CHL1  H19C 9405   4.565   3.935   7.227  0.7238  0.0882 -0.4052
   94CHL1    C1 9406   4.238   3.899   7.101  0.3068  0.1386  0.2818
   94CHL1   H1A 9407   4.213   3.818   7.172  2.3539  1.2660  2.4176
   94CHL1   H1B 9408   4.152   3.969   7.113  0.2166  0.1341 -0.2727
   94CHL1    C2 9409   4.244   3.850   6.961 -0.5060 -0.1669 -0.1625
   94CHL1   H2A 9410   4.144   3.819   6.925 -0.6088  0.0409 -0.0575
   94CHL1   H2B 9411   4.304   3.757   6.951 -0.1144  0.1740 -1.0427
   94CHL1   C20 9412   4.298   4.159   7.839  0.6504  0.4990 -0.6813
   94CHL1   H20 9413   4.395   4.107   7.853 -0.0272 -0.7890 -0.6228
   94CHL1   C21 9414   4.186   4.055   7.850  0.2832  0.2249  0.0552
   94CHL1  H21A 9415   4.106   4.076   7.776 -0.5445  1.3404  1.2197
   94CHL1  H21B 9416   4.149   4.058   7.955  0.1289  1.2674 -0.0170
   94CHL1  H21C 9417   4.226   3.955   7.824 -1.4580 -0.1074 -1.5671
   94CHL1   C22 9418   4.280   4.262   7.943  0.6905  0.0754  0.7024
   94CHL1  H22A 9419   4.277   4.206   8.039  2.4685  1.5764  1.7133
   94CHL1  H22B 9420   4.370   4.326   7.956  1.0856 -0.3159 -0.0645
   94CHL1   C23 9421   4.147   4.332   7.945 -0.2908 -0.5186 -0.0251
   94CHL1  H23A 9422   4.144   4.410   7.867 -0.3005  0.9293  1.3616
   94CHL1  H23B 9423   4.061   4.262   7.933 -0.3010 -1.1064  2.7320
   94CHL1   C24 9424   4.122   4.418   8.074  0.2264  0.1786 -0.8925
   94CHL1  H24A 9425   4.167   4.368   8.163 -0.3604  0.1628 -0.6035
   94CHL1  H24B 9426   4.168   4.519   8.076 -1.3403  0.9166  0.6457
   94CHL1   C25 9427   3.971   4.434   8.107 -0.3964 -0.7403 -0.1325
   94CHL1   H25 9428   3.918   4.340   8.080  1.6735 -2.0626  0.2350
   94CHL1   C26 9429   3.942   4.451   8.256 -0.3912 -0.5498  0.7440
   94CHL1  H26A 9430   3.977   4.366   8.317 -2.7062 -1.3550  1.0585
   94CHL1  H26B 9431   3.994   4.546   8.281 -1.0700 -0.0984  0.4819
   94CHL1  H26C 9432   3.832   4.456   8.275 -0.9177 -3.9873 -0.6784
   94CHL1   C27 9433   3.921   4.563   8.028 -0.2344  0.2744 -0.2297
   94CHL1  H27A 9434   3.972   4.657   8.055 -0.1078 -0.5313  2.7080
   94CHL1  H27B 9435   3.946   4.529   7.925  2.1685 -0.2294  0.4376
   94CHL1  H27C 9436   3.812   4.575   8.045 -0.2094  1.2220 -0.6670
   95CHL1    C3 9437   2.938   6.679   6.706 -0.0694 -0.0745  0.1731
   95CHL1    H3 9438   3.000   6.591   6.735 -1.0763 -0.1478  2.2957
   95CHL1    O3 9439   2.918   6.678   6.569 -0.4525  0.0028  0.3363
   95CHL1   H3' 9440   2.865   6.757   6.560  1.4838  1.2852 -0.3306
   95CHL1    C4 9441   2.799   6.682   6.777  0.0868  0.6731 -0.4720
   95CHL1   H4A 9442   2.748   6.779   6.760 -1.5134 -0.0616 -0.0945
   95CHL1   H4B 9443   2.726   6.610   6.735 -0.2883 -0.2765  1.6665
   95CHL1    C5 9444   2.820   6.673   6.924  0.1339  0.0561 -0.3772
   95CHL1    C6 9445   2.769   6.566   6.990  0.0118  0.4273 -0.1107
   95CHL1    H6 9446   2.705   6.493   6.939 -0.5464  0.5005  0.4638
   95CHL1    C7 9447   2.772   6.556   7.137 -0.1893 -0.3596 -0.0767
   95CHL1   H7A 9448   2.681   6.523   7.192  1.2833  0.7421  3.3421
   95CHL1   H7B 9449   2.848   6.482   7.169 -1.7337 -2.1270 -0.3647
   95CHL1    C8 9450   2.807   6.690   7.210 -0.5410  0.8756 -0.5669
   95CHL1    H8 9451   2.719   6.758   7.208 -0.5640  0.8351 -0.9902
   95CHL1   C14 9452   2.853   6.667   7.354 -0.1043 -0.3100  0.3398
   95CHL1   H14 9453   2.930   6.589   7.366  0.3454  0.1457  0.4493
   95CHL1   C15 9454   2.742   6.620   7.445  0.8798  0.2654  0.8072
   95CHL1  H15A 9455   2.653   6.684   7.429 -0.6711 -1.6702  1.2884
   95CHL1  H15B 9456   2.710   6.517   7.418  2.4378  0.1463 -0.7797
   95CHL1   C16 9457   2.796   6.637   7.582  0.2953  0.3137 -0.1258
   95CHL1  H16A 9458   2.720   6.679   7.651  0.3421  0.7283 -0.3194
   95CHL1  H16B 9459   2.833   6.539   7.617 -0.8456  0.1734  0.7227
   95CHL1   C17 9460   2.921   6.731   7.575 -0.1120 -0.4116  0.6942
   95CHL1   H17 9461   3.005   6.658   7.572 -0.7109 -1.0923  0.1341
   95CHL1   C13 9462   2.905   6.793   7.431 -0.2294  0.1655 -0.1616
   95CHL1   C18 9463   2.802   6.906   7.444 -0.5386  0.0604  0.0713
   95CHL1  H18A 9464   2.718   6.881   7.513 -1.1996  0.4925 -0.5726
   95CHL1  H18B 9465   2.841   7.008   7.468  0.1822  0.4311 -2.4047
   95CHL1  H18C 9466   2.744   6.917   7.351  2.6020 -0.7156 -2.1401
   95CHL1   C12 9467   3.028   6.840   7.364 -0.1253 -0.5680  0.4800
   95CHL1  H12A 9468   3.073   6.929   7.414 -2.3603  1.7038 -1.2927
   95CHL1  H12B 9469   3.108   6.763   7.373  0.9463  0.4199 -0.3096
   95CHL1   C11 9470   2.998   6.874   7.215  0.1246 -0.2596 -0.4092
   95CHL1  H11A 9471   2.922   6.955   7.220  0.2068 -0.2620  1.8298
   95CHL1  H11B 9472   3.086   6.913   7.160  0.9174  1.1223  1.6969
   95CHL1    C9 9473   2.931   6.758   7.144  0.1625 -0.4596 -0.0492
   95CHL1    H9 9474   3.002   6.673   7.142 -1.0910 -1.6566  2.4486
   95CHL1   C10 9475   2.890   6.790   6.994 -0.3816  0.5068 -0.0623
   95CHL1   C19 9476   2.803   6.917   6.978 -0.1766  0.3817 -0.5051
   95CHL1  H19A 9477   2.863   6.997   7.026  1.1630 -0.7695 -0.1830
   95CHL1  H19B 9478   2.783   6.947   6.873  1.0741  1.8586 -0.3412
   95CHL1  H19C 9479   2.710   6.906   7.038  2.0530 -1.7533  2.9464
   95CHL1    C1 9480   3.019   6.797   6.910 -0.1075 -0.4964  0.0762
   95CHL1   H1A 9481   3.087   6.882   6.935  0.7634 -1.4318  0.9749
   95CHL1   H1B 9482   3.076   6.703   6.921 -1.3271 -1.4944 -1.6517
   95CHL1    C2 9483   3.009   6.803   6.755  0.2137  0.3934 -0.3030
   95CHL1   H2A 9484   3.116   6.811   6.725  0.0145 -0.5231 -1.3348
   95CHL1   H2B 9485   2.953   6.884   6.706  1.7268  0.8248 -1.4091
   95CHL1   C20 9486   2.934   6.821   7.699  0.0184  0.0902 -0.3616
   95CHL1   H20 9487   2.844   6.888   7.696  0.8988  1.4554  1.4871
   95CHL1   C21 9488   3.044   6.918   7.680  0.1360  0.2557  0.3105
   95CHL1  H21A 9489   3.021   6.983   7.592  2.0486  1.3489  0.5598
   95CHL1  H21B 9490   3.130   6.866   7.635 -1.0268  0.1462 -1.9221
   95CHL1  H21C 9491   3.047   6.980   7.772 -0.4044  1.0329 -0.1775
   95CHL1   C22 9492   2.948   6.755   7.838  0.2982 -0.6156 -0.0638
   95CHL1  H22A 9493   2.932   6.838   7.910 -0.2144 -1.3351  0.6720
   95CHL1  H22B 9494   2.864   6.683   7.855 -0.5211  0.5032  0.8329
   95CHL1   C23 9495   3.087   6.699   7.863 -0.0469  0.0527 -0.5348
   95CHL1  H23A 9496   3.108   6.606   7.807  0.9459 -0.0534 -0.0049
   95CHL1  H23B 9497   3.167   6.769   7.830  0.8382 -0.3035  0.7930
   95CHL1   C24 9498   3.098   6.663   8.012 -0.0416 -0.3252 -0.3440
   95CHL1  H24A 9499   3.069   6.743   8.083 -0.7650  0.1698 -1.1877
   95CHL1  H24B 9500   3.020   6.586   8.030 -0.1764 -0.3265 -0.9338
   95CHL1   C25 9501   3.236   6.625   8.070 -0.1895 -0.6827 -0.3623
   95CHL1   H25 9502   3.263   6.524   8.032 -0.3649 -0.7120 -0.4139
   95CHL1   C26 9503   3.339   6.734   8.043  0.1343 -0.6869 -0.1820
   95CHL1  H26A 9504   3.358   6.737   7.933 -0.5004 -3.1631 -0.4094
   95CHL1  H26B 9505   3.308   6.831   8.088  0.7966 -0.0659 -1.0251
   95CHL1  H26C 9506   3.431   6.706   8.098 -0.3894 -0.6729  0.7184
   95CHL1   C27 9507   3.235   6.609   8.224 -0.2203 -0.2536  0.1809
   95CHL1  H27A 9508   3.336   6.620   8.269 -0.5455  0.4243  0.7660
   95CHL1  H27B 9509   3.177   6.693   8.269 -0.3587  0.1515 -0.7309
   95CHL1  H27C 9510   3.191   6.511   8.250  0.2460 -0.3520  0.6205
   96CHL1    C3 9511   3.260   6.453   6.680 -0.0725 -0.4909 -1.6521
   96CHL1    H3 9512   3.216   6.555   6.674 -0.6623 -0.5156  0.8396
   96CHL1    O3 9513   3.321   6.426   6.558  0.6370  0.7219  0.3246
   96CHL1   H3' 9514   3.296   6.501   6.505  0.9413  1.3011  0.9725
   96CHL1    C4 9515   3.374   6.467   6.784 -0.6251  0.3874 -0.8193
   96CHL1   H4A 9516   3.436   6.376   6.772 -2.3272 -0.9571  0.0594
   96CHL1   H4B 9517   3.433   6.557   6.757  1.2049 -0.2487  0.8379
   96CHL1    C5 9518   3.333   6.486   6.928  0.0933 -0.0275 -0.1857
   96CHL1    C6 9519   3.367   6.583   7.018  0.8680 -0.4829  0.0968
   96CHL1    H6 9520   3.438   6.665   6.999  1.6201 -1.3519 -0.9529
   96CHL1    C7 9521   3.309   6.596   7.153 -0.4145 -0.1271  0.2913
   96CHL1   H7A 9522   3.380   6.647   7.222  2.2247 -2.0138 -0.8752
   96CHL1   H7B 9523   3.214   6.654   7.146 -0.0524  0.4208 -0.1985
   96CHL1    C8 9524   3.281   6.455   7.210  0.8923  0.9165 -0.1308
   96CHL1    H8 9525   3.382   6.408   7.213  1.5577  2.1572 -1.5507
   96CHL1   C14 9526   3.231   6.459   7.356  0.0025  0.6522  0.5658
   96CHL1   H14 9527   3.149   6.534   7.360  0.9301  1.6877  0.8369
   96CHL1   C15 9528   3.333   6.506   7.467 -0.2188 -0.2309 -0.1305
   96CHL1  H15A 9529   3.422   6.442   7.456 -0.1983 -0.6655  2.0894
   96CHL1  H15B 9530   3.356   6.615   7.470 -1.1009  0.0194 -1.5360
   96CHL1   C16 9531   3.259   6.468   7.590  0.0454 -0.0892  0.2044
   96CHL1  H16A 9532   3.337   6.411   7.644  1.5877  0.2704 -1.5410
   96CHL1  H16B 9533   3.230   6.561   7.642  0.5578  1.6257 -2.3653
   96CHL1   C17 9534   3.142   6.371   7.554  0.7196 -0.0505  0.0523
   96CHL1   H17 9535   3.056   6.439   7.540  0.9901  0.0419 -1.3919
   96CHL1   C13 9536   3.179   6.331   7.412  0.6062 -0.5479 -0.5232
   96CHL1   C18 9537   3.284   6.215   7.427 -0.4179 -0.3547 -0.0791
   96CHL1  H18A 9538   3.233   6.118   7.440  2.9372 -2.4322 -1.0861
   96CHL1  H18B 9539   3.339   6.208   7.331  1.9759  3.9017  0.6977
   96CHL1  H18C 9540   3.355   6.236   7.510 -1.4573  2.6843  0.1902
   96CHL1   C12 9541   3.054   6.286   7.330 -0.0562 -0.1304 -0.0230
   96CHL1  H12A 9542   3.001   6.197   7.369  0.1869 -0.3812 -0.2536
   96CHL1  H12B 9543   2.982   6.368   7.312 -1.1908 -0.8182  1.2471
   96CHL1   C11 9544   3.113   6.256   7.184  0.1621  0.3682  0.2184
   96CHL1  H11A 9545   3.184   6.171   7.192 -0.9843 -1.0206 -2.6874
   96CHL1  H11B 9546   3.022   6.218   7.131  0.6978 -0.9481  0.2120
   96CHL1    C9 9547   3.178   6.381   7.120 -0.8531 -0.1229  0.2788
   96CHL1    H9 9548   3.090   6.447   7.105 -1.1987 -0.6098  0.1068
   96CHL1   C10 9549   3.237   6.366   6.977  0.1290 -0.5357  0.0732
   96CHL1   C19 9550   3.321   6.234   6.973  1.2014 -0.1184  0.0852
   96CHL1  H19A 9551   3.250   6.153   6.999  0.5586  0.5894  0.6046
   96CHL1  H19B 9552   3.365   6.214   6.873 -0.1621  1.1260 -0.8157
   96CHL1  H19C 9553   3.391   6.247   7.058 -0.4431  3.4746  1.1090
   96CHL1    C1 9554   3.115   6.356   6.873 -0.1059  0.3639  0.1415
   96CHL1   H1A 9555   3.060   6.269   6.914  0.0146 -0.2170 -0.9139
   96CHL1   H1B 9556   3.053   6.448   6.879  0.4494  0.8488 -1.2854
   96CHL1    C2 9557   3.153   6.348   6.723 -0.0022  0.2381  0.0814
   96CHL1   H2A 9558   3.065   6.357   6.657 -0.5004  0.6855  0.7982
   96CHL1   H2B 9559   3.208   6.253   6.705  2.7813  1.7227  0.1124
   96CHL1   C20 9560   3.093   6.268   7.656  0.1963  0.1955  0.2376
   96CHL1   H20 9561   3.147   6.173   7.636  0.6970  0.5159  0.0464
   96CHL1   C21 9562   2.941   6.237   7.654  0.1916 -0.5312 -0.5139
   96CHL1  H21A 9563   2.900   6.200   7.557 -0.4235 -2.0680  0.2977
   96CHL1  H21B 9564   2.887   6.331   7.680  1.2730  0.8279 -2.8602
   96CHL1  H21C 9565   2.908   6.161   7.728  3.0230 -0.2562  1.1392
   96CHL1   C22 9566   3.119   6.308   7.807  0.0577  0.1183  0.0954
   96CHL1  H22A 9567   3.226   6.339   7.817  0.3495 -1.5303  3.0362
   96CHL1  H22B 9568   3.053   6.395   7.824  0.3324  0.6257 -1.2237
   96CHL1   C23 9569   3.092   6.205   7.917  0.2155  0.3156  0.4524
   96CHL1  H23A 9570   2.982   6.212   7.936 -0.0117  2.6308 -1.3647
   96CHL1  H23B 9571   3.116   6.100   7.892 -0.0563  0.0832  1.1234
   96CHL1   C24 9572   3.162   6.224   8.053  0.0417  0.1613  0.4326
   96CHL1  H24A 9573   3.272   6.233   8.057  0.0690  0.0228  0.0092
   96CHL1  H24B 9574   3.125   6.320   8.094  1.5227  1.1135 -0.3708
   96CHL1   C25 9575   3.132   6.103   8.150  0.1731 -0.0870 -0.3452
   96CHL1   H25 9576   3.144   6.009   8.091  4.5854 -0.7700  1.2723
   96CHL1   C26 9577   3.239   6.104   8.260  0.4538 -0.2170  0.1104
   96CHL1  H26A 9578   3.333   6.111   8.202  1.8191  1.4883  2.3534
   96CHL1  H26B 9579   3.234   6.193   8.327  2.6309  0.4442 -0.5273
   96CHL1  H26C 9580   3.227   6.012   8.321  2.2702  0.8241  2.1923
   96CHL1   C27 9581   2.990   6.118   8.214  0.2036  0.0272  0.0968
   96CHL1  H27A 9582   2.988   6.221   8.254  1.9004  0.9704 -2.0492
   96CHL1  H27B 9583   2.924   6.127   8.125  0.8501  0.4535 -0.3482
   96CHL1  H27C 9584   2.955   6.042   8.288 -1.4610  0.9227  0.2520
   97OSM      N 9585   2.689   3.905  11.092 -0.2827  0.1036 -0.7959
   97OSM    C15 9586   2.808   3.990  11.048  0.5609  0.3890  0.3232
   97OSM   H15A 9587   2.884   3.925  11.008 -1.2411 -1.5686 -0.1050
   97OSM   H15B 9588   2.855   4.050  11.124 -3.1050  1.3632  2.0593
   97OSM   H15C 9589   2.774   4.059  10.971  2.1669 -0.3949 -1.1511
   97OSM    C14 9590   2.654   3.817  10.971  0.5690 -0.6035 -0.9550
   97OSM   H14A 9591   2.741   3.767  10.930  0.7465 -1.8290  0.8233
   97OSM   H14B 9592   2.612   3.886  10.899 -2.8877 -1.5774 -0.0208
   97OSM   H14C 9593   2.569   3.753  10.990  0.2229  0.4271  1.1787
   97OSM    C13 9594   2.764   3.817  11.190  0.3899  0.1174 -0.5454
   97OSM   H13A 9595   2.809   3.890  11.256  0.4717  0.0684 -0.5470
   97OSM   H13B 9596   2.834   3.752  11.140 -1.9297 -1.0763 -2.4682
   97OSM   H13C 9597   2.701   3.747  11.243  0.3657 -1.8905 -3.0284
   97OSM    C12 9598   2.572   3.986  11.147  0.0832  0.1731 -1.2014
   97OSM   H12A 9599   2.608   4.036  11.236  2.3116  0.6693 -2.3017
   97OSM   H12B 9600   2.498   3.914  11.178 -0.1513  0.4035 -1.2279
   97OSM    C11 9601   2.509   4.086  11.044 -0.4512 -0.2600  0.4651
   97OSM   H11A 9602   2.597   4.135  10.996  1.2170 -2.2906  1.2743
   97OSM   H11B 9603   2.444   4.160  11.095 -0.1016  0.4137 -0.0564
   97OSM      P 9604   2.293   3.949  10.983 -0.1519  0.0035  0.4200
   97OSM    O13 9605   2.313   3.859  11.096  0.2038  0.1423 -0.3714
   97OSM    O14 9606   2.180   4.046  10.984 -0.6033 -0.6462 -0.4290
   97OSM    O11 9607   2.284   3.859  10.863  0.6708 -0.0280  0.4586
   97OSM    O12 9608   2.430   4.023  10.951 -0.2627  0.6621  0.4164
   97OSM    C1S 9609   2.324   3.899  10.733  0.1880 -0.4379 -0.1896
   97OSM    H1S 9610   2.433   3.887  10.717  0.2869 -1.0704  0.8476
   97OSM    H1T 9611   2.290   4.002  10.711 -1.3007 -0.9024 -0.1752
   97OSM     NF 9612   2.314   3.809  10.498  0.2750 -0.4421  0.1965
   97OSM    HNF 9613   2.263   3.844  10.420 -0.7295 -2.7446 -0.2729
   97OSM    C2S 9614   2.262   3.791  10.636  0.1081 -0.1255 -0.6428
   97OSM    H2S 9615   2.298   3.690  10.666 -0.3094  0.5312  2.3900
   97OSM    C3S 9616   2.106   3.791  10.641 -0.0997  0.5228 -0.7233
   97OSM    H3S 9617   2.078   3.897  10.622  1.6124  0.9934 -0.8360
   97OSM     O3 9618   2.054   3.750  10.772 -0.4789 -0.5571 -0.0619
   97OSM    HO3 9619   2.126   3.781  10.826  0.7453 -2.0847 -0.7598
   97OSM    C4S 9620   2.048   3.700  10.532 -0.5176 -0.5272  0.3629
   97OSM    H4S 9621   2.028   3.764  10.445  0.7564  0.4306  0.7492
   97OSM    C5S 9622   2.024   3.571  10.523 -0.3199  0.1078 -0.9587
   97OSM    H5S 9623   2.037   3.520  10.619 -3.2175  2.2617  0.7647
   97OSM    C6S 9624   1.959   3.498  10.410 -0.2825  0.1239 -0.4135
   97OSM    H6S 9625   1.881   3.437  10.460 -2.4250  0.8636 -2.6805
   97OSM    H6T 9626   2.029   3.423  10.367 -1.2529 -1.4075  0.5717
   97OSM    C7S 9627   1.895   3.582  10.294  0.5099 -0.3562 -0.5296
   97OSM    H7S 9628   1.834   3.662  10.341 -0.6158 -0.7947 -1.2072
   97OSM    H7T 9629   1.829   3.523  10.226 -0.5654  2.4855 -2.1258
   97OSM    C8S 9630   2.001   3.655  10.195  0.7825 -0.9318  0.0930
   97OSM    H8S 9631   2.056   3.586  10.128  1.4590  2.2336 -2.8725
   97OSM    H8T 9632   2.075   3.704  10.261 -0.7943  1.2709  0.3279
   97OSM    C9S 9633   1.936   3.754  10.107  0.8074 -0.6950  0.8640
   97OSM    H9S 9634   1.896   3.828  10.180  3.0188  0.8476  0.6097
   97OSM    H9T 9635   1.855   3.705  10.050  1.8012  0.8359 -2.1038
   97OSM   C10S 9636   2.024   3.826  10.006 -0.7132  0.0161  0.7426
   97OSM   H10S 9637   2.126   3.841  10.047 -0.1184  0.2909 -0.7618
   97OSM   H10T 9638   1.974   3.922   9.982 -0.5055  0.6366  2.6035
   97OSM   C11S 9639   2.053   3.725   9.880 -0.5335  0.0376 -0.0314
   97OSM   H11S 9640   1.958   3.690   9.835  0.1313  0.1088 -1.5508
   97OSM   H11T 9641   2.107   3.639   9.925  1.7956 -0.1400 -2.8374
   97OSM   C12S 9642   2.144   3.791   9.777  0.2273  0.8366 -0.5488
   97OSM   H12S 9643   2.251   3.783   9.804 -0.0797 -0.1625  0.5124
   97OSM   H12T 9644   2.127   3.900   9.780 -3.0581  0.4374 -0.8198
   97OSM   C13S 9645   2.124   3.720   9.637 -0.0321 -0.0127 -0.1758
   97OSM   H13S 9646   2.022   3.744   9.599  0.7099  0.3481 -2.0336
   97OSM   H13T 9647   2.133   3.615   9.671  0.6797  0.3691  0.8916
   97OSM   C14S 9648   2.226   3.764   9.531 -0.3865 -0.2614 -0.1609
   97OSM   H14S 9649   2.218   3.712   9.433  0.9257  2.1199 -1.6309
   97OSM   H14T 9650   2.328   3.732   9.560  0.1839 -0.3669 -2.1297
   97OSM   C15S 9651   2.206   3.910   9.497 -0.3802  0.2637  0.0818
   97OSM   H15S 9652   2.201   3.972   9.589 -2.3421 -1.2252  1.0540
   97OSM   H15T 9653   2.108   3.924   9.445 -0.4534 -1.2971 -0.2590
   97OSM   C16S 9654   2.325   3.986   9.428  0.5038  0.4315 -0.4167
   97OSM   H16S 9655   2.410   3.982   9.500  1.0891  1.9657 -0.9868
   97OSM   H16T 9656   2.282   4.088   9.434  0.1599  0.1993  1.8584
   97OSM   C17S 9657   2.371   3.942   9.289  0.0326 -0.6091 -0.3379
   97OSM   H17S 9658   2.380   4.039   9.236 -1.4380 -1.2000 -1.7876
   97OSM   H17T 9659   2.284   3.889   9.244 -0.9640 -0.3041  1.1730
   97OSM   C18S 9660   2.503   3.863   9.272  0.7693 -0.5075  0.9008
   97OSM   H18S 9661   2.524   3.830   9.168  1.9959 -1.9541  1.5603
   97OSM   H18T 9662   2.498   3.764   9.324  2.0962 -1.4722 -0.7202
   97OSM   H18U 9663   2.593   3.908   9.320 -1.1377  3.0393  1.4667
   97OSM    C1F 9664   2.438   3.769  10.473 -0.4916 -0.0245 -0.1240
   97OSM     OF 9665   2.513   3.722  10.562 -0.3921 -0.1243  0.1938
   97OSM    C2F 9666   2.470   3.771  10.324  0.0660 -0.1679  0.1904
   97OSM    H2F 9667   2.579   3.754  10.320  0.2392  0.4275  1.5230
   97OSM    H2G 9668   2.440   3.865  10.272 -0.8749 -0.1100  0.8097
   97OSM    C3F 9669   2.403   3.666  10.240 -0.8558  0.4749  0.2088
   97OSM    H3F 9670   2.424   3.686  10.132 -1.3626  0.6812  0.1455
   97OSM    H3G 9671   2.293   3.660  10.249 -0.8710  1.2729  0.6298
   97OSM    C4F 9672   2.454   3.524  10.280 -0.0046 -0.3094  0.6584
   97OSM    H4F 9673   2.465   3.515  10.390 -0.4103  0.5528  0.7799
   97OSM    H4G 9674   2.548   3.503  10.225 -0.7404  0.6182 -1.0551
   97OSM    C5F 9675   2.349   3.422  10.236 -0.2524 -0.0337  0.0261
   97OSM    H5F 9676   2.248   3.446  10.276  0.0455  1.7281 -0.1838
   97OSM    H5G 9677   2.386   3.325  10.276  2.4979  1.5377  1.5618
   97OSM    C6F 9678   2.337   3.409  10.080  0.1340  0.3982 -0.3177
   97OSM    H6F 9679   2.441   3.379  10.055  1.0898  1.1111  2.3804
   97OSM    H6G 9680   2.326   3.510  10.035  3.2012  1.3480  0.7595
   97OSM    C7F 9681   2.228   3.310  10.049 -0.1364 -0.1439  0.3085
   97OSM    H7F 9682   2.145   3.353  10.109 -0.8842 -0.3139 -0.5716
   97OSM    H7G 9683   2.237   3.211  10.098 -0.1023  0.1687  0.9409
   97OSM    C8F 9684   2.175   3.302   9.906 -0.8395  0.0454 -0.0122
   97OSM    H8F 9685   2.163   3.406   9.868  0.5915  1.1087  2.2113
   97OSM    H8G 9686   2.069   3.269   9.904 -1.0908  0.5968  1.9439
   97OSM    C9F 9687   2.260   3.214   9.823  0.0771  0.5127  0.2107
   97OSM    H9F 9688   2.315   3.133   9.872  1.1232 -0.4030 -2.2967
   97OSM   C10F 9689   2.295   3.235   9.697  0.0747 -0.4630 -0.7986
   97OSM   H10F 9690   2.357   3.160   9.646  0.0295  0.3593 -2.1182
   97OSM   C11F 9691   2.245   3.350   9.613  0.0710  0.2124  0.5181
   97OSM   H11F 9692   2.320   3.432   9.602  2.1397 -1.8131 -1.7987
   97OSM   H11G 9693   2.145   3.386   9.644 -0.1206 -0.7155  0.9920
   97OSM   C12F 9694   2.221   3.305   9.469 -0.0004 -0.1790  0.2663
   97OSM   H12F 9695   2.151   3.219   9.471 -0.3559  0.0917 -0.1119
   97OSM   H12G 9696   2.321   3.272   9.434 -0.5950 -0.5835 -1.0997
   97OSM   C13F 9697   2.162   3.411   9.380  0.4204  0.7261  0.7959
   97OSM   H13F 9698   2.226   3.501   9.379 -0.7181  1.5553  0.3506
   97OSM   H13G 9699   2.059   3.436   9.415 -0.3032  2.1520 -2.0845
   97OSM   C14F 9700   2.125   3.356   9.236  0.2647 -0.3271 -0.4145
   97OSM   H14F 9701   2.060   3.434   9.192 -0.2895 -0.4263  0.2014
   97OSM   H14G 9702   2.051   3.276   9.255 -0.6759  0.5813 -0.1653
   97OSM   C15F 9703   2.246   3.304   9.158 -0.1344 -0.2158 -0.3556
   97OSM   H15F 9704   2.287   3.214   9.208  0.6332  1.3863  2.0663
   97OSM   H15G 9705   2.328   3.379   9.160 -0.7224  0.4802 -1.4008
   97OSM   C16F 9706   2.226   3.278   9.012  0.1133  0.4030  0.6093
   97OSM   H16F 9707   2.194   3.371   8.960  0.3714  0.2872  0.2425
   97OSM   H16G 9708   2.139   3.209   9.009 -1.6750  2.4547  2.1285
   97OSM   C17F 9709   2.351   3.212   8.935 -0.0032 -0.1674  0.0260
   97OSM   H17F 9710   2.308   3.173   8.840 -0.7853  0.6440  0.0326
   97OSM   H17G 9711   2.387   3.127   8.997 -0.9651 -0.9506 -0.4588
   97OSM   C18F 9712   2.473   3.299   8.905  0.9632  0.4951 -0.0262
   97OSM   H18F 9713   2.542   3.234   8.847 -0.1731  1.1910 -2.2834
   97OSM   H18G 9714   2.513   3.323   9.006  0.7247 -1.0711  0.4643
   97OSM   H18H 9715   2.453   3.391   8.846 -0.1403 -0.3109 -0.9594
   98OSM      N 9716   0.049   3.080  11.118  0.5326  0.2086  0.6983
   98OSM    C15 9717   0.159   3.107  11.216 -0.1444  0.6373  0.5010
   98OSM   H15A 9718   0.228   3.025  11.230  0.3514  0.8591 -0.5781
   98OSM   H15B 9719   0.112   3.131  11.310 -1.4997  1.1518 -0.2749
   98OSM   H15C 9720   0.224   3.189  11.190  0.6931  0.3725  1.6947
   98OSM    C14 9721  -0.036   2.966  11.167  0.1765  0.6324 -0.6052
   98OSM   H14A 9722   0.022   2.877  11.185  0.2783  0.5845 -1.1463
   98OSM   H14B 9723  -0.118   2.947  11.099 -0.1510  0.2418 -0.1095
   98OSM   H14C 9724  -0.073   2.998  11.263 -2.1103  0.5123 -1.3951
   98OSM    C13 9725  -0.042   3.205  11.117  0.1055 -0.8587 -0.7405
   98OSM   H13A 9726   0.014   3.284  11.070  0.7991 -1.0491 -0.2584
   98OSM   H13B 9727  -0.063   3.248  11.214  0.8249 -0.9245 -0.5504
   98OSM   H13C 9728  -0.133   3.181  11.064  0.6620 -0.9439 -1.6757
   98OSM    C12 9729   0.103   3.054  10.981  1.1843 -0.0261  0.6012
   98OSM   H12A 9730   0.150   3.149  10.957 -2.1208  0.8758 -3.4813
   98OSM   H12B 9731   0.026   3.050  10.906  1.5087 -0.7050  0.2946
   98OSM    C11 9732   0.200   2.932  10.955 -0.4376 -0.0011 -0.3458
   98OSM   H11A 9733   0.225   2.935  10.847 -3.0487  0.7664 -0.9883
   98OSM   H11B 9734   0.141   2.839  10.971 -0.6888  0.4641  1.6082
   98OSM      P 9735   0.423   3.051  11.002 -0.0083  0.1908 -0.1445
   98OSM    O13 9736   0.352   3.181  11.000  0.0431  0.0078 -0.1480
   98OSM    O14 9737   0.541   3.029  11.091  0.2110 -0.6992 -0.4847
   98OSM    O11 9738   0.466   3.018  10.857 -0.0714 -0.1144  0.1501
   98OSM    O12 9739   0.316   2.933  11.036  0.2666 -0.6415  0.9042
   98OSM    C1S 9740   0.518   2.888  10.831 -0.1681 -0.4636  0.7955
   98OSM    H1S 9741   0.440   2.814  10.861 -0.0662 -0.6721  0.5571
   98OSM    H1T 9742   0.609   2.863  10.890 -0.0290 -0.3595  0.6268
   98OSM     NF 9743   0.558   2.732  10.645  0.0138  0.4707 -1.0553
   98OSM    HNF 9744   0.648   2.701  10.617  0.3891  1.2507 -0.7536
   98OSM    C2S 9745   0.549   2.872  10.679  0.1511  0.0718  0.5990
   98OSM    H2S 9746   0.467   2.912  10.615  0.8770  1.1094  0.2688
   98OSM    C3S 9747   0.674   2.953  10.645 -0.4380 -0.3306 -0.3488
   98OSM    H3S 9748   0.760   2.916  10.705  0.5792 -1.6697 -2.5236
   98OSM     O3 9749   0.665   3.094  10.672  0.2600  0.3281 -0.1377
   98OSM    HO3 9750   0.585   3.107  10.724 -0.2945  0.1675 -0.9271
   98OSM    C4S 9751   0.706   2.931  10.500  0.4827  0.0046  0.4766
   98OSM    H4S 9752   0.763   2.838  10.483  0.6827  0.1713  0.2345
   98OSM    C5S 9753   0.687   3.010  10.395  0.0237 -0.3374  0.3056
   98OSM    H5S 9754   0.663   3.116  10.411 -0.2531  0.0520 -2.2685
   98OSM    C6S 9755   0.744   2.978  10.263 -0.0154  0.4079  0.5982
   98OSM    H6S 9756   0.724   2.872  10.235  2.9545 -0.7560  2.4158
   98OSM    H6T 9757   0.855   2.978  10.267  0.1802 -2.0188 -1.7255
   98OSM    C7S 9758   0.675   3.064  10.154 -0.7910 -0.0945  0.0502
   98OSM    H7S 9759   0.720   3.165  10.163  0.9916 -0.9993  2.6399
   98OSM    H7T 9760   0.564   3.065  10.157 -1.2993 -1.4215 -5.9683
   98OSM    C8S 9761   0.709   2.998  10.017  0.8363  0.3000  0.0799
   98OSM    H8S 9762   0.632   3.037   9.946  0.8295 -0.3041 -0.2475
   98OSM    H8T 9763   0.704   2.887  10.017  2.0774  0.2229 -0.6698
   98OSM    C9S 9764   0.838   3.055   9.963  0.2032 -0.2111  0.3417
   98OSM    H9S 9765   0.924   3.028  10.028  1.4979 -1.2256 -1.6515
   98OSM    H9T 9766   0.845   3.166   9.958  2.3134 -0.0600  3.5637
   98OSM   C10S 9767   0.873   2.991   9.832  0.1390  0.2692  0.0320
   98OSM   H10S 9768   0.844   2.884   9.824  1.0132 -0.2480  2.6405
   98OSM   H10T 9769   0.983   3.003   9.825  0.0853 -0.1540 -2.9984
   98OSM   C11S 9770   0.826   3.058   9.691  0.4552  0.3444 -0.2952
   98OSM   H11S 9771   0.835   3.169   9.689  0.3840  0.3358 -1.5121
   98OSM   H11T 9772   0.722   3.025   9.669  0.0469 -0.0454  1.9570
   98OSM   C12S 9773   0.906   3.004   9.572 -0.6068  0.2165 -0.1079
   98OSM   H12S 9774   0.903   2.893   9.568  1.1530  0.1696 -1.6515
   98OSM   H12T 9775   1.014   3.026   9.586 -0.8931  2.2974 -0.8058
   98OSM   C13S 9776   0.864   3.042   9.434  0.1679 -0.1830  0.1836
   98OSM   H13S 9777   0.898   3.146   9.422  0.9932 -0.3088  1.2697
   98OSM   H13T 9778   0.753   3.042   9.434  0.1417 -1.5661  0.8209
   98OSM   C14S 9779   0.939   2.963   9.324 -0.4042 -0.2263  0.2630
   98OSM   H14S 9780   0.931   2.854   9.342 -1.6850  0.0407  1.5494
   98OSM   H14T 9781   1.047   2.987   9.324  0.0418 -2.0170 -1.2152
   98OSM   C15S 9782   0.897   3.013   9.181 -0.3142  0.2893 -0.3247
   98OSM   H15S 9783   0.962   2.952   9.115  0.4216  0.4123  0.2659
   98OSM   H15T 9784   0.918   3.120   9.160  1.5518 -0.1059 -0.6045
   98OSM   C16S 9785   0.746   2.991   9.150 -0.4694  0.0487 -0.1664
   98OSM   H16S 9786   0.684   3.028   9.234 -0.0049 -0.7400  0.5449
   98OSM   H16T 9787   0.738   2.880   9.151  2.6090 -0.3246 -2.5493
   98OSM   C17S 9788   0.697   3.042   9.013 -0.1278  0.0106 -0.1705
   98OSM   H17S 9789   0.754   2.990   8.933  1.0798  1.7625 -0.4958
   98OSM   H17T 9790   0.707   3.152   9.002  0.7749  0.3559  3.0576
   98OSM   C18S 9791   0.551   3.009   8.986 -0.3676 -0.1509 -0.3215
   98OSM   H18S 9792   0.515   3.049   8.889 -0.2987  0.1035 -0.2442
   98OSM   H18T 9793   0.479   3.052   9.059  0.4015  2.1810 -0.8575
   98OSM   H18U 9794   0.550   2.899   8.997 -1.7332 -0.1669 -0.5254
   98OSM    C1F 9795   0.454   2.653  10.623 -0.3002  0.2196  0.2062
   98OSM     OF 9796   0.343   2.700  10.603  0.1810  0.1163 -0.2706
   98OSM    C2F 9797   0.497   2.507  10.605  0.1105 -0.3291  0.4883
   98OSM    H2F 9798   0.510   2.466  10.707 -2.2876 -0.4120  0.8105
   98OSM    H2G 9799   0.592   2.501  10.548  0.8964 -0.0806  1.7433
   98OSM    C3F 9800   0.405   2.410  10.538  0.0576 -0.3058 -0.1261
   98OSM    H3F 9801   0.299   2.425  10.569  0.0276 -0.9124  0.0657
   98OSM    H3G 9802   0.443   2.307  10.553  1.8270 -0.0957 -2.5680
   98OSM    C4F 9803   0.400   2.423  10.380  0.2860  0.1825 -0.1994
   98OSM    H4F 9804   0.504   2.446  10.348  1.2576  1.1881  3.2012
   98OSM    H4G 9805   0.351   2.516  10.345 -1.0172 -0.5179 -0.2755
   98OSM    C5F 9806   0.351   2.302  10.301 -0.8179  0.5407  0.3084
   98OSM    H5F 9807   0.242   2.287  10.314 -0.7238  0.6307  1.2429
   98OSM    H5G 9808   0.405   2.215  10.343 -0.6553  0.7947  0.6305
   98OSM    C6F 9809   0.377   2.321  10.148  0.0325  0.9460 -1.1165
   98OSM    H6F 9810   0.402   2.220  10.109 -0.6216 -0.5138  1.9038
   98OSM    H6G 9811   0.462   2.389  10.130  0.8954  0.5513  1.1870
   98OSM    C7F 9812   0.252   2.371  10.065 -0.0560  0.4779 -0.8683
   98OSM    H7F 9813   0.236   2.477  10.092 -2.7691  0.2633 -1.3455
   98OSM    H7G 9814   0.169   2.310  10.108  1.8298  0.8106  3.7916
   98OSM    C8F 9815   0.262   2.348   9.915 -0.5033 -0.4886 -0.3640
   98OSM    H8F 9816   0.169   2.397   9.879 -1.1669 -1.3181  0.1693
   98OSM    H8G 9817   0.239   2.249   9.869  0.0258 -1.0633  0.5789
   98OSM    C9F 9818   0.375   2.412   9.845 -0.2829 -0.4171  0.9072
   98OSM    H9F 9819   0.396   2.519   9.861  0.3697 -0.2195 -0.9887
   98OSM   C10F 9820   0.461   2.356   9.756  1.0481  0.4687  0.1751
   98OSM   H10F 9821   0.537   2.421   9.709  0.7393  0.7366  0.0450
   98OSM   C11F 9822   0.446   2.213   9.697 -0.2943  0.0516  0.0649
   98OSM   H11F 9823   0.391   2.139   9.760  0.1609 -0.3762 -0.0284
   98OSM   H11G 9824   0.545   2.164   9.683 -0.8665 -0.7752 -1.3827
   98OSM   C12F 9825   0.367   2.213   9.562  0.3945 -0.5112 -0.9058
   98OSM   H12F 9826   0.289   2.292   9.568  2.1827  1.2991 -0.0248
   98OSM   H12G 9827   0.318   2.115   9.549  1.9271 -1.0144 -3.7571
   98OSM   C13F 9828   0.446   2.236   9.432 -0.1105 -0.6919  0.0544
   98OSM   H13F 9829   0.546   2.195   9.460 -0.6279 -0.3873  2.5773
   98OSM   H13G 9830   0.472   2.343   9.418 -1.9329 -0.3899 -1.4334
   98OSM   C14F 9831   0.401   2.172   9.305  0.0735 -0.4955 -0.9866
   98OSM   H14F 9832   0.296   2.204   9.285  0.6082  0.9107 -1.6605
   98OSM   H14G 9833   0.410   2.062   9.317  1.1623 -0.4955 -1.6785
   98OSM   C15F 9834   0.490   2.211   9.188 -0.5159 -0.5683 -0.2444
   98OSM   H15F 9835   0.598   2.192   9.208 -0.2800  2.4823  2.0761
   98OSM   H15G 9836   0.488   2.322   9.182  1.3882 -0.5025 -0.3694
   98OSM   C16F 9837   0.452   2.144   9.055 -0.4675  0.5267  0.5909
   98OSM   H16F 9838   0.428   2.038   9.076  0.6845 -0.4427 -2.4249
   98OSM   H16G 9839   0.531   2.139   8.977 -1.3914 -1.0783 -0.2973
   98OSM   C17F 9840   0.336   2.220   8.982  0.7905 -0.0430  0.1669
   98OSM   H17F 9841   0.355   2.329   8.994  1.4253 -0.3112  1.9461
   98OSM   H17G 9842   0.245   2.192   9.040  1.5795 -3.8050 -0.1874
   98OSM   C18F 9843   0.330   2.183   8.839 -0.3065 -0.1879  0.0998
   98OSM   H18F 9844   0.238   2.220   8.789  0.3267 -1.0322 -1.8087
   98OSM   H18G 9845   0.319   2.073   8.823 -1.5315  0.1400 -1.4787
   98OSM   H18H 9846   0.423   2.221   8.792  0.9401 -2.6782  0.3527
   99OSM      N 9847   2.901   2.651  10.663  0.4717  0.8343 -0.3850
   99OSM    C15 9848   2.759   2.623  10.715  0.0252 -0.1199  0.3377
   99OSM   H15A 9849   2.723   2.705  10.775 -0.0063  0.7002 -0.7700
   99OSM   H15B 9850   2.763   2.535  10.778 -1.0183 -0.0941  0.4582
   99OSM   H15C 9851   2.689   2.609  10.634  2.9743 -0.1709 -2.3996
   99OSM    C14 9852   2.904   2.767  10.579  0.1178 -0.2599 -0.4836
   99OSM   H14A 9853   2.999   2.777  10.530 -0.1442  2.4554 -0.5952
   99OSM   H14B 9854   2.893   2.861  10.632  1.7696 -0.0248 -0.5033
   99OSM   H14C 9855   2.836   2.762  10.495  3.2889  0.7968 -3.3181
   99OSM    C13 9856   2.980   2.681  10.789  0.0849  0.0712  0.0045
   99OSM   H13A 9857   3.079   2.717  10.766  0.2654  0.0918  0.8090
   99OSM   H13B 9858   2.982   2.587  10.842 -3.2756 -0.4390 -0.5162
   99OSM   H13C 9859   2.932   2.763  10.840  1.3666  1.1002 -0.3866
   99OSM    C12 9860   2.959   2.525  10.591 -0.1447  0.1858  0.5412
   99OSM   H12A 9861   3.051   2.555  10.544  0.9190 -2.4687  0.7738
   99OSM   H12B 9862   2.894   2.495  10.510  0.0474  1.9743 -0.3148
   99OSM    C11 9863   2.998   2.410  10.684 -0.0110  0.4483 -0.9343
   99OSM   H11A 9864   3.081   2.443  10.751 -1.9693  0.6951  1.5292
   99OSM   H11B 9865   3.040   2.333  10.616 -1.7651 -0.9070 -0.5419
   99OSM      P 9866   2.836   2.213  10.775 -0.4076  0.2643 -0.1480
   99OSM    O13 9867   2.951   2.128  10.825  0.3019  0.1026 -0.5134
   99OSM    O14 9868   2.718   2.211  10.867  0.3720 -0.7254 -0.1121
   99OSM    O11 9869   2.797   2.165  10.634  0.1024  0.5846  0.0864
   99OSM    O12 9870   2.893   2.360  10.770 -0.5246 -0.8501  0.5338
   99OSM    C1S 9871   2.717   2.232  10.536 -0.3674  0.6497 -0.0122
   99OSM    H1S 9872   2.750   2.337  10.523 -0.9747  0.9163  0.5459
   99OSM    H1T 9873   2.607   2.216  10.542 -0.2486  0.3385  1.9016
   99OSM     NF 9874   2.691   2.239  10.289  0.4275 -0.3855 -0.3765
   99OSM    HNF 9875   2.614   2.199  10.240  1.8568 -2.7103 -0.8472
   99OSM    C2S 9876   2.766   2.173  10.399  0.5776 -0.4642  0.3979
   99OSM    H2S 9877   2.874   2.202  10.397  0.6765 -0.8633 -0.7297
   99OSM    C3S 9878   2.761   2.011  10.394 -0.3006 -0.1597  0.0139
   99OSM    H3S 9879   2.663   1.972  10.429  0.9261 -2.0711  1.5925
   99OSM     O3 9880   2.859   1.945  10.474 -0.0484  0.1987  0.0283
   99OSM    HO3 9881   2.870   1.999  10.553  0.9002 -1.9521  1.4659
   99OSM    C4S 9882   2.798   1.958  10.259 -0.1515  0.1693 -0.2214
   99OSM    H4S 9883   2.901   1.975  10.223 -0.3007 -1.7887 -1.7557
   99OSM    C5S 9884   2.709   1.898  10.183  0.0157  0.0019 -0.3402
   99OSM    H5S 9885   2.608   1.883  10.224 -0.3593 -1.5538 -1.7250
   99OSM    C6S 9886   2.724   1.842  10.040  0.2307  0.4272 -0.5534
   99OSM    H6S 9887   2.693   1.736  10.046  0.6888  0.3122 -0.1499
   99OSM    H6T 9888   2.832   1.849  10.016  0.3111  3.5098  0.2930
   99OSM    C7S 9889   2.649   1.912   9.927 -0.3329 -0.5202 -0.3062
   99OSM    H7S 9890   2.539   1.922   9.940 -0.4061  1.0627 -1.7695
   99OSM    H7T 9891   2.662   1.864   9.827 -0.0281  3.5387 -2.4590
   99OSM    C8S 9892   2.701   2.054   9.914  0.3257  0.1464  0.3636
   99OSM    H8S 9893   2.810   2.041   9.900  0.5553  0.2929  1.8900
   99OSM    H8T 9894   2.688   2.109  10.010 -0.4430 -1.8147  1.4298
   99OSM    C9S 9895   2.639   2.129   9.796 -0.0258  0.4629  0.7223
   99OSM    H9S 9896   2.666   2.236   9.813  0.0847  0.5115  0.2538
   99OSM    H9T 9897   2.529   2.116   9.796 -0.0488  0.5289  2.1428
   99OSM   C10S 9898   2.698   2.089   9.662  0.1850  0.0461  0.9402
   99OSM   H10S 9899   2.709   1.979   9.649 -2.1080 -0.1865  0.4397
   99OSM   H10T 9900   2.796   2.136   9.639  0.1930 -1.2557 -2.2451
   99OSM   C11S 9901   2.614   2.124   9.538 -0.5561 -0.7773 -0.1511
   99OSM   H11S 9902   2.587   2.231   9.549 -0.4347 -0.9085  1.5937
   99OSM   H11T 9903   2.512   2.081   9.543 -2.4293  3.0586 -1.5379
   99OSM   C12S 9904   2.686   2.097   9.411  0.4601  0.3897  0.3116
   99OSM   H12S 9905   2.783   2.150   9.400 -0.7326  3.3636  2.7038
   99OSM   H12T 9906   2.707   1.988   9.400 -3.7245 -0.3893 -2.5008
   99OSM   C13S 9907   2.602   2.143   9.283 -0.5024 -0.0621  0.2338
   99OSM   H13S 9908   2.563   2.246   9.293 -2.9855 -0.6461 -2.3795
   99OSM   H13T 9909   2.516   2.074   9.272  0.9955 -1.9309 -0.1587
   99OSM   C14S 9910   2.680   2.138   9.153 -0.9490  0.1058  0.3685
   99OSM   H14S 9911   2.696   2.035   9.115 -0.6472  0.4868 -0.5947
   99OSM   H14T 9912   2.778   2.184   9.179  0.2163 -0.7564 -2.1909
   99OSM   C15S 9913   2.601   2.222   9.038 -0.6476 -0.0407  0.1361
   99OSM   H15S 9914   2.573   2.321   9.080 -1.7423 -0.5027  0.5102
   99OSM   H15T 9915   2.511   2.160   9.021 -1.2104  1.3887 -2.7859
   99OSM   C16S 9916   2.668   2.230   8.898 -0.8805 -0.7978  0.9165
   99OSM   H16S 9917   2.692   2.127   8.865  2.2131  0.2733 -0.5347
   99OSM   H16T 9918   2.766   2.282   8.907 -2.2612  2.0654  0.7830
   99OSM   C17S 9919   2.578   2.298   8.792  0.2895  0.9412  0.3217
   99OSM   H17S 9920   2.548   2.394   8.837  0.7039  0.3812  1.8473
   99OSM   H17T 9921   2.485   2.241   8.768  0.5100  0.5264  0.4262
   99OSM   C18S 9922   2.654   2.317   8.657 -0.1776 -0.5808 -0.2142
   99OSM   H18S 9923   2.584   2.343   8.575  0.2033  0.3296 -0.2606
   99OSM   H18T 9924   2.690   2.214   8.637 -1.4345 -1.3331  1.1240
   99OSM   H18U 9925   2.738   2.389   8.665 -1.2119  0.6029  0.3360
   99OSM    C1F 9926   2.722   2.362  10.254  0.4254 -0.5585 -0.0619
   99OSM     OF 9927   2.816   2.419  10.306 -0.4000  0.3762 -0.1521
   99OSM    C2F 9928   2.641   2.423  10.145  0.0551  0.7653  0.1808
   99OSM    H2F 9929   2.559   2.486  10.186 -0.1759 -1.7268  4.1508
   99OSM    H2G 9930   2.599   2.334  10.094  0.4435  1.2129 -0.9517
   99OSM    C3F 9931   2.729   2.516  10.046 -0.0638  0.2296 -0.5161
   99OSM    H3F 9932   2.761   2.610  10.098 -0.0677 -0.2410  0.3608
   99OSM    H3G 9933   2.816   2.457  10.010  1.7119  1.7307  1.0779
   99OSM    C4F 9934   2.653   2.551   9.919  0.4009  0.1277  0.2844
   99OSM    H4F 9935   2.566   2.614   9.947  0.8577  0.1479  1.7457
   99OSM    H4G 9936   2.613   2.466   9.859  1.3890 -0.6608  0.7248
   99OSM    C5F 9937   2.749   2.627   9.829 -0.0727 -0.0773  0.0829
   99OSM    H5F 9938   2.840   2.564   9.830 -0.3339 -0.5275 -1.5748
   99OSM    H5G 9939   2.758   2.726   9.879  2.5914 -0.3386  0.2971
   99OSM    C6F 9940   2.696   2.644   9.683 -0.3286 -0.2435  0.1803
   99OSM    H6F 9941   2.605   2.708   9.668  0.3277  0.4917 -0.7943
   99OSM    H6G 9942   2.677   2.537   9.658  0.9352 -0.8743  1.8001
   99OSM    C7F 9943   2.801   2.693   9.586 -0.0017 -0.2172 -0.2209
   99OSM    H7F 9944   2.895   2.708   9.644  0.7759  0.8682 -1.6775
   99OSM    H7G 9945   2.783   2.796   9.548  1.1544 -0.5170 -1.6417
   99OSM    C8F 9946   2.825   2.597   9.468  0.0996  0.0128  0.0142
   99OSM    H8F 9947   2.850   2.494   9.501  1.2650  0.1483 -0.3909
   99OSM    H8G 9948   2.912   2.642   9.415  0.1315  0.7476  0.6663
   99OSM    C9F 9949   2.718   2.601   9.361 -0.1072  0.1755 -0.2676
   99OSM    H9F 9950   2.619   2.595   9.408  0.9996 -2.7287  2.0627
   99OSM   C10F 9951   2.737   2.578   9.224  0.2017  0.3140 -0.5097
   99OSM   H10F 9952   2.644   2.579   9.166 -0.6895  0.0023  0.8597
   99OSM   C11F 9953   2.872   2.569   9.152  0.4970 -0.4761 -0.2672
   99OSM   H11F 9954   2.905   2.463   9.148 -1.0629 -1.0438  0.9224
   99OSM   H11G 9955   2.945   2.626   9.213 -0.0522  0.5400 -0.5261
   99OSM   C12F 9956   2.857   2.631   8.999 -0.4246  0.5268 -0.1860
   99OSM   H12F 9957   2.804   2.729   9.001 -0.6244  0.5213 -2.3321
   99OSM   H12G 9958   2.788   2.569   8.938 -2.0886  0.1890  1.9079
   99OSM   C13F 9959   2.998   2.641   8.938 -0.0584  0.5737  0.1338
   99OSM   H13F 9960   3.052   2.543   8.944  1.4273  1.2330 -1.3788
   99OSM   H13G 9961   3.063   2.716   8.987  1.6920 -0.6188 -0.2274
   99OSM   C14F 9962   2.990   2.685   8.789  0.3909  0.5678 -0.2958
   99OSM   H14F 9963   2.948   2.788   8.792  0.0596  0.4332 -0.2359
   99OSM   H14G 9964   2.909   2.629   8.737 -0.9097  0.9574  1.2537
   99OSM   C15F 9965   3.122   2.680   8.704 -0.0006  0.7584  0.0982
   99OSM   H15F 9966   3.206   2.711   8.770 -0.4727  0.7854  0.6982
   99OSM   H15G 9967   3.108   2.754   8.622  0.5700 -0.8245 -1.4884
   99OSM   C16F 9968   3.150   2.543   8.640  0.1536  0.6405  0.4611
   99OSM   H16F 9969   3.056   2.517   8.588  1.3408 -1.0819 -0.9173
   99OSM   H16G 9970   3.173   2.468   8.718  3.4421  1.0665  0.0583
   99OSM   C17F 9971   3.247   2.544   8.524  0.2905  0.3945 -0.8181
   99OSM   H17F 9972   3.342   2.590   8.557  0.1819 -0.8189  1.3811
   99OSM   H17G 9973   3.216   2.631   8.463  0.6654 -0.0731 -1.6984
   99OSM   C18F 9974   3.251   2.423   8.434  0.1261 -0.2825 -0.1790
   99OSM   H18F 9975   3.331   2.435   8.358 -1.2623  2.2321 -1.3609
   99OSM   H18G 9976   3.157   2.424   8.375  0.8757  1.3985 -1.4279
   99OSM   H18H 9977   3.277   2.326   8.482 -0.8429 -1.5068 -2.0391
  100OSM      N 9978   4.466   4.164  10.843 -0.1602  0.4833 -0.6179
  100OSM    C15 9979   4.574   4.267  10.859  0.0668  0.3304 -0.2836
  100OSM   H15A 9980   4.629   4.255  10.951 -0.1420 -1.0290 -0.3146
  100OSM   H15B 9981   4.532   4.367  10.854 -0.2153  0.1948 -0.6792
  100OSM   H15C 9982   4.648   4.260  10.780  0.9776 -0.0736  0.5875
  100OSM    C14 9983   4.531   4.029  10.855 -0.1215 -0.2104  0.0076
  100OSM   H14A 9984   4.454   3.957  10.877  0.0631  0.3017  2.6287
  100OSM   H14B 9985   4.596   4.033  10.941  1.6246 -0.7129 -1.2343
  100OSM   H14C 9986   4.586   4.004  10.765 -1.7629 -0.3654 -0.9959
  100OSM    C13 9987   4.374   4.171  10.962  0.0737  0.5032  0.3665
  100OSM   H13A 9988   4.292   4.108  10.933  1.8348 -0.7663 -2.2923
  100OSM   H13B 9989   4.330   4.268  10.979 -0.2858  0.1659  1.4162
  100OSM   H13C 9990   4.420   4.127  11.049 -0.3325  0.0044  0.3309
  100OSM    C12 9991   4.386   4.186  10.716  0.1917  0.3118  0.2698
  100OSM   H12A 9992   4.310   4.109  10.713  1.2406 -0.7947  0.9781
  100OSM   H12B 9993   4.443   4.161  10.627  0.9658  1.4689  0.4235
  100OSM    C11 9994   4.324   4.323  10.678 -0.0457 -0.4655 -0.4813
  100OSM   H11A 9995   4.281   4.309  10.577  1.7514 -0.8220 -1.2377
  100OSM   H11B 9996   4.404   4.399  10.670 -1.0336  0.8384  1.1323
  100OSM      P 9997   4.077   4.316  10.778 -0.1731 -0.2544  0.1962
  100OSM    O13 9998   4.070   4.211  10.885  0.0044  0.9533  0.1013
  100OSM    O14 9999   3.984   4.425  10.801 -0.2202  0.1517 -0.3701
  100OSM    O1110000   4.044   4.263  10.634 -0.2122 -0.3639  0.7281
  100OSM    O1210001   4.227   4.376  10.766  0.2024  0.0562  0.2496
  100OSM    C1S10002   4.003   4.356  10.528 -0.0305 -0.2380  0.0822
  100OSM    H1S10003   4.065   4.448  10.524 -0.1373 -0.1731 -0.0652
  100OSM    H1T10004   3.902   4.394  10.553  0.5724  0.7707  1.1288
  100OSM     NF10005   3.962   4.388  10.286  0.0429  0.7024  0.2706
  100OSM    HNF10006   3.873   4.385  10.241 -1.0017  0.8598  2.2414
  100OSM    C2S10007   3.989   4.284  10.384 -0.1746 -0.6599  0.7028
  100OSM    H2S10008   4.087   4.246  10.347 -0.5462 -0.2082 -0.8513
  100OSM    C3S10009   3.897   4.165  10.383 -0.3639 -0.0941 -0.7986
  100OSM    H3S10010   3.793   4.198  10.404 -0.0634 -0.5199  1.7122
  100OSM     O310011   3.926   4.063  10.472  0.2021 -0.2610 -0.4625
  100OSM    HO310012   3.975   4.108  10.541  0.4748 -0.3778 -0.5767
  100OSM    C4S10013   3.895   4.095  10.250 -0.1040 -0.0589  0.9929
  100OSM    H4S10014   3.801   4.119  10.197  0.3650 -1.5687 -0.6159
  100OSM    C5S10015   3.994   4.028  10.184  0.4640 -0.5842 -0.2754
  100OSM    H5S10016   4.090   4.016  10.237  0.0775 -1.8309  0.1640
  100OSM    C6S10017   4.006   3.968  10.049 -0.0141 -0.6402 -0.8651
  100OSM    H6S10018   3.959   3.867  10.045 -1.6339  0.0910 -1.0308
  100OSM    H6T10019   4.115   3.958  10.027  0.1879 -1.4588  0.3599
  100OSM    C7S10020   3.947   4.045   9.933 -0.0765  0.6259 -0.1329
  100OSM    H7S10021   3.985   4.149   9.925  1.6536  0.3710  2.9764
  100OSM    H7T10022   3.836   4.042   9.940 -0.0154  1.0899  1.9203
  100OSM    C8S10023   3.965   3.976   9.796  0.0496 -0.6304 -0.3301
  100OSM    H8S10024   3.924   3.872   9.795  0.9827 -1.0010 -1.5148
  100OSM    H8T10025   4.075   3.966   9.785  0.2842  0.5534  0.7403
  100OSM    C9S10026   3.896   4.057   9.687 -0.3885 -0.4740  0.6819
  100OSM    H9S10027   3.959   4.148   9.676  1.5817 -1.9740 -1.4987
  100OSM    H9T10028   3.794   4.093   9.710 -0.5130  0.2542 -0.8586
  100OSM   C10S10029   3.896   3.989   9.548 -0.0919 -0.3913  0.7496
  100OSM   H10S10030   3.842   3.893   9.562 -0.6851 -0.2500 -0.4057
  100OSM   H10T10031   4.000   3.978   9.511  0.2759  1.5455  1.1039
  100OSM   C11S10032   3.829   4.080   9.445 -0.0204 -0.1225 -0.0004
  100OSM   H11S10033   3.874   4.179   9.465  2.4216 -1.0939 -0.3971
  100OSM   H11T10034   3.722   4.095   9.471  0.5440  1.6561  1.4879
  100OSM   C12S10035   3.852   4.049   9.304  0.3303  0.1058  0.6807
  100OSM   H12S10036   3.843   3.941   9.280  0.0198 -0.6187  3.6034
  100OSM   H12T10037   3.956   4.075   9.275  0.8104 -0.7094  1.6135
  100OSM   C13S10038   3.767   4.143   9.219  0.2200  1.0105  0.5676
  100OSM   H13S10039   3.790   4.251   9.227 -0.1644  1.1545 -0.1393
  100OSM   H13T10040   3.670   4.124   9.271  0.7441  0.5825  1.4057
  100OSM   C14S10041   3.764   4.111   9.067 -0.3221  0.1142 -0.7115
  100OSM   H14S10042   3.686   4.167   9.010 -0.2633  0.6667 -0.2600
  100OSM   H14T10043   3.741   4.003   9.055  3.3336 -0.7690 -0.8106
  100OSM   C15S10044   3.898   4.147   9.004  0.1171 -0.3999 -0.1535
  100OSM   H15S10045   3.981   4.088   9.048 -1.0073 -2.3934 -0.5742
  100OSM   H15T10046   3.910   4.255   9.027 -1.1234 -0.2874  0.0072
  100OSM   C16S10047   3.884   4.123   8.855  0.3530  0.1363 -0.5310
  100OSM   H16S10048   3.809   4.047   8.827 -0.1104  0.8394 -1.2506
  100OSM   H16T10049   3.973   4.077   8.807  0.1126  2.2029 -3.1855
  100OSM   C17S10050   3.860   4.254   8.776 -0.7355  0.9907 -0.3883
  100OSM   H17S10051   3.950   4.315   8.797  1.3124 -2.0716  0.4080
  100OSM   H17T10052   3.771   4.306   8.816  0.1301  0.8948  1.7953
  100OSM   C18S10053   3.854   4.234   8.629  0.0655 -0.4031  0.2107
  100OSM   H18S10054   3.812   4.141   8.585  0.4979 -0.3283 -0.3807
  100OSM   H18T10055   3.960   4.232   8.596 -0.1576  1.3650 -0.6912
  100OSM   H18U10056   3.812   4.319   8.572  0.6797 -0.0262  0.3004
  100OSM    C1F10057   4.044   4.473  10.242 -1.0946 -0.2888  0.0648
  100OSM     OF10058   4.156   4.485  10.293 -0.1656  0.0303  0.7612
  100OSM    C2F10059   3.995   4.549  10.120 -0.0213  0.2974 -0.7938
  100OSM    H2F10060   3.885   4.559  10.133 -0.0343 -0.9174  0.1815
  100OSM    H2G10061   4.009   4.481  10.033 -2.0814 -0.2758 -0.7300
  100OSM    C3F10062   4.062   4.692  10.102  0.3102  1.0854 -0.7087
  100OSM    H3F10063   4.172   4.678  10.099  0.1768 -0.2943  0.0186
  100OSM    H3G10064   4.022   4.748  10.188 -3.1230  0.0457 -1.4789
  100OSM    C4F10065   4.030   4.758   9.965  0.1710  0.1127  0.0368
  100OSM    H4F10066   4.071   4.861   9.964  0.0355  0.1682 -0.8976
  100OSM    H4G10067   3.919   4.771   9.964  0.2183  0.6192 -1.7656
  100OSM    C5F10068   4.079   4.682   9.843 -0.4668 -0.2167  0.0152
  100OSM    H5F10069   4.058   4.573   9.841 -0.8723 -0.1320 -0.9639
  100OSM    H5G10070   4.189   4.695   9.829 -0.3002 -0.9846  0.5530
  100OSM    C6F10071   4.009   4.725   9.716 -0.3290  0.1581  0.1968
  100OSM    H6F10072   4.024   4.834   9.701  4.0148 -0.4218 -1.1558
  100OSM    H6G10073   3.900   4.704   9.725 -0.3355 -1.3094 -2.4084
  100OSM    C7F10074   4.081   4.651   9.593 -0.1097 -0.3060 -0.1392
  100OSM    H7F10075   4.086   4.542   9.616  0.2940  0.1487  2.0979
  100OSM    H7G10076   4.183   4.694   9.583 -0.3043  0.4064  0.8827
  100OSM    C8F10077   4.017   4.673   9.453 -0.1976  0.0050  0.0960
  100OSM    H8F10078   4.110   4.665   9.393 -2.0457  1.3026 -3.1917
  100OSM    H8G10079   3.977   4.772   9.421 -0.6189 -0.6364 -1.4081
  100OSM    C9F10080   3.915   4.572   9.423 -0.4721 -0.0650  0.8047
  100OSM    H9F10081   3.822   4.570   9.482 -1.5507 -3.5395 -0.7412
  100OSM   C10F10082   3.930   4.476   9.330 -0.0672  0.2833  0.0916
  100OSM   H10F10083   3.837   4.418   9.319 -1.4027  1.9483  1.7710
  100OSM   C11F10084   4.037   4.447   9.232 -0.7827 -0.8939 -0.3232
  100OSM   H11F10085   4.061   4.339   9.231  0.3983 -0.7798  3.1630
  100OSM   H11G10086   4.136   4.480   9.271 -0.1473 -0.4295 -2.2164
  100OSM   C12F10087   4.029   4.508   9.095  0.0344 -0.0268 -0.1867
  100OSM   H12F10088   3.951   4.453   9.038  1.7432 -1.4343 -1.2889
  100OSM   H12G10089   4.127   4.471   9.057  1.3944  0.1195  2.8843
  100OSM   C13F10090   4.010   4.663   9.086 -0.5211  0.4772 -0.4743
  100OSM   H13F10091   4.097   4.704   9.144  0.6082  0.2951 -1.9795
  100OSM   H13G10092   3.910   4.685   9.129 -0.7365 -0.8388 -0.2572
  100OSM   C14F10093   4.019   4.717   8.947 -0.6015 -0.0412 -0.3414
  100OSM   H14F10094   4.124   4.729   8.912 -0.3035 -1.7047 -0.1211
  100OSM   H14G10095   3.970   4.817   8.945 -1.6299 -0.5485 -1.1344
  100OSM   C15F10096   3.961   4.628   8.840  0.5545 -0.3570  0.4329
  100OSM   H15F10097   3.858   4.610   8.879 -0.2725  0.4852 -1.2629
  100OSM   H15G10098   4.022   4.535   8.833  0.8696 -0.0245 -2.4264
  100OSM   C16F10099   3.966   4.692   8.696  0.3821  0.5017 -0.3969
  100OSM   H16F10100   3.945   4.800   8.705  2.1695  0.7400  1.8668
  100OSM   H16G10101   3.894   4.642   8.628 -0.0088 -0.6740  0.8292
  100OSM   C17F10102   4.108   4.676   8.635 -0.6527  0.2107  0.0071
  100OSM   H17F10103   4.111   4.565   8.629 -1.0482  0.0753  1.7474
  100OSM   H17G10104   4.192   4.724   8.688  0.3468 -0.0733 -1.2630
  100OSM   C18F10105   4.102   4.741   8.497 -0.6086 -0.2184 -0.1392
  100OSM   H18F10106   4.201   4.724   8.449  0.1785  1.2264  0.8865
  100OSM   H18G10107   4.079   4.849   8.506  0.0798  0.1930 -2.5878
  100OSM   H18H10108   4.021   4.699   8.433 -0.0593 -0.7783 -0.4732
  101OSM      N10109   1.091   2.920  11.229 -0.1643  0.4975 -0.0237
  101OSM    C1510110   0.970   2.835  11.267  0.2905  0.2832 -0.6921
  101OSM   H15A10111   0.883   2.859  11.208  0.3554  1.3689 -0.3748
  101OSM   H15B10112   0.949   2.850  11.372  2.2516 -1.7966  0.0820
  101OSM   H15C10113   0.989   2.729  11.255 -1.6675 -0.8535  4.0947
  101OSM    C1410114   1.059   3.060  11.267  0.5792 -0.0047 -0.7116
  101OSM   H14A10115   0.994   3.111  11.197 -1.3459 -0.2085  0.8129
  101OSM   H14B10116   1.145   3.125  11.273  1.0018 -0.4848 -1.3704
  101OSM   H14C10117   1.000   3.055  11.357  0.1519 -0.2066 -0.9994
  101OSM    C1310118   1.207   2.877  11.306 -0.4169 -0.1150  0.5749
  101OSM   H13A10119   1.223   2.775  11.276  1.7319 -0.1546  1.6946
  101OSM   H13B10120   1.189   2.887  11.412 -0.3773  0.9350  0.4945
  101OSM   H13C10121   1.301   2.923  11.277 -0.1717 -1.8929 -1.6860
  101OSM    C1210122   1.115   2.924  11.081  0.1212  0.0255  0.3786
  101OSM   H12A10123   1.179   3.009  11.062 -1.3562  0.9242 -0.8526
  101OSM   H12B10124   1.027   2.959  11.028  1.3600  0.5314 -1.4211
  101OSM    C1110125   1.175   2.797  11.010  0.4836 -0.5338  0.7183
  101OSM   H11A10126   1.254   2.763  11.081 -2.6742  0.2739  5.0779
  101OSM   H11B10127   1.232   2.820  10.918 -0.2867  1.5398  0.7068
  101OSM      P10128   0.954   2.733  10.895 -0.0140  0.0086 -0.4789
  101OSM    O1310129   0.919   2.608  10.823 -0.2364 -0.4636 -0.1576
  101OSM    O1410130   0.849   2.789  10.979 -0.0236  0.4867  0.0123
  101OSM    O1110131   0.993   2.844  10.792 -0.2500  0.2010 -0.4663
  101OSM    O1210132   1.077   2.695  10.987 -0.0732  0.1965  0.2148
  101OSM    C1S10133   1.075   2.806  10.675  0.1576 -0.2148 -0.1552
  101OSM    H1S10134   1.033   2.711  10.636 -1.4284  0.7374 -0.8187
  101OSM    H1T10135   1.183   2.789  10.695 -0.0796 -1.8326 -0.1146
  101OSM     NF10136   1.161   2.854  10.456 -0.3746  0.8662 -0.5799
  101OSM    HNF10137   1.260   2.863  10.456 -0.0389 -1.8481 -0.4580
  101OSM    C2S10138   1.080   2.912  10.569  0.4115  0.2801  0.3899
  101OSM    H2S10139   0.975   2.929  10.540 -0.0616 -0.0224  1.8450
  101OSM    C3S10140   1.135   3.051  10.607  0.6633  0.0871  0.9308
  101OSM    H3S10141   1.243   3.053  10.635  0.9865 -0.3742 -0.2285
  101OSM     O310142   1.072   3.104  10.723 -0.7377  0.4158 -0.2629
  101OSM    HO310143   1.027   3.027  10.758  1.0838 -0.0314  1.3290
  101OSM    C4S10144   1.115   3.143  10.490 -0.0534 -0.3773 -0.3977
  101OSM    H4S10145   1.202   3.141  10.423 -1.1994 -1.1582 -1.9270
  101OSM    C5S10146   1.008   3.224  10.462  0.3282 -0.0237 -0.8940
  101OSM    H5S10147   0.928   3.239  10.536  0.8462 -0.7296 -0.1843
  101OSM    C6S10148   1.004   3.307  10.339  0.7154 -0.3359  0.7539
  101OSM    H6S10149   1.029   3.414  10.359 -1.8510  1.3677 -3.6903
  101OSM    H6T10150   0.903   3.310  10.292  1.6846  1.8474 -1.4137
  101OSM    C7S10151   1.106   3.264  10.228  0.2972 -0.2464 -0.1143
  101OSM    H7S10152   1.080   3.157  10.212 -1.5414 -0.1466  1.7225
  101OSM    H7T10153   1.211   3.263  10.264 -0.1858  0.5439  1.3940
  101OSM    C8S10154   1.093   3.338  10.094  0.1465  0.2344 -0.4171
  101OSM    H8S10155   1.149   3.430  10.120  0.0624  0.3568 -0.6706
  101OSM    H8T10156   0.991   3.370  10.063  0.2534  0.4397 -0.5567
  101OSM    C9S10157   1.158   3.264   9.974  0.7557  0.4080  0.2876
  101OSM    H9S10158   1.115   3.169   9.936  3.1123  0.2875 -2.5003
  101OSM    H9T10159   1.260   3.240  10.012 -0.4624 -0.9213  3.0115
  101OSM   C10S10160   1.184   3.363   9.856 -0.0105  0.2152 -0.1711
  101OSM   H10S10161   1.220   3.463   9.886 -1.0387  0.6806 -0.4424
  101OSM   H10T10162   1.087   3.386   9.807 -0.5045  3.1803  1.8986
  101OSM   C11S10163   1.274   3.302   9.741  1.3351  0.3962 -0.1832
  101OSM   H11S10164   1.222   3.209   9.710 -0.1892  1.1133  0.1186
  101OSM   H11T10165   1.368   3.273   9.793 -1.4204 -0.8483  4.7400
  101OSM   C12S10166   1.291   3.378   9.607  0.3183  0.5552  0.2039
  101OSM   H12S10167   1.383   3.356   9.549 -1.3339 -2.1510 -1.7148
  101OSM   H12T10168   1.301   3.483   9.639  1.5645  0.8361 -1.0069
  101OSM   C13S10169   1.172   3.345   9.504  0.2522 -0.5488  0.5911
  101OSM   H13S10170   1.085   3.404   9.539 -0.3589 -0.5710 -0.8286
  101OSM   H13T10171   1.148   3.238   9.518 -0.8501 -0.2763  0.8819
  101OSM   C14S10172   1.206   3.397   9.365 -0.3618  0.9380 -0.0722
  101OSM   H14S10173   1.273   3.483   9.384 -0.9004  1.2805  0.3156
  101OSM   H14T10174   1.119   3.444   9.314 -2.8449 -1.5658  1.5545
  101OSM   C15S10175   1.272   3.288   9.278 -0.1317  0.1493  0.5744
  101OSM   H15S10176   1.226   3.191   9.304  2.1769 -1.8139 -2.0477
  101OSM   H15T10177   1.379   3.283   9.308  0.4174  1.1365 -1.0613
  101OSM   C16S10178   1.252   3.302   9.130  0.2212  0.8008  0.1610
  101OSM   H16S10179   1.304   3.390   9.087 -0.3028 -0.0825 -2.4523
  101OSM   H16T10180   1.145   3.317   9.103  0.1894  0.9148  0.3513
  101OSM   C17S10181   1.308   3.188   9.058 -0.5110  0.7676 -0.0959
  101OSM   H17S10182   1.239   3.103   9.078 -0.3434  0.6363 -0.0837
  101OSM   H17T10183   1.405   3.153   9.098  0.0404  2.9633  0.6408
  101OSM   C18S10184   1.331   3.200   8.909 -0.3210  0.1148  0.2696
  101OSM   H18S10185   1.398   3.284   8.881  0.1334 -0.6472 -1.0083
  101OSM   H18T10186   1.242   3.217   8.845  2.2954  0.3811 -3.6477
  101OSM   H18U10187   1.363   3.102   8.866 -0.5164  0.3854 -0.5178
  101OSM    C1F10188   1.105   2.769  10.366 -0.2619 -0.3055  0.3279
  101OSM     OF10189   1.003   2.713  10.385 -0.8179 -0.0031 -0.1327
  101OSM    C2F10190   1.181   2.731  10.244  0.8768  0.1458 -0.0647
  101OSM    H2F10191   1.234   2.634  10.260 -0.0674 -0.2183  1.0286
  101OSM    H2G10192   1.263   2.800  10.218  0.6478 -0.4226 -2.5332
  101OSM    C3F10193   1.085   2.741  10.118 -0.2449 -0.0368  0.3983
  101OSM    H3F10194   1.024   2.834  10.115  1.6394  1.2449 -0.9167
  101OSM    H3G10195   1.015   2.655  10.125 -0.0958 -0.6194 -3.1717
  101OSM    C4F10196   1.157   2.724   9.983  0.5036  0.3276 -0.0199
  101OSM    H4F10197   1.075   2.714   9.909  0.9668  0.5581 -0.5690
  101OSM    H4G10198   1.213   2.627   9.982 -0.9916 -0.6509 -3.4041
  101OSM    C5F10199   1.262   2.829   9.946  0.2594  0.1394  0.0598
  101OSM    H5F10200   1.349   2.837  10.014  3.6277 -1.1668 -3.7692
  101OSM    H5G10201   1.213   2.929   9.950  0.6852  0.4222 -1.4967
  101OSM    C6F10202   1.312   2.825   9.803 -0.0718 -0.0572  0.3167
  101OSM    H6F10203   1.366   2.730   9.786 -1.1431 -0.8956  1.4701
  101OSM    H6G10204   1.242   2.846   9.719 -1.5148 -1.4840  1.1396
  101OSM    C7F10205   1.422   2.939   9.778 -0.2137 -0.0629  0.4263
  101OSM    H7F10206   1.498   2.930   9.858  0.8155 -0.9523 -0.6143
  101OSM    H7G10207   1.387   3.044   9.786  1.8243  0.5341  2.3778
  101OSM    C8F10208   1.503   2.910   9.648  0.2984 -0.0191  0.9768
  101OSM    H8F10209   1.424   2.897   9.570  0.8491  2.8696 -0.1853
  101OSM    H8G10210   1.558   2.813   9.646 -2.9882 -2.0680 -0.5325
  101OSM    C9F10211   1.596   3.025   9.613 -0.1195  0.1302  0.5538
  101OSM    H9F10212   1.643   3.068   9.702  2.1572  0.1479 -0.5927
  101OSM   C10F10213   1.632   3.065   9.489  0.1384  0.1345  0.3557
  101OSM   H10F10214   1.690   3.157   9.473  0.5823  0.2676  2.5202
  101OSM   C11F10215   1.595   2.996   9.359 -0.3754 -0.2968  0.4318
  101OSM   H11F10216   1.576   3.086   9.296 -3.1739  0.1959  1.8380
  101OSM   H11G10217   1.500   2.941   9.374  0.4766 -2.5647 -1.8469
  101OSM   C12F10218   1.711   2.907   9.299  0.1070 -0.6780  0.3230
  101OSM   H12F10219   1.686   2.873   9.196  0.4259 -2.5369  0.8213
  101OSM   H12G10220   1.715   2.808   9.351  0.5148 -1.1017 -0.4920
  101OSM   C13F10221   1.850   2.977   9.301 -0.0290 -0.4749  0.2964
  101OSM   H13F10222   1.899   2.961   9.400  0.0375  2.5861  0.8562
  101OSM   H13G10223   1.827   3.084   9.284 -0.1908 -0.7731 -1.6029
  101OSM   C14F10224   1.933   2.937   9.173  0.1094  0.0210  0.0166
  101OSM   H14F10225   1.920   2.827   9.166  1.7177 -0.1692 -0.3426
  101OSM   H14G10226   2.042   2.949   9.191 -0.0582 -0.4455  1.5377
  101OSM   C15F10227   1.887   3.010   9.044  0.3383 -0.5652  0.2127
  101OSM   H15F10228   1.925   3.114   9.058  0.2537 -0.8657  3.3826
  101OSM   H15G10229   1.779   2.998   9.024 -0.0195  0.9400  1.1225
  101OSM   C16F10230   1.963   2.951   8.921  0.5147 -0.3598  0.5470
  101OSM   H16F10231   1.946   2.841   8.909  1.6363 -0.6617  1.5323
  101OSM   H16G10232   2.073   2.950   8.940  1.1568  4.1624 -1.6361
  101OSM   C17F10233   1.927   3.029   8.789 -0.0536 -0.0741 -0.1373
  101OSM   H17F10234   1.973   3.129   8.806 -0.7575  0.2615 -0.1951
  101OSM   H17G10235   1.816   3.037   8.789 -0.3730 -3.1706  0.2540
  101OSM   C18F10236   1.989   2.967   8.660  0.0429  0.1063 -0.2037
  101OSM   H18F10237   1.941   2.872   8.628  0.1913 -0.7402  1.9820
  101OSM   H18G10238   2.096   2.945   8.677 -0.0411 -1.9970 -1.9682
  101OSM   H18H10239   1.982   3.039   8.575  0.5398  0.1198 -0.2336
  102OSM      N10240   3.858   5.566  10.482  0.0086 -0.2160 -0.2520
  102OSM    C1510241   3.852   5.614  10.342 -0.0917  0.5149  0.3405
  102OSM   H15A10242   3.889   5.534  10.279 -2.1167  1.4332 -2.1581
  102OSM   H15B10243   3.910   5.701  10.317  1.3699 -0.4829  0.0997
  102OSM   H15C10244   3.749   5.625  10.311 -0.6526 -0.4391  1.7291
  102OSM    C1410245   3.817   5.422  10.490  0.0754 -0.2415 -0.5062
  102OSM   H14A10246   3.884   5.355  10.437  1.3503  1.6464 -1.3971
  102OSM   H14B10247   3.719   5.415  10.445 -0.5593 -1.7754  1.0417
  102OSM   H14C10248   3.823   5.413  10.597  0.3611 -0.4733 -0.5413
  102OSM    C1310249   4.004   5.582  10.530  0.5315  0.0772 -0.6389
  102OSM   H13A10250   4.044   5.679  10.506  1.1176  0.4584  1.6361
  102OSM   H13B10251   4.060   5.503  10.482 -0.4857  0.0841 -1.8686
  102OSM   H13C10252   4.013   5.559  10.636  1.4084  0.5130 -0.6090
  102OSM    C1210253   3.767   5.659  10.569 -0.3622  0.1318  0.1162
  102OSM   H12A10254   3.803   5.757  10.543  0.6055 -0.2745 -0.1634
  102OSM   H12B10255   3.798   5.642  10.671  1.4636 -1.2862 -0.6111
  102OSM    C1110256   3.614   5.657  10.533  0.1662 -0.0540 -0.0864
  102OSM   H11A10257   3.603   5.692  10.428  0.0294  1.8254  0.5185
  102OSM   H11B10258   3.583   5.741  10.600 -1.3975  0.1804 -1.0538
  102OSM      P10259   3.398   5.518  10.529  0.0428 -0.6480  0.2810
  102OSM    O1310260   3.332   5.408  10.598 -0.1114 -0.3392 -0.1257
  102OSM    O1410261   3.333   5.653  10.542  0.0996 -0.0615 -0.4847
  102OSM    O1110262   3.400   5.484  10.370 -0.4583  0.6587 -0.5549
  102OSM    O1210263   3.552   5.535  10.566  0.1845 -0.4308 -0.1114
  102OSM    C1S10264   3.458   5.362  10.323  0.4006  0.0631 -1.1951
  102OSM    H1S10265   3.374   5.290  10.330  0.1106  0.5235  0.7764
  102OSM    H1T10266   3.538   5.318  10.386  1.2064  1.6383 -1.0701
  102OSM     NF10267   3.553   5.237  10.146  0.2401 -0.0398  0.8055
  102OSM    HNF10268   3.649   5.244  10.122  0.0118  1.0450  0.1165
  102OSM    C2S10269   3.489   5.366  10.176 -0.2684  0.2968  0.5077
  102OSM    H2S10270   3.391   5.384  10.126 -0.4943  1.4680  1.3336
  102OSM    C3S10271   3.583   5.488  10.140  0.5903  0.0624 -0.5220
  102OSM    H3S10272   3.684   5.471  10.183 -0.4532 -2.0844  1.3229
  102OSM     O310273   3.545   5.620  10.186  0.0042 -0.1165 -0.0501
  102OSM    HO310274   3.456   5.595  10.210 -0.1180  0.8617  0.5611
  102OSM    C4S10275   3.600   5.496   9.992  0.3328 -0.4725 -0.5812
  102OSM    H4S10276   3.507   5.519   9.939  1.0214 -0.1907 -1.6846
  102OSM    C5S10277   3.711   5.482   9.919  0.0510  0.5123 -0.1373
  102OSM    H5S10278   3.807   5.475   9.972  0.4155  1.8691 -0.5773
  102OSM    C6S10279   3.720   5.470   9.769  0.3624 -0.4512 -0.0122
  102OSM    H6S10280   3.636   5.526   9.721 -0.5022 -0.8123  1.0271
  102OSM    H6T10281   3.700   5.366   9.736 -0.1768 -0.1672 -0.6211
  102OSM    C7S10282   3.855   5.516   9.704 -0.3621 -0.4764 -0.3577
  102OSM    H7S10283   3.942   5.456   9.739 -0.3133 -0.1001  0.1849
  102OSM    H7T10284   3.863   5.619   9.745  1.8957 -0.5953 -0.3895
  102OSM    C8S10285   3.855   5.524   9.555 -0.3033  0.2047 -0.5112
  102OSM    H8S10286   3.768   5.588   9.529  0.3036  0.8563 -0.9938
  102OSM    H8T10287   3.858   5.419   9.519  1.8264 -0.1172  0.4557
  102OSM    C9S10288   3.980   5.600   9.496 -0.0907  0.0413 -0.5002
  102OSM    H9S10289   4.076   5.544   9.510  0.2912  0.4290 -1.4520
  102OSM    H9T10290   3.980   5.695   9.552 -0.3493  0.3279 -0.9828
  102OSM   C10S10291   3.976   5.629   9.343  0.1276 -0.0534 -0.4305
  102OSM   H10S10292   4.069   5.683   9.315 -0.3127 -0.7414 -3.5841
  102OSM   H10T10293   3.881   5.684   9.328 -1.3216 -1.1253  3.5165
  102OSM   C11S10294   3.972   5.508   9.256 -0.5919  0.1444  0.7969
  102OSM   H11S10295   3.894   5.437   9.289 -1.0557  0.8887  1.3281
  102OSM   H11T10296   4.075   5.467   9.249 -1.6614 -2.6706  0.2378
  102OSM   C12S10297   3.948   5.559   9.108 -0.3325 -0.3734 -0.4896
  102OSM   H12S10298   3.844   5.595   9.088 -1.1557 -2.5220 -0.3924
  102OSM   H12T10299   3.954   5.467   9.045  2.5620  0.1134 -1.0432
  102OSM   C13S10300   4.060   5.646   9.049 -0.6816 -0.2456 -0.7956
  102OSM   H13S10301   4.157   5.602   9.083  0.2256 -0.0325 -2.9719
  102OSM   H13T10302   4.049   5.751   9.084  0.2251  0.2309 -1.8754
  102OSM   C14S10303   4.075   5.636   8.897  0.0269 -0.2874  0.3310
  102OSM   H14S10304   3.979   5.680   8.864  0.3186 -0.9374 -1.4672
  102OSM   H14T10305   4.076   5.530   8.865 -0.5758 -0.5930  1.2687
  102OSM   C15S10306   4.188   5.720   8.843  0.0091  0.2529  0.5462
  102OSM   H15S10307   4.275   5.716   8.912 -1.4260 -0.6527  2.3893
  102OSM   H15T10308   4.147   5.823   8.842 -1.3597 -0.2701  1.1493
  102OSM   C16S10309   4.228   5.673   8.705 -0.3256 -0.2447  0.0900
  102OSM   H16S10310   4.133   5.687   8.648 -0.2658 -1.4262 -0.3138
  102OSM   H16T10311   4.263   5.568   8.713  1.1664  0.0091 -2.0790
  102OSM   C17S10312   4.345   5.752   8.648  0.8254  0.3223  0.4384
  102OSM   H17S10313   4.382   5.708   8.553 -1.6348  2.9545 -1.9470
  102OSM   H17T10314   4.428   5.738   8.721  1.7070 -0.1368 -0.6255
  102OSM   C18S10315   4.319   5.902   8.625  0.1280  0.3291 -0.3424
  102OSM   H18S10316   4.414   5.944   8.585 -0.2069  0.9157 -0.5256
  102OSM   H18T10317   4.276   5.944   8.719 -2.4905  1.2408 -1.8584
  102OSM   H18U10318   4.239   5.904   8.549  0.9255 -2.1899 -1.3538
  102OSM    C1F10319   3.486   5.123  10.161 -0.2436  0.3260  0.0533
  102OSM     OF10320   3.361   5.111  10.171 -0.6568 -0.2887 -0.1074
  102OSM    C2F10321   3.569   5.001  10.176 -0.0728  0.1286 -0.2913
  102OSM    H2F10322   3.514   4.935  10.247  0.9868 -0.5694 -0.0981
  102OSM    H2G10323   3.671   5.022  10.213  0.9522 -2.0852 -1.6461
  102OSM    C3F10324   3.598   4.921  10.047 -0.6792 -0.5605  0.0345
  102OSM    H3F10325   3.506   4.891   9.994  0.0229 -0.9696 -0.9974
  102OSM    H3G10326   3.651   4.829  10.078 -0.1806 -0.8258 -1.5185
  102OSM    C4F10327   3.697   4.998   9.952  0.9003 -1.0079 -0.0192
  102OSM    H4F10328   3.798   5.014   9.997  1.1300 -0.9948 -0.5337
  102OSM    H4G10329   3.648   5.096   9.932  0.1528 -1.5657 -1.0046
  102OSM    C5F10330   3.696   4.945   9.809 -0.2726  0.7430  1.0606
  102OSM    H5F10331   3.587   4.944   9.784 -0.3151  2.4170  1.0460
  102OSM    H5G10332   3.731   4.840   9.816  0.0433  0.8982  1.9432
  102OSM    C6F10333   3.767   5.030   9.698  0.2065  0.3008  1.0304
  102OSM    H6F10334   3.876   5.028   9.717  0.1423  0.4928  1.4361
  102OSM    H6G10335   3.739   5.137   9.688  0.7693  0.3252 -0.4101
  102OSM    C7F10336   3.749   4.955   9.559 -0.1315  0.2939  0.4693
  102OSM    H7F10337   3.642   4.952   9.528  0.2669 -0.7905 -0.8953
  102OSM    H7G10338   3.788   4.852   9.569 -1.7071 -0.7453 -2.6507
  102OSM    C8F10339   3.829   5.017   9.450 -0.5177  0.2549  0.1212
  102OSM    H8F10340   3.935   4.994   9.472  0.0564  3.0670  0.7375
  102OSM    H8G10341   3.821   5.128   9.453 -0.6870  0.2417  0.1498
  102OSM    C9F10342   3.797   4.978   9.311  0.0618  0.6566 -0.7470
  102OSM    H9F10343   3.734   4.888   9.308 -1.6968  1.7751  0.1990
  102OSM   C10F10344   3.829   5.053   9.208  0.0741 -0.3137  0.2631
  102OSM   H10F10345   3.795   5.015   9.110 -0.6954 -0.1346  0.4551
  102OSM   C11F10346   3.896   5.184   9.195 -0.3324 -1.1070 -0.6917
  102OSM   H11F10347   3.905   5.223   9.298 -0.6668 -0.2689 -0.9701
  102OSM   H11G10348   3.830   5.258   9.144  0.3294 -0.0822 -0.1085
  102OSM   C12F10349   4.025   5.189   9.109  0.5403 -0.2358 -0.3497
  102OSM   H12F10350   4.064   5.293   9.113 -0.1514  0.0508 -0.7406
  102OSM   H12G10351   3.981   5.171   9.008 -0.9700  0.8138  0.0864
  102OSM   C13F10352   4.132   5.087   9.162  0.0502  0.3180 -0.8449
  102OSM   H13F10353   4.107   4.979   9.158 -1.2160  0.3618  2.6160
  102OSM   H13G10354   4.148   5.105   9.271  4.2085 -2.0243 -0.8749
  102OSM   C14F10355   4.267   5.107   9.092 -0.0235  0.1489  0.2106
  102OSM   H14F10356   4.335   5.027   9.130 -1.2124 -0.7618  0.4684
  102OSM   H14G10357   4.305   5.205   9.129 -0.1312 -0.0566  0.8814
  102OSM   C15F10358   4.258   5.089   8.935  0.3400 -0.5758 -0.6847
  102OSM   H15F10359   4.200   5.160   8.873 -1.1439  0.1549  1.4431
  102OSM   H15G10360   4.202   4.994   8.916 -0.4661 -0.4253  0.8183
  102OSM   C16F10361   4.391   5.082   8.859  0.3574 -0.3858 -0.0378
  102OSM   H16F10362   4.467   5.039   8.928  1.6965 -1.7038 -2.2063
  102OSM   H16G10363   4.414   5.175   8.802 -0.5805 -0.6042 -0.8013
  102OSM   C17F10364   4.385   4.983   8.744 -0.2953  0.2966 -0.5060
  102OSM   H17F10365   4.363   4.884   8.790  2.4557  0.9220  2.6167
  102OSM   H17G10366   4.491   4.986   8.711 -0.4258 -0.0536 -0.9601
  102OSM   C18F10367   4.295   5.022   8.632 -0.2853  0.0831  0.1698
  102OSM   H18F10368   4.271   4.927   8.579 -0.4576  0.0099  0.3813
  102OSM   H18G10369   4.350   5.097   8.571  1.7473 -1.1183  0.4338
  102OSM   H18H10370   4.196   5.063   8.660 -0.8817  0.7373 -2.5362
  103OSM      N10371   2.714   0.462  11.121 -0.2712 -0.1253  0.1451
  103OSM    C1510372   2.689   0.321  11.171  0.5623 -1.0024  0.6604
  103OSM   H15A10373   2.763   0.251  11.134  1.4790  1.7198 -3.4000
  103OSM   H15B10374   2.590   0.285  11.146  0.1911 -1.1246  2.2032
  103OSM   H15C10375   2.677   0.322  11.278 -0.8106  1.2173  0.5585
  103OSM    C1410376   2.591   0.546  11.145  0.4232  0.7223  0.9067
  103OSM   H14A10377   2.515   0.514  11.075 -0.0080  1.4117  1.0485
  103OSM   H14B10378   2.605   0.651  11.125  0.9584  0.7103  1.1936
  103OSM   H14C10379   2.545   0.528  11.242 -0.3523 -2.5316  0.0627
  103OSM    C1310380   2.815   0.527  11.193 -0.7546  0.0734  0.2800
  103OSM   H13A10381   2.832   0.626  11.154  0.5282 -0.9250 -1.8857
  103OSM   H13B10382   2.907   0.471  11.206 -0.1823  0.9698  0.2044
  103OSM   H13C10383   2.793   0.538  11.298  2.6690  0.4134  1.0895
  103OSM    C1210384   2.738   0.466  10.970  0.2837  0.0229 -0.2132
  103OSM   H12A10385   2.639   0.451  10.931  0.7696 -0.2434 -1.4253
  103OSM   H12B10386   2.799   0.379  10.947 -0.7639 -1.0932  1.1040
  103OSM    C1110387   2.790   0.602  10.907  0.2027  0.1308  0.6660
  103OSM   H11A10388   2.800   0.585  10.797 -1.4979  1.1130  0.3201
  103OSM   H11B10389   2.887   0.622  10.956  0.9238  0.3216 -0.7703
  103OSM      P10390   2.583   0.745  10.836  0.6094  0.7928 -0.5309
  103OSM    O1310391   2.490   0.628  10.839 -0.6469  0.0621 -0.1262
  103OSM    O1410392   2.525   0.872  10.886 -0.1173 -0.0541  0.1094
  103OSM    O1110393   2.634   0.765  10.682  0.7188 -0.2664  0.0564
  103OSM    O1210394   2.707   0.709  10.935  0.8094  0.3608 -0.6753
  103OSM    C1S10395   2.758   0.835  10.654  0.2380 -0.2418 -0.1689
  103OSM    H1S10396   2.848   0.771  10.667  1.5873  1.4152 -1.0000
  103OSM    H1T10397   2.762   0.929  10.713 -2.5431  0.2124 -0.5650
  103OSM     NF10398   2.891   0.892  10.439  0.5323  0.4645 -0.1842
  103OSM    HNF10399   2.924   0.985  10.453  0.2863  0.3057  1.6899
  103OSM    C2S10400   2.758   0.869  10.496 -0.3748  0.6648 -0.0072
  103OSM    H2S10401   2.711   0.776  10.456 -1.1823  1.3467 -0.6855
  103OSM    C3S10402   2.659   0.983  10.452  0.4149 -0.3806 -0.0779
  103OSM    H3S10403   2.717   1.077  10.468  1.3846 -0.5804 -2.1787
  103OSM     O310404   2.543   0.983  10.532 -0.0707 -0.0134 -0.1093
  103OSM    HO310405   2.563   0.926  10.607  0.8111 -0.4615 -0.6609
  103OSM    C4S10406   2.639   0.976  10.299 -0.3283  0.1052 -0.7600
  103OSM    H4S10407   2.727   1.003  10.240  1.0709  0.8035  1.5146
  103OSM    C5S10408   2.538   0.908  10.245  0.0569 -0.2746  0.0531
  103OSM    H5S10409   2.465   0.858  10.311  0.4039 -1.1716 -0.2289
  103OSM    C6S10410   2.513   0.890  10.100  0.2189  0.0993 -0.7792
  103OSM    H6S10411   2.426   0.943  10.055 -0.7361  0.2054  1.0960
  103OSM    H6T10412   2.489   0.785  10.073 -2.5876  0.0616  1.4303
  103OSM    C7S10413   2.626   0.946  10.014 -0.1588 -0.2741  0.1100
  103OSM    H7S10414   2.721   0.895  10.038 -0.8016 -2.1442 -1.0925
  103OSM    H7T10415   2.654   1.051  10.037  0.2969 -0.1227 -1.1201
  103OSM    C8S10416   2.597   0.916   9.863 -0.1018 -0.5176  0.4933
  103OSM    H8S10417   2.490   0.936   9.844  0.3471 -0.3843 -2.2441
  103OSM    H8T10418   2.620   0.809   9.843  0.0100 -0.6785  1.4297
  103OSM    C9S10419   2.688   0.987   9.754 -1.1621  1.0056 -0.3620
  103OSM    H9S10420   2.795   0.960   9.767 -0.9523  0.9893 -1.9065
  103OSM    H9T10421   2.690   1.096   9.775 -0.9790  0.5900  2.0535
  103OSM   C10S10422   2.633   0.957   9.617 -0.7188 -0.0528 -0.2000
  103OSM   H10S10423   2.524   0.974   9.626 -0.3865  1.0386  4.6479
  103OSM   H10T10424   2.636   0.846   9.605 -3.6341 -0.4441  1.6566
  103OSM   C11S10425   2.693   1.028   9.501  0.1178  0.2608  0.2021
  103OSM   H11S10426   2.801   1.007   9.513 -0.0421  0.6435  3.2227
  103OSM   H11T10427   2.680   1.138   9.504 -1.7265  0.0851  3.4451
  103OSM   C12S10428   2.655   0.967   9.370  0.3776  0.2061  0.3732
  103OSM   H12S10429   2.546   0.964   9.351  0.2237  1.0887  1.0215
  103OSM   H12T10430   2.689   0.862   9.357  3.0465  1.2955 -2.5996
  103OSM   C13S10431   2.724   1.043   9.250  0.1257  0.5177  0.4968
  103OSM   H13S10432   2.829   1.013   9.269  0.0658  0.4856  0.7835
  103OSM   H13T10433   2.723   1.154   9.247  1.6759  0.5984  1.5803
  103OSM   C14S10434   2.684   0.983   9.111  0.0068 -0.3293 -0.4061
  103OSM   H14S10435   2.578   1.014   9.093 -0.3340 -1.8427 -1.1494
  103OSM   H14T10436   2.691   0.873   9.117 -2.1500 -0.5293 -0.5601
  103OSM   C15S10437   2.781   1.030   8.999  0.0578 -0.0512  0.5842
  103OSM   H15S10438   2.881   0.984   9.009  0.7498  0.7855 -1.7088
  103OSM   H15T10439   2.795   1.141   8.995  1.5007 -0.2551 -1.4804
  103OSM   C16S10440   2.730   0.998   8.856  0.1130 -0.2450 -1.0992
  103OSM   H16S10441   2.630   1.039   8.832  0.7821 -0.4305 -4.6801
  103OSM   H16T10442   2.718   0.887   8.851  0.5891 -0.3839  0.3508
  103OSM   C17S10443   2.819   1.054   8.743  0.4277 -0.5334  0.0713
  103OSM   H17S10444   2.925   1.032   8.766  0.6285  1.3773  1.1029
  103OSM   H17T10445   2.806   1.164   8.738 -0.4790 -0.6425 -0.1949
  103OSM   C18S10446   2.768   1.002   8.612 -0.3193  0.1697  0.6061
  103OSM   H18S10447   2.784   0.892   8.607  0.7760  0.3620 -0.7789
  103OSM   H18T10448   2.834   1.056   8.541 -1.0427  0.2858  0.0140
  103OSM   H18U10449   2.663   1.034   8.593 -0.2798 -1.0565 -2.1378
  103OSM    C1F10450   2.985   0.799  10.434 -0.1689  0.4153 -0.1844
  103OSM     OF10451   2.961   0.682  10.457  0.1600  0.3648  0.0235
  103OSM    C2F10452   3.118   0.852  10.407 -1.1347 -0.7095 -0.8288
  103OSM    H2F10453   3.157   0.873  10.509  1.8540  0.3889 -2.0753
  103OSM    H2G10454   3.116   0.946  10.348 -0.0339  0.0866  0.3468
  103OSM    C3F10455   3.215   0.745  10.334 -0.7675 -0.2964 -0.0320
  103OSM    H3F10456   3.221   0.654  10.397  2.8300 -0.1359  0.1124
  103OSM    H3G10457   3.316   0.793  10.340  0.3232 -1.6072 -4.3835
  103OSM    C4F10458   3.182   0.718  10.187 -0.6575 -0.0487  0.1839
  103OSM    H4F10459   3.142   0.810  10.139 -0.8576  0.4337  1.2380
  103OSM    H4G10460   3.100   0.643  10.178 -2.3331  1.7193 -0.2078
  103OSM    C5F10461   3.305   0.687  10.101  0.4385  0.9193  0.4663
  103OSM    H5F10462   3.366   0.607  10.147  2.4124  0.9777 -1.8973
  103OSM    H5G10463   3.360   0.782  10.085  0.1277  0.9636 -0.3658
  103OSM    C6F10464   3.264   0.639   9.963 -0.2116 -0.3568 -0.4558
  103OSM    H6F10465   3.207   0.718   9.911  1.1495  0.9989  0.0167
  103OSM    H6G10466   3.193   0.556   9.986 -0.4091  0.2884  1.5088
  103OSM    C7F10467   3.374   0.577   9.881 -0.5531  0.1741  0.7842
  103OSM    H7F10468   3.321   0.525   9.798 -1.3184  3.0139 -0.6414
  103OSM    H7G10469   3.436   0.520   9.953  1.4742  1.3590  0.0429
  103OSM    C8F10470   3.457   0.692   9.828  0.1195 -0.4365 -0.4368
  103OSM    H8F10471   3.466   0.757   9.918 -1.1301 -1.4419  0.4576
  103OSM    H8G10472   3.403   0.758   9.757 -0.7382  0.5875  1.0910
  103OSM    C9F10473   3.600   0.652   9.798 -0.8195 -0.0964  0.8047
  103OSM    H9F10474   3.673   0.618   9.873  0.8748  0.1850 -0.6727
  103OSM   C10F10475   3.639   0.664   9.669  0.4577  0.3459 -0.5048
  103OSM   H10F10476   3.739   0.628   9.641  0.7305  0.0564  0.7820
  103OSM   C11F10477   3.556   0.706   9.552 -0.3453 -0.2317 -0.8328
  103OSM   H11F10478   3.530   0.811   9.579 -1.2818 -0.2703 -1.5572
  103OSM   H11G10479   3.461   0.648   9.554 -0.3758 -0.1647 -0.1451
  103OSM   C12F10480   3.629   0.698   9.414 -0.1545 -0.0398 -0.1361
  103OSM   H12F10481   3.683   0.602   9.430 -1.1075 -1.1257 -2.8989
  103OSM   H12G10482   3.700   0.783   9.418  1.7247 -1.5260 -0.2621
  103OSM   C13F10483   3.541   0.701   9.287  0.7553  0.0478  0.0989
  103OSM   H13F10484   3.494   0.801   9.282  0.9482  0.2363  1.5573
  103OSM   H13G10485   3.464   0.623   9.304  0.6734  0.3164  1.0014
  103OSM   C14F10486   3.636   0.665   9.165  1.3252  0.2188 -0.2936
  103OSM   H14F10487   3.690   0.570   9.185  0.3289  0.1377  2.4782
  103OSM   H14G10488   3.711   0.746   9.170  0.8822  0.5627  1.4282
  103OSM   C15F10489   3.551   0.673   9.038  0.1379 -0.0424 -0.5511
  103OSM   H15F10490   3.487   0.763   9.040 -2.5626 -1.8358 -0.5499
  103OSM   H15G10491   3.470   0.597   9.033 -0.4967  0.5874 -0.0761
  103OSM   C16F10492   3.641   0.667   8.912  0.1787 -0.0479  0.0908
  103OSM   H16F10493   3.586   0.663   8.815 -0.6647  0.8914  0.5312
  103OSM   H16G10494   3.684   0.564   8.906 -0.8199 -0.4048 -3.0676
  103OSM   C17F10495   3.732   0.790   8.904 -0.2234 -0.3406  0.4811
  103OSM   H17F10496   3.798   0.804   8.993 -2.5146  0.0156  2.2090
  103OSM   H17G10497   3.682   0.889   8.902  1.0916  0.3716  1.2541
  103OSM   C18F10498   3.824   0.786   8.784 -0.5671 -0.0131  0.6943
  103OSM   H18F10499   3.867   0.887   8.773  2.1675 -0.9747  1.8398
  103OSM   H18G10500   3.761   0.761   8.695 -0.4721 -0.9911  0.8940
  103OSM   H18H10501   3.904   0.710   8.788  0.2410  0.8526  1.2585
  104OSM      N10502   2.805   6.316  10.826  0.1654 -0.0413  0.1654
  104OSM    C1510503   2.683   6.305  10.912  0.1034 -0.4498  0.3929
  104OSM   H15A10504   2.644   6.401  10.942  0.9550 -0.2715  0.9826
  104OSM   H15B10505   2.708   6.259  11.006  1.6804 -3.5731 -1.3891
  104OSM   H15C10506   2.606   6.247  10.864 -0.7864  0.1804  1.0297
  104OSM    C1410507   2.911   6.378  10.912  0.6675 -0.4276 -0.0492
  104OSM   H14A10508   2.969   6.429  10.837  1.4997  1.4913  1.7749
  104OSM   H14B10509   2.966   6.297  10.958  1.0494 -0.6579 -0.9022
  104OSM   H14C10510   2.881   6.456  10.981  1.2667 -2.1376  2.2891
  104OSM    C1310511   2.842   6.178  10.792  0.1094 -0.7588  0.0444
  104OSM   H13A10512   2.927   6.181  10.725  1.1529 -0.7492  1.3252
  104OSM   H13B10513   2.759   6.128  10.745  0.7584 -1.6073 -0.2227
  104OSM   H13C10514   2.875   6.125  10.881 -2.6775 -1.8831  0.5007
  104OSM    C1210515   2.784   6.385  10.693  0.2479  0.1708 -0.1444
  104OSM   H12A10516   2.693   6.350  10.645 -0.9789 -0.1704  2.2340
  104OSM   H12B10517   2.858   6.358  10.620 -0.6471  3.1824 -2.3539
  104OSM    C1110518   2.788   6.542  10.684 -0.3918 -0.1605  0.7907
  104OSM   H11A10519   2.714   6.577  10.759  0.7925  0.9110  1.4812
  104OSM   H11B10520   2.753   6.557  10.579  1.4361  0.0689  0.1724
  104OSM      P10521   3.034   6.583  10.595 -0.3618  0.1505 -0.2345
  104OSM    O1310522   3.159   6.640  10.640  0.2008  0.4399 -0.4307
  104OSM    O1410523   3.029   6.447  10.539 -0.1006  0.7022  0.3263
  104OSM    O1110524   2.979   6.678  10.488  0.1894  0.2859  0.1023
  104OSM    O1210525   2.923   6.594  10.700 -0.5573 -0.2521  0.0217
  104OSM    C1S10526   2.999   6.823  10.495 -1.2926 -0.2302  0.6954
  104OSM    H1S10527   3.093   6.859  10.540 -0.6069 -0.8375 -0.2034
  104OSM    H1T10528   2.921   6.871  10.557  0.3113  1.8521  1.2189
  104OSM     NF10529   3.042   7.026  10.343  0.5697 -0.2112 -0.1131
  104OSM    HNF10530   2.975   7.098  10.324  1.9918  1.6422  1.5628
  104OSM    C2S10531   2.991   6.893  10.349  0.3757  0.2537  0.8398
  104OSM    H2S10532   3.055   6.830  10.284 -0.1272  0.7684 -0.1757
  104OSM    C3S10533   2.847   6.876  10.293 -0.7299 -0.1515 -0.2529
  104OSM    H3S10534   2.770   6.932  10.351 -1.0099 -0.0036 -0.7559
  104OSM     O310535   2.795   6.748  10.314 -0.2643 -0.0959  0.3660
  104OSM    HO310536   2.861   6.708  10.371  1.6662  0.8208 -1.1042
  104OSM    C4S10537   2.833   6.919  10.149 -0.3231  0.0902  0.2718
  104OSM    H4S10538   2.850   7.025  10.126 -0.0587  0.6357  2.7115
  104OSM    C5S10539   2.812   6.836  10.044 -0.2172  0.3672 -0.3856
  104OSM    H5S10540   2.809   6.726  10.057  1.3142  0.2796 -0.5110
  104OSM    C6S10541   2.792   6.871   9.898  0.8246  0.2932  0.6430
  104OSM    H6S10542   2.711   6.802   9.865  0.7155 -0.7417  2.9059
  104OSM    H6T10543   2.888   6.844   9.851 -0.5490 -3.1794 -0.4713
  104OSM    C7S10544   2.743   7.015   9.864  0.3301 -0.6181 -0.8058
  104OSM    H7S10545   2.821   7.083   9.904 -0.4726 -0.3195  0.2858
  104OSM    H7T10546   2.653   7.042   9.923  0.5857  0.2399 -0.7939
  104OSM    C8S10547   2.713   7.042   9.717  0.2448  0.4670  0.2523
  104OSM    H8S10548   2.677   7.144   9.692  0.6540  0.7355  0.7486
  104OSM    H8T10549   2.627   6.980   9.681  0.7031 -0.5097  0.8030
  104OSM    C9S10550   2.825   7.009   9.616 -0.4440 -0.5759  0.1192
  104OSM    H9S10551   2.838   6.899   9.604  1.5869 -0.4981  1.2098
  104OSM    H9T10552   2.928   7.039   9.644 -0.7436  1.6918 -0.9919
  104OSM   C10S10553   2.808   7.080   9.481 -0.4059  0.8741  0.1650
  104OSM   H10S10554   2.900   7.059   9.423 -0.3320 -0.6314  0.7813
  104OSM   H10T10555   2.791   7.188   9.502  0.9944  1.3140 -0.8105
  104OSM   C11S10556   2.694   7.019   9.404 -0.3104 -0.4895 -0.8350
  104OSM   H11S10557   2.611   7.030   9.477  0.7049 -1.9593  0.5966
  104OSM   H11T10558   2.710   6.911   9.384 -0.6274 -0.5836 -0.5847
  104OSM   C12S10559   2.665   7.095   9.269  0.1289  0.3382  0.4792
  104OSM   H12S10560   2.651   7.205   9.283 -2.3629  0.0799  0.4528
  104OSM   H12T10561   2.563   7.063   9.238  0.1111 -0.4510  1.3347
  104OSM   C13S10562   2.766   7.057   9.155  0.4955 -0.8780  0.0819
  104OSM   H13S10563   2.788   6.948   9.162 -0.6103 -1.0166  1.9103
  104OSM   H13T10564   2.859   7.114   9.173  1.4396 -1.3475 -2.7359
  104OSM   C14S10565   2.720   7.088   9.003 -0.7785 -0.7524  0.1959
  104OSM   H14S10566   2.676   7.189   8.996  0.3319 -0.3879 -2.9052
  104OSM   H14T10567   2.650   7.004   8.982  1.2137 -2.4797  0.1077
  104OSM   C15S10568   2.833   7.071   8.904  0.0471  0.1633  0.0492
  104OSM   H15S10569   2.925   7.123   8.936  0.1020 -1.4941  2.9171
  104OSM   H15T10570   2.802   7.129   8.814 -2.7362  1.6496  1.7945
  104OSM   C16S10571   2.884   6.927   8.874  0.0520 -0.1139 -0.0548
  104OSM   H16S10572   2.797   6.861   8.855 -1.1891  1.0543  1.3632
  104OSM   H16T10573   2.937   6.882   8.960  2.8705  2.4774 -0.2471
  104OSM   C17S10574   2.981   6.926   8.747  0.6799  0.3659  0.2666
  104OSM   H17S10575   3.039   6.831   8.741  2.3525  1.4250 -2.6574
  104OSM   H17T10576   3.050   7.009   8.772 -0.1482  1.3044 -0.5004
  104OSM   C18S10577   2.908   6.923   8.611 -0.5871 -0.1607  0.0246
  104OSM   H18S10578   2.971   6.878   8.532 -1.0597 -1.6791  0.4856
  104OSM   H18T10579   2.871   7.023   8.578 -0.9290 -0.1059  0.5573
  104OSM   H18U10580   2.816   6.861   8.619 -1.1735  0.9181  3.7220
  104OSM    C1F10581   3.168   7.051  10.356 -0.0198 -0.4357 -0.1514
  104OSM     OF10582   3.251   6.960  10.353 -0.2194  0.2932 -0.8932
  104OSM    C2F10583   3.199   7.192  10.356  0.6847  0.1038  0.1455
  104OSM    H2F10584   3.137   7.238  10.435 -1.4866 -1.3489 -0.6418
  104OSM    H2G10585   3.166   7.242  10.263 -0.9276 -0.9158  0.1316
  104OSM    C3F10586   3.350   7.220  10.376  0.2746  0.0112 -0.1167
  104OSM    H3F10587   3.385   7.194  10.479 -1.4198  2.0845  1.0494
  104OSM    H3G10588   3.354   7.331  10.379  0.9505 -0.0271  1.7588
  104OSM    C4F10589   3.446   7.178  10.264 -0.5698  0.3188  0.3717
  104OSM    H4F10590   3.395   7.176  10.165 -0.5748  2.4107  0.2688
  104OSM    H4G10591   3.468   7.070  10.263 -0.0479  0.3754  2.4430
  104OSM    C5F10592   3.576   7.259  10.279  0.4028  0.3121 -0.3216
  104OSM    H5F10593   3.631   7.211  10.362  1.4677 -1.2381 -1.8404
  104OSM    H5G10594   3.539   7.360  10.308 -2.0656 -0.1477 -1.5418
  104OSM    C6F10595   3.667   7.261  10.154  0.0039  0.2121  0.5894
  104OSM    H6F10596   3.607   7.297  10.068 -0.3360 -1.6982 -0.0264
  104OSM    H6G10597   3.693   7.156  10.131 -0.6247  0.5817 -2.1176
  104OSM    C7F10598   3.792   7.353  10.174  0.5333  0.6191  0.5807
  104OSM    H7F10599   3.850   7.328  10.266  0.2666  3.2460  1.5409
  104OSM    H7G10600   3.761   7.455  10.205 -3.0942  0.6176 -2.4217
  104OSM    C8F10601   3.905   7.362  10.067 -0.0829  1.1562 -0.2086
  104OSM    H8F10602   3.992   7.415  10.112 -0.7939  2.4439 -0.2807
  104OSM    H8G10603   3.874   7.421   9.978 -0.1969  1.4972  0.0550
  104OSM    C9F10604   3.956   7.219  10.036  0.0156 -0.6238 -1.2054
  104OSM    H9F10605   4.019   7.180  10.117 -0.6310 -1.3052 -1.0286
  104OSM   C10F10606   3.948   7.148   9.920  0.0190 -0.5454  0.4434
  104OSM   H10F10607   3.999   7.051   9.917  2.8005  0.8329 -0.3769
  104OSM   C11F10608   3.883   7.191   9.793 -0.7959  0.4022  0.1214
  104OSM   H11F10609   3.824   7.284   9.800 -2.0282 -0.4208  1.1855
  104OSM   H11G10610   3.810   7.112   9.765  0.7889 -1.4533  0.9702
  104OSM   C12F10611   3.989   7.203   9.674  1.6786  0.2111  0.7432
  104OSM   H12F10612   4.056   7.114   9.666  0.5993 -0.4900 -2.4416
  104OSM   H12G10613   4.035   7.303   9.686 -0.0364  0.9561  1.4903
  104OSM   C13F10614   3.915   7.195   9.543 -0.7128 -0.2069  0.5666
  104OSM   H13F10615   3.830   7.266   9.536  0.4676  1.1325 -0.9024
  104OSM   H13G10616   3.867   7.095   9.542  1.0921 -1.1154  0.1515
  104OSM   C14F10617   4.014   7.211   9.431  0.7804  0.1468  0.1756
  104OSM   H14F10618   4.097   7.140   9.445  0.9764 -0.0435 -1.7776
  104OSM   H14G10619   4.068   7.308   9.432  1.4067 -0.2053  0.9725
  104OSM   C15F10620   3.939   7.202   9.298 -0.1006 -0.2476 -0.3414
  104OSM   H15F10621   3.860   7.280   9.295 -1.0173 -1.1878 -2.1405
  104OSM   H15G10622   3.889   7.103   9.292  0.0098 -0.3120 -0.1869
  104OSM   C16F10623   4.029   7.226   9.179  0.9948 -0.3235 -0.1439
  104OSM   H16F10624   4.114   7.155   9.167  0.0996 -1.2924 -0.9460
  104OSM   H16G10625   4.071   7.329   9.183 -0.6431  0.3779 -0.1741
  104OSM   C17F10626   3.932   7.206   9.053 -0.2744 -0.4376 -0.1423
  104OSM   H17F10627   3.847   7.276   9.065  0.3193  0.5047 -1.1364
  104OSM   H17G10628   3.890   7.104   9.043 -3.0258  0.7888 -2.3616
  104OSM   C18F10629   4.008   7.241   8.927  0.1152  0.5274 -0.2068
  104OSM   H18F10630   4.072   7.328   8.955 -2.7645  1.6855  3.7513
  104OSM   H18G10631   3.946   7.260   8.837  0.5017  0.5344 -0.4722
  104OSM   H18H10632   4.090   7.170   8.906  0.6518  0.5815  1.5440
  105OSM      N10633   4.600   1.994  11.304  0.6989 -0.0544  0.4439
  105OSM    C1510634   4.641   2.132  11.338 -0.1841  0.0066 -0.1577
  105OSM   H15A10635   4.680   2.129  11.438  0.9928  0.3062 -0.5885
  105OSM   H15B10636   4.554   2.195  11.348 -0.6075 -0.7267  0.8931
  105OSM   H15C10637   4.715   2.164  11.266 -1.6974 -0.7550 -2.1733
  105OSM    C1410638   4.724   1.912  11.307 -0.2316  0.1696 -0.1060
  105OSM   H14A10639   4.794   1.933  11.228  0.5303 -0.9872  0.2249
  105OSM   H14B10640   4.690   1.811  11.291  0.3248 -0.2063  0.9703
  105OSM   H14C10641   4.775   1.931  11.400 -1.3734 -0.5037  0.6898
  105OSM    C1310642   4.506   1.938  11.409  0.1121 -0.7662 -0.0859
  105OSM   H13A10643   4.487   1.837  11.379  0.3737 -2.2347  3.9846
  105OSM   H13B10644   4.408   1.983  11.416 -0.2672 -1.6449  0.3674
  105OSM   H13C10645   4.558   1.941  11.504 -1.9076  0.9172  1.0616
  105OSM    C1210646   4.537   1.990  11.162 -0.5098 -0.2720  0.0792
  105OSM   H12A10647   4.442   2.041  11.164 -0.6169 -0.3709 -1.3905
  105OSM   H12B10648   4.516   1.886  11.141 -1.1733 -0.1120 -0.0887
  105OSM    C1110649   4.622   2.036  11.040 -0.7556  0.4426  0.8138
  105OSM   H11A10650   4.650   2.142  11.061 -0.4208  0.2573  1.3252
  105OSM   H11B10651   4.558   2.044  10.950 -0.7162 -1.6656  0.5494
  105OSM      P10652   4.724   1.829  10.946 -0.3440  0.1448 -0.1255
  105OSM    O1310653   4.846   1.751  10.973  0.2481 -0.0539 -0.3668
  105OSM    O1410654   4.591   1.766  10.979 -0.3116  0.1752  0.2373
  105OSM    O1110655   4.722   1.869  10.797 -0.3171  0.7906  0.5795
  105OSM    O1210656   4.740   1.962  11.024 -0.4008  0.1766 -0.2195
  105OSM    C1S10657   4.771   1.997  10.754  0.2421 -0.5716 -1.2135
  105OSM    H1S10658   4.859   2.042  10.805 -1.4225  1.1094  0.3145
  105OSM    H1T10659   4.694   2.077  10.760  0.6015 -0.1565 -1.9855
  105OSM     NF10660   4.864   2.123  10.559 -0.1502 -0.7554  0.0423
  105OSM    HNF10661   4.805   2.184  10.505 -2.3833 -2.4715  0.3768
  105OSM    C2S10662   4.807   1.995  10.598  0.0263 -0.0222 -0.2880
  105OSM    H2S10663   4.879   1.911  10.586 -1.7596 -1.9417  1.5543
  105OSM    C3S10664   4.681   1.972  10.511  0.1964  0.2231  0.0552
  105OSM    H3S10665   4.621   2.065  10.505  0.9780  0.7275 -0.0929
  105OSM     O310666   4.592   1.871  10.562 -0.5440 -0.0449 -0.0729
  105OSM    HO310667   4.613   1.864  10.655 -0.0803 -0.7635 -0.2268
  105OSM    C4S10668   4.720   1.944  10.369 -0.1050  0.5877 -0.3141
  105OSM    H4S10669   4.800   1.869  10.364  1.4379  2.1706 -0.4597
  105OSM    C5S10670   4.678   2.004  10.258 -0.3350 -0.3803  0.5336
  105OSM    H5S10671   4.604   2.086  10.257  1.3709  1.2431  0.3241
  105OSM    C6S10672   4.739   1.984  10.125 -0.0711 -0.6390  0.2012
  105OSM    H6S10673   4.668   1.919  10.070 -3.2681  0.7892  2.3224
  105OSM    H6T10674   4.834   1.928  10.140  1.1157  1.5037  1.2148
  105OSM    C7S10675   4.776   2.117  10.052  0.2884  0.4973 -0.0713
  105OSM    H7S10676   4.846   2.170  10.121 -2.2865  1.2137  2.1599
  105OSM    H7T10677   4.692   2.187  10.031  0.4752  0.2643 -1.7341
  105OSM    C8S10678   4.829   2.088   9.915 -0.3542  0.1835  0.7174
  105OSM    H8S10679   4.748   2.033   9.862 -1.0318  0.2495  1.6601
  105OSM    H8T10680   4.924   2.032   9.930  0.7857  1.6745 -0.5289
  105OSM    C9S10681   4.863   2.206   9.828  0.0270 -0.3319 -0.3281
  105OSM    H9S10682   4.931   2.276   9.880  0.5288 -0.2415 -1.0868
  105OSM    H9T10683   4.771   2.265   9.808  0.3656  0.2837 -0.0740
  105OSM   C10S10684   4.920   2.167   9.690  0.0220  0.2724  0.3740
  105OSM   H10S10685   4.998   2.091   9.710 -1.0845 -1.9402 -2.7611
  105OSM   H10T10686   4.971   2.243   9.628 -0.7420 -2.3828 -3.9035
  105OSM   C11S10687   4.813   2.107   9.598 -0.0344 -0.2554 -0.0585
  105OSM   H11S10688   4.721   2.169   9.595 -0.3642 -0.4572  2.7614
  105OSM   H11T10689   4.779   2.010   9.640 -1.3052  0.1761 -0.0419
  105OSM   C12S10690   4.879   2.089   9.459  0.8495  0.0560 -0.3044
  105OSM   H12S10691   4.857   1.991   9.412 -1.0953  0.4599 -0.3283
  105OSM   H12T10692   4.989   2.093   9.477  1.0473 -3.2421 -0.2580
  105OSM   C13S10693   4.856   2.204   9.355 -0.1022  0.5801 -0.1155
  105OSM   H13S10694   4.874   2.303   9.402 -0.2153 -0.5136  2.3909
  105OSM   H13T10695   4.755   2.195   9.309 -0.3201 -2.7870  0.7429
  105OSM   C14S10696   4.952   2.199   9.238 -0.5880  0.4852 -0.0428
  105OSM   H14S10697   4.949   2.098   9.191  0.3979  1.3534 -2.0663
  105OSM   H14T10698   5.049   2.208   9.292 -0.5071  2.1999 -0.4348
  105OSM   C15S10699   4.944   2.319   9.140 -0.9723 -0.3426 -0.0174
  105OSM   H15S10700   5.039   2.375   9.145 -2.2349  1.9407 -0.4989
  105OSM   H15T10701   4.871   2.393   9.180  0.0844 -0.2068  1.7896
  105OSM   C16S10702   4.912   2.281   8.996  0.1243 -0.5945  0.6923
  105OSM   H16S10703   4.922   2.369   8.929 -2.2062 -1.9352 -1.5865
  105OSM   H16T10704   4.818   2.226   8.974  1.4423 -2.0588 -1.6573
  105OSM   C17S10705   5.012   2.172   8.926  0.5392 -0.0085  0.0307
  105OSM   H17S10706   4.962   2.077   8.953 -1.3473  0.4526 -1.6349
  105OSM   H17T10707   5.117   2.179   8.964 -0.0127  0.2190  1.6021
  105OSM   C18S10708   5.039   2.179   8.773 -1.0499  1.2552  0.0324
  105OSM   H18S10709   5.125   2.246   8.748 -1.2710  1.5572  0.0721
  105OSM   H18T10710   4.952   2.216   8.715 -1.6610 -1.5838 -1.0317
  105OSM   H18U10711   5.054   2.073   8.744  1.2829  1.2394  1.0866
  105OSM    C1F10712   4.982   2.171  10.606 -0.1416 -0.3462  0.2150
  105OSM     OF10713   5.057   2.104  10.672 -0.4222  0.2491 -0.3434
  105OSM    C2F10714   5.010   2.316  10.567  0.0205  0.1228  0.2363
  105OSM    H2F10715   5.045   2.376  10.653  2.8993 -0.3329 -0.5090
  105OSM    H2G10716   4.910   2.351  10.534 -0.7977 -1.5950  0.7818
  105OSM    C3F10717   5.118   2.314  10.454  0.0189 -0.4728  0.1103
  105OSM    H3F10718   5.212   2.279  10.503 -0.9941 -2.6600  0.5633
  105OSM    H3G10719   5.158   2.415  10.427 -0.5861  0.2198  1.6955
  105OSM    C4F10720   5.072   2.227  10.328 -0.5208 -0.6127  0.0270
  105OSM    H4F10721   4.976   2.271  10.293 -0.4198  0.3929  0.9556
  105OSM    H4G10722   5.055   2.122  10.360 -0.8060 -0.0954  1.7018
  105OSM    C5F10723   5.184   2.233  10.228 -0.4711 -0.2226 -0.5756
  105OSM    H5F10724   5.279   2.216  10.282 -0.5898  1.0205  0.0783
  105OSM    H5G10725   5.205   2.337  10.194 -0.2906  0.0567  0.3641
  105OSM    C6F10726   5.165   2.130  10.122  0.0260  0.0806  0.2683
  105OSM    H6F10727   5.098   2.173  10.044  2.0894  0.4715 -1.3973
  105OSM    H6G10728   5.116   2.044  10.172 -1.7689  0.2400 -1.1017
  105OSM    C7F10729   5.296   2.095  10.054 -0.8603  0.4253  0.5055
  105OSM    H7F10730   5.365   2.041  10.122 -2.0633 -2.3156 -0.3085
  105OSM    H7G10731   5.344   2.191  10.026  0.2924 -0.0761  0.7036
  105OSM    C8F10732   5.262   2.028   9.916 -0.3079  0.5905 -0.5410
  105OSM    H8F10733   5.196   2.095   9.856  0.9422  0.1284 -2.5432
  105OSM    H8G10734   5.216   1.929   9.932  0.4437  0.5421  1.5471
  105OSM    C9F10735   5.392   2.029   9.833  0.7120 -0.1028  1.0271
  105OSM    H9F10736   5.475   2.038   9.905 -1.1354 -1.1053  3.4204
  105OSM   C10F10737   5.414   2.029   9.699 -0.1423 -0.2107 -0.1487
  105OSM   H10F10738   5.516   2.044   9.658  0.2163  0.7560  1.0428
  105OSM   C11F10739   5.304   2.042   9.598  0.1894  0.8269  0.6068
  105OSM   H11F10740   5.289   2.148   9.567 -2.0352  0.5757  0.6750
  105OSM   H11G10741   5.206   2.002   9.630  1.3169 -2.8121 -0.0031
  105OSM   C12F10742   5.331   1.971   9.459 -0.1890 -0.0054 -0.5956
  105OSM   H12F10743   5.237   1.952   9.403  0.7117 -0.6785 -1.9515
  105OSM   H12G10744   5.373   1.873   9.489  0.1078 -0.3142 -1.9291
  105OSM   C13F10745   5.435   2.042   9.369  0.0166 -0.3158  0.5997
  105OSM   H13F10746   5.521   2.069   9.434  0.0498  1.6270 -0.1925
  105OSM   H13G10747   5.390   2.137   9.334 -2.9296 -1.8077  0.0613
  105OSM   C14F10748   5.505   1.963   9.263  0.4828  0.5399  0.7895
  105OSM   H14F10749   5.514   1.855   9.290  1.2963  0.0884 -1.1324
  105OSM   H14G10750   5.605   2.010   9.254  0.2535  1.5039  2.6158
  105OSM   C15F10751   5.424   1.982   9.135 -0.3658  0.3276 -0.0351
  105OSM   H15F10752   5.396   2.089   9.125 -0.9819  0.1309 -0.4683
  105OSM   H15G10753   5.331   1.921   9.141 -0.4939  0.6516  1.9794
  105OSM   C16F10754   5.495   1.930   9.010 -0.5450 -0.2873  0.6742
  105OSM   H16F10755   5.515   1.820   9.008  1.4413  0.0563 -0.3290
  105OSM   H16G10756   5.596   1.975   9.005 -0.1501 -1.2726 -0.6649
  105OSM   C17F10757   5.412   1.977   8.895 -0.0219  0.0673 -0.1050
  105OSM   H17F10758   5.400   2.087   8.884 -1.6672 -0.0661  0.1828
  105OSM   H17G10759   5.312   1.943   8.930  0.0485 -0.2589 -0.2237
  105OSM   C18F10760   5.447   1.925   8.753  0.2183 -0.6888 -0.6946
  105OSM   H18F10761   5.557   1.909   8.750  0.4109 -0.0757  1.5531
  105OSM   H18G10762   5.411   1.995   8.675 -3.2442 -0.6224  0.7987
  105OSM   H18H10763   5.400   1.825   8.744  2.1801 -1.7662  0.2732
  106OSM      N10764   4.801   2.564  10.893 -0.0546  0.3472 -0.4019
  106OSM    C1510765   4.685   2.656  10.920  0.0557 -0.3287  0.3250
  106OSM   H15A10766   4.609   2.613  10.984 -1.0628  0.4142 -0.4525
  106OSM   H15B10767   4.634   2.673  10.827 -0.2098 -1.4206  0.2595
  106OSM   H15C10768   4.716   2.753  10.956  0.8973 -0.1849 -0.7572
  106OSM    C1410769   4.897   2.636  10.800  0.1577 -0.2923  0.1216
  106OSM   H14A10770   4.989   2.580  10.790  0.7071  0.8700 -1.5303
  106OSM   H14B10771   4.923   2.731  10.844  0.7557  0.4266 -1.7263
  106OSM   H14C10772   4.855   2.655  10.703  0.2444  0.5496  0.2481
  106OSM    C1310773   4.868   2.567  11.029 -0.7890  0.2135 -0.4372
  106OSM   H13A10774   4.960   2.510  11.027 -0.9123 -0.0096  0.1161
  106OSM   H13B10775   4.800   2.523  11.100  0.4370  0.9596  1.2704
  106OSM   H13C10776   4.886   2.667  11.064  1.8398 -0.5446  0.5636
  106OSM    C1210777   4.754   2.434  10.844 -0.1937  0.6913  0.6093
  106OSM   H12A10778   4.691   2.388  10.919  0.4113 -0.7593  0.2736
  106OSM   H12B10779   4.841   2.372  10.830 -1.3584 -1.3433  1.8805
  106OSM    C1110780   4.675   2.434  10.710  0.5532  0.5692  0.8213
  106OSM   H11A10781   4.679   2.331  10.668 -1.8398  0.5070  0.6176
  106OSM   H11B10782   4.730   2.509  10.649 -0.1408  0.4040 -0.0285
  106OSM      P10783   4.431   2.385  10.779  0.0169  0.4171  0.1283
  106OSM    O1310784   4.477   2.308  10.893  0.2991  0.1478 -0.0551
  106OSM    O1410785   4.301   2.458  10.794 -0.1452 -0.1373 -0.0109
  106OSM    O1110786   4.420   2.274  10.665  0.2888  0.0798 -0.7832
  106OSM    O1210787   4.540   2.471  10.720 -0.3393 -0.2613 -0.0285
  106OSM    C1S10788   4.349   2.296  10.548 -0.1622 -0.4960  0.1118
  106OSM    H1S10789   4.405   2.372  10.489  1.1483 -1.6822 -0.2160
  106OSM    H1T10790   4.245   2.327  10.570 -0.6912 -1.8067 -0.4548
  106OSM     NF10791   4.279   2.207  10.325 -0.3694 -0.3641  0.6630
  106OSM    HNF10792   4.189   2.178  10.294 -0.2633 -1.1347  1.0590
  106OSM    C2S10793   4.328   2.171  10.462  0.2299 -0.5744  0.3905
  106OSM    H2S10794   4.429   2.128  10.444  0.9318  0.2251  2.2092
  106OSM    C3S10795   4.237   2.073  10.540  0.0426 -0.1425  0.0791
  106OSM    H3S10796   4.144   2.132  10.552  0.3681  0.4870 -0.4608
  106OSM     O310797   4.300   2.036  10.663 -0.4638  0.3562 -0.2201
  106OSM    HO310798   4.374   2.097  10.660  0.9877 -1.3418 -1.4226
  106OSM    C4S10799   4.200   1.947  10.452  0.7159  0.3728  0.3509
  106OSM    H4S10800   4.094   1.939  10.426  0.4028  0.6814  1.4766
  106OSM    C5S10801   4.275   1.838  10.416 -0.0958 -0.9026 -0.5392
  106OSM    H5S10802   4.374   1.829  10.463  0.0611  2.9043  0.1674
  106OSM    C6S10803   4.219   1.725  10.334  0.0196  0.2948  0.2924
  106OSM    H6S10804   4.110   1.736  10.319 -0.6414 -1.1910  3.3402
  106OSM    H6T10805   4.235   1.628  10.386  0.2614 -0.8848 -1.8639
  106OSM    C7S10806   4.291   1.710  10.199 -0.3782 -0.7411 -0.6144
  106OSM    H7S10807   4.241   1.620  10.157 -0.5323 -1.6835  1.4820
  106OSM    H7T10808   4.399   1.683  10.200 -0.0117  0.5898  0.7259
  106OSM    C8S10809   4.268   1.835  10.111  0.1620 -0.2684 -0.3184
  106OSM    H8S10810   4.311   1.922  10.164 -1.9033  1.6422 -1.6158
  106OSM    H8T10811   4.158   1.847  10.101  0.0682 -1.0224 -0.2591
  106OSM    C9S10812   4.328   1.825   9.967  0.2962 -0.2097  0.0852
  106OSM    H9S10813   4.263   1.768   9.897 -3.6778  2.7215  1.0515
  106OSM    H9T10814   4.428   1.776   9.970  0.0563 -1.3015 -3.9787
  106OSM   C10S10815   4.339   1.961   9.902 -0.7748 -0.1617  0.4478
  106OSM   H10S10816   4.400   2.013   9.978  0.9790 -1.6851  0.1547
  106OSM   H10T10817   4.239   2.007   9.884 -0.2946  0.7281 -0.0301
  106OSM   C11S10818   4.427   1.964   9.770 -0.5484 -0.0664  0.5246
  106OSM   H11S10819   4.516   1.899   9.780  0.2932  1.2398  1.8936
  106OSM   H11T10820   4.461   2.069   9.759  0.9710 -0.6482 -0.6736
  106OSM   C12S10821   4.354   1.932   9.636  0.0402 -0.0424 -0.1737
  106OSM   H12S10822   4.260   1.984   9.610 -1.0018 -2.0123 -0.5331
  106OSM   H12T10823   4.335   1.823   9.633 -1.1013  0.1524 -1.8206
  106OSM   C13S10824   4.456   1.954   9.523 -0.9462  0.2343  0.1241
  106OSM   H13S10825   4.547   1.890   9.524 -1.4452 -0.5424 -1.2012
  106OSM   H13T10826   4.485   2.061   9.525  0.2354 -0.0792  0.6284
  106OSM   C14S10827   4.392   1.928   9.380  0.3966 -0.1975 -0.6274
  106OSM   H14S10828   4.302   1.993   9.382  1.9237  2.1013  2.6493
  106OSM   H14T10829   4.350   1.826   9.362 -0.4376 -0.0888  0.5548
  106OSM   C15S10830   4.492   1.965   9.270 -0.0781 -0.1649 -0.6269
  106OSM   H15S10831   4.595   1.925   9.274  0.7272  1.7348 -1.0172
  106OSM   H15T10832   4.509   2.075   9.275  1.5799 -0.3747  5.3590
  106OSM   C16S10833   4.446   1.933   9.124 -0.5545 -0.1996  0.0563
  106OSM   H16S10834   4.366   2.006   9.099 -0.6316  0.0579  1.0127
  106OSM   H16T10835   4.404   1.830   9.131  1.8926 -1.2387  0.4964
  106OSM   C17S10836   4.561   1.945   9.027  0.1907 -0.3252  0.7040
  106OSM   H17S10837   4.536   1.887   8.935  2.1540 -1.1494  0.6461
  106OSM   H17T10838   4.652   1.907   9.076  1.4710  0.8483 -0.6577
  106OSM   C18S10839   4.584   2.088   8.976  0.2314 -0.9060  0.2479
  106OSM   H18S10840   4.662   2.089   8.898  2.5426 -2.0511  2.3942
  106OSM   H18T10841   4.631   2.145   9.060  0.1330  1.1623 -1.0454
  106OSM   H18U10842   4.498   2.145   8.934 -0.2119 -2.2301 -0.6858
  106OSM    C1F10843   4.344   2.280  10.232  0.7401  0.2026 -0.3259
  106OSM     OF10844   4.454   2.327  10.259  0.2484 -0.5604 -0.1823
  106OSM    C2F10845   4.282   2.304  10.099  0.1660  0.2769 -0.0686
  106OSM    H2F10846   4.197   2.375  10.101  0.2624  0.4334 -1.1137
  106OSM    H2G10847   4.244   2.205  10.066 -1.5778  0.8690  0.0609
  106OSM    C3F10848   4.396   2.362  10.006 -0.3463 -0.0906 -0.2490
  106OSM    H3F10849   4.484   2.295   9.994 -1.2776 -1.0373 -2.1661
  106OSM    H3G10850   4.436   2.463  10.033  2.3813 -1.4178  1.0479
  106OSM    C4F10851   4.345   2.368   9.857 -0.7277 -0.1403  0.4720
  106OSM    H4F10852   4.276   2.452   9.834 -4.2079 -2.8445  0.2331
  106OSM    H4G10853   4.301   2.266   9.851 -0.5401 -0.2746  1.2849
  106OSM    C5F10854   4.456   2.371   9.757  0.3629 -0.0575  0.8598
  106OSM    H5F10855   4.509   2.274   9.765  0.2076 -0.4069 -1.5695
  106OSM    H5G10856   4.533   2.451   9.764 -1.5596  2.1130 -1.0302
  106OSM    C6F10857   4.402   2.378   9.607 -0.3343  0.4722 -0.1075
  106OSM    H6F10858   4.348   2.475   9.597 -0.9418  0.2171  0.6071
  106OSM    H6G10859   4.333   2.291   9.600  2.2444 -1.9209  2.0498
  106OSM    C7F10860   4.506   2.360   9.502 -0.7042  0.7698 -0.1929
  106OSM    H7F10861   4.546   2.261   9.535 -0.0318  0.5947 -1.4681
  106OSM    H7G10862   4.592   2.426   9.523 -0.0476  0.2063 -1.0392
  106OSM    C8F10863   4.473   2.342   9.357 -0.1709 -0.3626 -0.4100
  106OSM    H8F10864   4.382   2.279   9.347  0.2515 -1.0466 -0.0676
  106OSM    H8G10865   4.566   2.295   9.318  0.3718 -0.1802  0.6367
  106OSM    C9F10866   4.438   2.473   9.296 -0.0112 -0.7708 -0.3486
  106OSM    H9F10867   4.360   2.526   9.352  2.1200  2.2042  0.0526
  106OSM   C10F10868   4.480   2.531   9.181 -0.3830  0.3483  0.0496
  106OSM   H10F10869   4.436   2.628   9.154 -0.1596  0.0956 -1.2898
  106OSM   C11F10870   4.583   2.482   9.078  0.2790 -0.4528 -0.8213
  106OSM   H11F10871   4.622   2.381   9.103 -0.5987 -0.7338 -0.5388
  106OSM   H11G10872   4.669   2.552   9.085 -0.6452  0.6451  0.1205
  106OSM   C12F10873   4.519   2.475   8.941 -0.5385 -0.2500 -0.5322
  106OSM   H12F10874   4.465   2.570   8.918  0.0312 -0.3483 -2.4245
  106OSM   H12G10875   4.446   2.393   8.957 -3.0482  1.7677 -0.8179
  106OSM   C13F10876   4.606   2.427   8.822 -0.4222 -0.2385 -0.1510
  106OSM   H13F10877   4.548   2.400   8.732  0.9907  0.6881 -1.3738
  106OSM   H13G10878   4.662   2.335   8.849  2.9329  0.3243 -4.1473
  106OSM   C14F10879   4.711   2.536   8.784  0.2694  1.3276 -0.1681
  106OSM   H14F10880   4.764   2.553   8.880 -1.0671 -4.7855  2.1001
  106OSM   H14G10881   4.652   2.623   8.748  0.8486  1.3663 -1.0676
  106OSM   C15F10882   4.821   2.498   8.687  0.1931  0.4705  0.1475
  106OSM   H15F10883   4.790   2.516   8.581  0.9088  3.9371  0.4014
  106OSM   H15G10884   4.836   2.390   8.706  2.0486  0.4431 -1.1802
  106OSM   C16F10885   4.962   2.566   8.712 -0.4456  0.0484 -0.3703
  106OSM   H16F10886   5.034   2.526   8.638  0.8293  2.9013 -0.8173
  106OSM   H16G10887   5.002   2.547   8.814  0.9846 -2.4892 -1.3290
  106OSM   C17F10888   4.950   2.719   8.697  0.1185  1.0918  0.2072
  106OSM   H17F10889   5.057   2.749   8.693  0.2924  0.3766 -1.4688
  106OSM   H17G10890   4.891   2.761   8.781  1.0189  2.9521 -0.0480
  106OSM   C18F10891   4.892   2.755   8.563 -0.3110 -0.2195 -0.2175
  106OSM   H18F10892   4.904   2.864   8.546  2.7947 -0.4043  0.3843
  106OSM   H18G10893   4.783   2.733   8.553 -0.8029  1.4759  0.9125
  106OSM   H18H10894   4.955   2.703   8.488 -1.3470 -1.2847 -0.3880
  107OSM      N10895   1.024   1.362  11.071  0.9259  0.2385 -0.2723
  107OSM    C1510896   1.129   1.454  11.113  0.0543  0.1602  0.0119
  107OSM   H15A10897   1.207   1.406  11.169 -0.9101  0.3530  1.5986
  107OSM   H15B10898   1.083   1.527  11.178  0.6098 -0.9441  1.7154
  107OSM   H15C10899   1.174   1.501  11.027 -0.6872  2.0202  0.5906
  107OSM    C1410900   0.986   1.273  11.184 -0.3026 -0.1605 -0.8646
  107OSM   H14A10901   1.083   1.230  11.205  2.0491  3.4274 -3.1271
  107OSM   H14B10902   0.928   1.188  11.153  0.4959 -1.3993  0.8233
  107OSM   H14C10903   0.949   1.318  11.275  0.1155 -0.8631 -0.3396
  107OSM    C1310904   0.903   1.452  11.046  0.4631 -0.3427  0.0565
  107OSM   H13A10905   0.920   1.533  10.977 -0.5787 -1.4539 -1.5959
  107OSM   H13B10906   0.863   1.496  11.136  0.1312  0.8990 -0.6851
  107OSM   H13C10907   0.819   1.399  11.003  0.5994 -0.3632 -0.1839
  107OSM    C1210908   1.062   1.291  10.939 -0.0230 -0.1597 -0.0415
  107OSM   H12A10909   0.972   1.245  10.902  0.3220 -1.2871  0.4618
  107OSM   H12B10910   1.132   1.209  10.954  0.3788  0.3505  0.9651
  107OSM    C1110911   1.118   1.366  10.815  0.7776  0.8046  0.7860
  107OSM   H11A10912   1.045   1.449  10.803  1.8375  1.8187  1.1510
  107OSM   H11B10913   1.128   1.297  10.729  1.7545  1.8719  0.0135
  107OSM      P10914   1.384   1.366  10.804 -0.0034 -0.0840  0.2874
  107OSM    O1310915   1.475   1.479  10.817  0.4562 -0.2440 -0.1359
  107OSM    O1410916   1.417   1.251  10.885 -0.5547 -0.2375  0.8013
  107OSM    O1110917   1.385   1.324  10.653 -0.0606 -0.2225 -0.0676
  107OSM    O1210918   1.244   1.425  10.846 -0.1990  0.0233  0.5303
  107OSM    C1S10919   1.354   1.419  10.544  0.3557  0.2459  0.1333
  107OSM    H1S10920   1.311   1.511  10.588  0.0985 -0.1157  0.6584
  107OSM    H1T10921   1.282   1.371  10.475 -1.8294 -0.3302  2.6353
  107OSM     NF10922   1.436   1.568  10.369 -0.0162  0.2131  0.5988
  107OSM    HNF10923   1.431   1.533  10.276 -1.0174 -1.5652  1.2797
  107OSM    C2S10924   1.486   1.468  10.465 -0.1773  0.9354 -0.3594
  107OSM    H2S10925   1.550   1.518  10.541 -2.7490  2.2866  1.0713
  107OSM    C3S10926   1.560   1.352  10.402 -0.2054  0.2255 -1.0060
  107OSM    H3S10927   1.499   1.310  10.319  0.8722 -0.3665 -1.5235
  107OSM     O310928   1.592   1.248  10.497  0.3625 -0.1532  0.4498
  107OSM    HO310929   1.528   1.254  10.568 -0.5406  0.1145 -0.3628
  107OSM    C4S10930   1.693   1.387  10.343  0.1314 -0.1435  0.2204
  107OSM    H4S10931   1.783   1.368  10.404  0.4389  0.8396  0.0867
  107OSM    C5S10932   1.706   1.424  10.218  1.1710  0.6733  0.5200
  107OSM    H5S10933   1.620   1.422  10.150  1.9929 -0.8015 -0.5550
  107OSM    C6S10934   1.835   1.461  10.157  1.0456  0.0446 -0.1486
  107OSM    H6S10935   1.903   1.493  10.239 -0.1570  2.2482  0.0652
  107OSM    H6T10936   1.821   1.541  10.082  2.6673  2.6448  2.1217
  107OSM    C7S10937   1.910   1.347  10.090  0.1466  0.0311 -0.4381
  107OSM    H7S10938   1.920   1.275  10.175 -0.2636  2.0473  1.4171
  107OSM    H7T10939   2.017   1.375  10.077  0.0688 -0.3251 -2.0229
  107OSM    C8S10940   1.868   1.284   9.958 -0.2052  0.1374  0.0001
  107OSM    H8S10941   1.765   1.248   9.976  0.0964  0.4181  2.8345
  107OSM    H8T10942   1.931   1.195   9.939 -0.6520 -0.1914  0.0542
  107OSM    C9S10943   1.873   1.382   9.842 -0.1755  0.1959  0.1653
  107OSM    H9S10944   1.801   1.461   9.873 -1.6393 -1.1451  0.3402
  107OSM    H9T10945   1.834   1.328   9.753 -1.3655 -0.8928  1.2935
  107OSM   C10S10946   2.003   1.450   9.811  0.4013  0.1692  0.0844
  107OSM   H10S10947   2.081   1.373   9.793 -0.3319 -0.1251 -2.1269
  107OSM   H10T10948   2.024   1.512   9.900 -0.2681 -0.4077  0.6591
  107OSM   C11S10949   2.012   1.523   9.676 -0.3984  0.1007 -0.3325
  107OSM   H11S10950   2.112   1.571   9.663 -0.5749 -0.0232 -2.5006
  107OSM   H11T10951   1.938   1.605   9.686  1.7621  1.9300  2.9044
  107OSM   C12S10952   1.977   1.439   9.552 -0.4058 -0.0629 -0.1405
  107OSM   H12S10953   1.876   1.394   9.553 -0.9473  1.0554 -1.4698
  107OSM   H12T10954   2.034   1.344   9.551 -0.6126 -0.1825 -0.9833
  107OSM   C13S10955   2.016   1.505   9.421  0.4171 -0.5715 -0.5270
  107OSM   H13S10956   2.119   1.544   9.433 -0.1190  0.5002  0.7728
  107OSM   H13T10957   1.950   1.591   9.397  1.1743  0.5295  1.1818
  107OSM   C14S10958   2.017   1.410   9.300 -0.2101  0.1637 -0.0122
  107OSM   H14S10959   1.916   1.376   9.271 -0.0215 -1.0241  0.6402
  107OSM   H14T10960   2.072   1.314   9.313 -0.3490 -0.2307 -2.0973
  107OSM   C15S10961   2.066   1.478   9.173  0.5856  0.2798  0.4026
  107OSM   H15S10962   2.175   1.498   9.177  1.3908 -2.4327 -3.0363
  107OSM   H15T10963   2.013   1.575   9.162 -0.1371  0.0700  1.7479
  107OSM   C16S10964   2.052   1.404   9.040  0.5348  0.0395 -0.3569
  107OSM   H16S10965   1.945   1.381   9.022  0.4422  1.0514 -1.1972
  107OSM   H16T10966   2.110   1.309   9.044 -0.8160 -0.9282 -2.0251
  107OSM   C17S10967   2.106   1.492   8.931 -0.4081 -0.0281  0.1158
  107OSM   H17S10968   2.211   1.510   8.962 -0.8626  1.1913  1.0184
  107OSM   H17T10969   2.053   1.590   8.936 -1.2235 -0.5244  2.2686
  107OSM   C18S10970   2.102   1.442   8.782 -0.0439  0.2192  0.4539
  107OSM   H18S10971   1.999   1.415   8.751  0.2331  0.2729 -0.5547
  107OSM   H18T10972   2.184   1.367   8.779  0.7099  0.9656  1.4285
  107OSM   H18U10973   2.138   1.530   8.725 -0.1028  1.0770  1.7118
  107OSM    C1F10974   1.394   1.695  10.406 -0.2945  0.1196 -0.0873
  107OSM     OF10975   1.415   1.732  10.518  0.3997  0.0551  0.3710
  107OSM    C2F10976   1.332   1.783  10.303  0.0992 -0.6076 -0.7108
  107OSM    H2F10977   1.341   1.739  10.201  0.7731  0.7436 -1.2679
  107OSM    H2G10978   1.383   1.882  10.295 -1.0801  0.2536  1.5330
  107OSM    C3F10979   1.189   1.819  10.339  0.2070 -0.7056 -0.3184
  107OSM    H3F10980   1.173   1.854  10.443  1.0934  0.1816 -0.4690
  107OSM    H3G10981   1.127   1.727  10.338 -0.7319 -0.0840 -1.4525
  107OSM    C4F10982   1.130   1.923  10.250 -0.5808  0.5335  0.2038
  107OSM    H4F10983   1.188   2.017  10.262  2.1920 -1.0004 -0.4324
  107OSM    H4G10984   1.025   1.940  10.283  0.2298  0.1267  3.2280
  107OSM    C5F10985   1.139   1.898  10.097  0.7246  0.4385  0.1051
  107OSM    H5F10986   1.126   1.791  10.070  2.4223  0.8332 -2.6345
  107OSM    H5G10987   1.243   1.924  10.066  1.5313  0.1524  2.3697
  107OSM    C6F10988   1.041   1.991  10.015 -0.0359  0.1005 -0.2543
  107OSM    H6F10989   1.047   2.097  10.047 -1.6917  0.2258 -0.2794
  107OSM    H6G10990   0.937   1.960  10.042  0.2703  0.9880  2.1584
  107OSM    C7F10991   1.065   1.986   9.868  0.2273  0.1027 -0.1163
  107OSM    H7F10992   1.057   1.884   9.825  0.0593  0.3091 -0.5769
  107OSM    H7G10993   1.172   2.014   9.860 -0.3100  2.0514 -1.0075
  107OSM    C8F10994   0.989   2.088   9.787  0.6244  0.0530  0.4443
  107OSM    H8F10995   1.047   2.130   9.702 -0.3091  0.4183 -0.0183
  107OSM    H8G10996   0.962   2.172   9.855 -0.5230 -0.5018  0.6980
  107OSM    C9F10997   0.850   2.046   9.739  0.2270  0.2891 -0.0556
  107OSM    H9F10998   0.770   2.072   9.809 -0.8179  0.5414 -1.3187
  107OSM   C10F10999   0.818   2.000   9.615 -0.7095  1.6898  0.2668
  107OSM   H10F11000   0.714   1.974   9.590  0.0439  0.7108 -2.1574
  107OSM   C11F11001   0.913   1.977   9.497 -0.3983  0.0947 -0.3012
  107OSM   H11F11002   1.019   1.988   9.528 -0.9384  0.6811  1.5141
  107OSM   H11G11003   0.889   2.054   9.420 -1.2020  1.6404  1.3899
  107OSM   C12F11004   0.891   1.838   9.440 -0.7233 -0.3174  0.7433
  107OSM   H12F11005   0.785   1.812   9.422 -0.5528 -0.6367  0.1525
  107OSM   H12G11006   0.936   1.771   9.516  0.0261 -2.1927 -1.2714
  107OSM   C13F11007   0.965   1.826   9.304  0.3806  0.1202  0.0813
  107OSM   H13F11008   0.946   1.723   9.266 -1.8401  0.7303 -0.6356
  107OSM   H13G11009   1.073   1.845   9.321  0.2409  1.9321 -0.8220
  107OSM   C14F11010   0.901   1.906   9.186  0.5276 -0.6028  0.3635
  107OSM   H14F11011   0.911   2.015   9.206 -0.8606 -0.5215  0.7132
  107OSM   H14G11012   0.793   1.883   9.176  0.5734 -0.6736  0.0248
  107OSM   C15F11013   0.977   1.875   9.052  0.2311  0.9698  0.1375
  107OSM   H15F11014   0.966   1.773   9.009 -0.1282  1.9200 -2.1807
  107OSM   H15G11015   1.081   1.882   9.089  0.2952 -4.8129  2.0915
  107OSM   C16F11016   0.947   1.979   8.941  0.8423 -0.2965  0.6762
  107OSM   H16F11017   1.004   1.950   8.851  0.2043  0.6889 -0.0592
  107OSM   H16G11018   0.969   2.083   8.973  2.3162 -0.4150  0.0894
  107OSM   C17F11019   0.799   1.966   8.906 -0.5554  0.1521  0.2917
  107OSM   H17F11020   0.739   2.014   8.986  1.1829  1.4320  0.8856
  107OSM   H17G11021   0.777   1.858   8.892  0.6668  0.0841 -1.3580
  107OSM   C18F11022   0.756   2.029   8.774 -0.9656 -0.1909 -0.1837
  107OSM   H18F11023   0.772   2.137   8.755 -1.4762 -0.2048 -0.7131
  107OSM   H18G11024   0.647   2.010   8.763 -0.8193 -0.7669 -0.6373
  107OSM   H18H11025   0.822   1.986   8.696 -1.5583  1.2691 -1.5336
  108OSM      N11026   4.034   2.878  10.950  0.3242 -0.0487  0.2518
  108OSM    C1511027   3.897   2.815  10.966 -0.0236  1.0091 -0.4337
  108OSM   H15A11028   3.865   2.796  11.068  2.0981 -1.4780 -0.1162
  108OSM   H15B11029   3.909   2.717  10.922  0.6010  0.0802  1.6689
  108OSM   H15C11030   3.816   2.866  10.916 -1.7513 -1.0844  0.0601
  108OSM    C1411031   4.046   3.012  11.020  0.8184 -0.4967 -0.1321
  108OSM   H14A11032   4.043   2.994  11.127 -1.1341  1.0298  0.1299
  108OSM   H14B11033   3.965   3.076  10.989  0.0430 -0.8844  1.0252
  108OSM   H14C11034   4.141   3.057  10.996  0.9022 -1.1625 -1.0919
  108OSM    C1311035   4.130   2.786  11.019 -0.9986 -0.4171  0.3035
  108OSM   H13A11036   4.126   2.685  10.981 -2.0805 -0.3328  0.1744
  108OSM   H13B11037   4.105   2.778  11.124 -0.8466  2.7723  0.6642
  108OSM   H13C11038   4.231   2.825  11.012 -0.7808 -1.1070 -0.5981
  108OSM    C1211039   4.059   2.900  10.800 -0.2901  0.1909  0.1436
  108OSM   H12A11040   4.061   2.806  10.747  1.3623  0.8253 -1.0077
  108OSM   H12B11041   4.160   2.939  10.794 -0.9321  2.1828  1.4067
  108OSM    C1111042   3.966   2.992  10.723  0.2054 -0.2256 -0.2974
  108OSM   H11A11043   3.864   2.949  10.723 -0.7876  1.9482 -1.9427
  108OSM   H11B11044   4.000   2.985  10.617  2.5752  0.9021  0.3218
  108OSM      P11045   4.039   3.244  10.748 -0.2064  0.0078 -0.5896
  108OSM    O1311046   3.973   3.371  10.794 -0.9044  0.3707 -0.7456
  108OSM    O1411047   4.181   3.218  10.788 -0.3002 -0.0936  0.5099
  108OSM    O1111048   4.035   3.258  10.588 -0.4465  0.1081  0.0132
  108OSM    O1211049   3.944   3.123  10.776  0.2358  0.3632 -0.0245
  108OSM    C1S11050   3.907   3.253  10.525 -0.3966 -1.0417  0.4846
  108OSM    H1S11051   3.828   3.299  10.588 -0.0780  1.0981 -0.5672
  108OSM    H1T11052   3.872   3.149  10.511 -0.4592 -0.9433 -0.0870
  108OSM     NF11053   3.777   3.275  10.322 -0.3363  0.2269 -0.5676
  108OSM    HNF11054   3.789   3.200  10.258 -1.5859 -0.7688  0.2999
  108OSM    C2S11055   3.911   3.315  10.386 -0.1261  0.4287  0.7649
  108OSM    H2S11056   3.902   3.425  10.401  0.9858  0.4851  1.0879
  108OSM    C3S11057   4.039   3.269  10.292  0.4800 -0.3693  0.1760
  108OSM    H3S11058   4.017   3.168  10.250  0.8608  0.5891 -2.4844
  108OSM     O311059   4.164   3.262  10.357 -0.1795  0.2480 -0.3913
  108OSM    HO311060   4.129   3.273  10.446  0.6833 -0.5342  0.0633
  108OSM    C4S11061   4.042   3.346  10.168  0.7433 -0.4830 -0.0553
  108OSM    H4S11062   3.969   3.318  10.091  0.3306 -1.0228  0.5156
  108OSM    C5S11063   4.125   3.453  10.148  0.2704  0.2900 -0.2325
  108OSM    H5S11064   4.193   3.485  10.228 -0.6674  4.0008 -0.7176
  108OSM    C6S11065   4.115   3.537  10.021 -0.2920  0.2154 -0.1682
  108OSM    H6S11066   4.070   3.627  10.067 -0.4226 -0.6308  1.4636
  108OSM    H6T11067   4.025   3.510   9.963 -0.4613  0.7563 -0.1603
  108OSM    C7S11068   4.239   3.577   9.933  0.4185 -0.0202  0.2913
  108OSM    H7S11069   4.298   3.491   9.896 -0.4073  0.2686 -1.7927
  108OSM    H7T11070   4.309   3.633  10.000  0.8532  0.2589 -0.3806
  108OSM    C8S11071   4.196   3.670   9.812 -0.6381 -0.3296  0.2994
  108OSM    H8S11072   4.291   3.692   9.758 -0.5813 -2.4158 -0.5486
  108OSM    H8T11073   4.157   3.768   9.846  0.8728  0.7299 -0.8361
  108OSM    C9S11074   4.120   3.593   9.705 -0.0055  0.5534 -0.3264
  108OSM    H9S11075   4.019   3.566   9.742 -1.3998  0.7823 -3.6168
  108OSM    H9T11076   4.184   3.508   9.672  1.2165  1.0203  0.7425
  108OSM   C10S11077   4.103   3.677   9.570 -0.5732 -0.5589  0.1509
  108OSM   H10S11078   4.204   3.702   9.530 -1.5861  1.2771 -1.4602
  108OSM   H10T11079   4.046   3.771   9.583 -0.7915 -0.6292 -0.2572
  108OSM   C11S11080   4.033   3.605   9.449  0.4136  0.0220 -0.4163
  108OSM   H11S11081   3.924   3.605   9.469  0.2789  2.2842 -0.8630
  108OSM   H11T11082   4.078   3.504   9.438  3.8899  1.4803 -0.9145
  108OSM   C12S11083   4.044   3.666   9.311  0.4220 -0.3210 -0.3436
  108OSM   H12S11084   4.154   3.659   9.293  0.7116  0.3474  1.0459
  108OSM   H12T11085   4.010   3.772   9.316 -0.8840 -0.7930  2.3551
  108OSM   C13S11086   3.970   3.577   9.213 -0.3808 -0.2123  0.6866
  108OSM   H13S11087   3.860   3.582   9.230 -0.6258 -0.7612 -0.5822
  108OSM   H13T11088   4.013   3.475   9.214 -0.0703 -0.1023  3.2902
  108OSM   C14S11089   3.985   3.627   9.065  0.2534 -0.1701  0.2802
  108OSM   H14S11090   4.094   3.631   9.042  0.7415 -0.8963  2.3340
  108OSM   H14T11091   3.942   3.730   9.060 -1.8393 -0.9432  1.2174
  108OSM   C15S11092   3.917   3.539   8.958  0.2644 -0.7400  0.3749
  108OSM   H15S11093   3.811   3.511   8.976 -0.1968  0.8179  0.3080
  108OSM   H15T11094   3.985   3.452   8.952  1.8129  0.3675  1.1948
  108OSM   C16S11095   3.907   3.605   8.816  0.3911 -0.5083  0.2362
  108OSM   H16S11096   3.882   3.521   8.748 -0.4811  1.4451 -2.0103
  108OSM   H16T11097   4.008   3.645   8.794  1.3864 -1.7252  2.3334
  108OSM   C17S11098   3.805   3.718   8.790 -0.3107 -0.1067 -0.7309
  108OSM   H17S11099   3.840   3.775   8.701  0.3320  1.7619  0.6470
  108OSM   H17T11100   3.811   3.788   8.875 -0.3965 -1.1650  0.1674
  108OSM   C18S11101   3.662   3.679   8.766 -0.4483 -0.5261 -0.2150
  108OSM   H18S11102   3.640   3.597   8.694  1.0718 -1.9561  0.8936
  108OSM   H18T11103   3.593   3.764   8.748  0.3219  0.1142 -0.1685
  108OSM   H18U11104   3.625   3.635   8.861  0.4664  0.8020  0.7958
  108OSM    C1F11105   3.657   3.310  10.369 -0.8157 -0.3036 -0.7002
  108OSM     OF11106   3.642   3.400  10.454 -0.0797 -0.5579 -0.0468
  108OSM    C2F11107   3.548   3.233  10.311 -0.0683 -0.4756  0.6076
  108OSM    H2F11108   3.512   3.143  10.364  1.2209 -0.4476  1.5730
  108OSM    H2G11109   3.581   3.197  10.211  0.1352  2.0154 -0.2910
  108OSM    C3F11110   3.428   3.336  10.281 -0.0703  0.0961 -0.4711
  108OSM    H3F11111   3.466   3.418  10.217 -0.6107  0.6154 -0.1333
  108OSM    H3G11112   3.386   3.380  10.374  0.0079  0.5363 -0.6417
  108OSM    C4F11113   3.322   3.260  10.206  0.3601 -0.4609  0.5335
  108OSM    H4F11114   3.232   3.325  10.199  0.7463 -0.0738 -1.6277
  108OSM    H4G11115   3.294   3.163  10.252  0.9402 -1.0138 -0.2559
  108OSM    C5F11116   3.361   3.230  10.057 -0.2886  0.1729 -0.2344
  108OSM    H5F11117   3.420   3.137  10.047  2.4692  1.6836  0.8577
  108OSM    H5G11118   3.417   3.311  10.006  0.1306  0.0272 -0.0083
  108OSM    C6F11119   3.237   3.225   9.969 -0.2651 -0.2449 -0.4592
  108OSM    H6F11120   3.192   3.327   9.966  1.6002  0.5892 -1.1878
  108OSM    H6G11121   3.175   3.139  10.003 -1.4412  0.9156  0.4458
  108OSM    C7F11122   3.277   3.190   9.820  0.3527  0.0016 -0.0781
  108OSM    H7F11123   3.340   3.099   9.823  2.3461  1.2489 -1.2724
  108OSM    H7G11124   3.345   3.266   9.775 -0.6181  1.0937  0.2446
  108OSM    C8F11125   3.159   3.167   9.724  0.3638  0.6630 -0.6279
  108OSM    H8F11126   3.093   3.095   9.778 -2.1792  2.4856 -1.1161
  108OSM    H8G11127   3.191   3.131   9.624 -2.4995 -0.2580 -1.3135
  108OSM    C9F11128   3.082   3.294   9.711 -0.3953  0.4402  0.1770
  108OSM    H9F11129   3.013   3.314   9.795 -0.5892  2.7720 -0.4601
  108OSM   C10F11130   3.081   3.391   9.619 -0.0105  0.0176 -0.9624
  108OSM   H10F11131   3.002   3.466   9.618  0.9906  1.1506  0.7978
  108OSM   C11F11132   3.163   3.405   9.494 -0.2787  0.6072  0.2641
  108OSM   H11F11133   3.266   3.430   9.529  0.8276 -0.2686 -2.1622
  108OSM   H11G11134   3.129   3.494   9.439 -3.0088 -1.8311 -2.3666
  108OSM   C12F11135   3.156   3.286   9.399 -0.2181 -0.0721  0.8804
  108OSM   H12F11136   3.054   3.242   9.399 -0.2163 -0.0959 -0.0951
  108OSM   H12G11137   3.231   3.214   9.438 -0.0446 -0.0586  0.5770
  108OSM   C13F11138   3.199   3.331   9.255  0.3869 -0.7854 -0.5153
  108OSM   H13F11139   3.287   3.396   9.272  1.0097 -1.5176 -0.8858
  108OSM   H13G11140   3.124   3.393   9.203  2.5781  2.3237 -0.2040
  108OSM   C14F11141   3.225   3.216   9.154 -0.7285  0.3603 -0.2833
  108OSM   H14F11142   3.314   3.154   9.178 -0.4507  0.9938  0.3910
  108OSM   H14G11143   3.255   3.261   9.058  0.6328 -2.0264 -1.0620
  108OSM   C15F11144   3.115   3.112   9.128 -0.3294  0.4481 -0.0870
  108OSM   H15F11145   3.084   3.068   9.225  0.2332  0.2460  0.0049
  108OSM   H15G11146   3.156   3.036   9.058 -2.0515  1.3794 -2.2212
  108OSM   C16F11147   2.988   3.173   9.068  0.4949  0.5277 -0.4000
  108OSM   H16F11148   3.009   3.226   8.973  0.1882 -0.3593 -0.9673
  108OSM   H16G11149   2.937   3.244   9.138  0.6620  2.2279 -1.9236
  108OSM   C17F11150   2.879   3.062   9.027  0.5408  0.0649  0.2673
  108OSM   H17F11151   2.935   2.990   8.963  0.2205 -0.4206  0.5308
  108OSM   H17G11152   2.804   3.119   8.968 -0.3639  0.0583  1.3826
  108OSM   C18F11153   2.817   2.989   9.150  0.1190  0.2819  0.3091
  108OSM   H18F11154   2.753   3.057   9.210  0.4168  1.4844 -0.6926
  108OSM   H18G11155   2.893   2.934   9.209  0.4507 -0.8371 -1.1035
  108OSM   H18H11156   2.755   2.909   9.104 -0.5213  1.1727 -0.4119
  109OSM      N11157   4.921   0.690  11.203 -0.3011  0.0032  0.2763
  109OSM    C1511158   5.025   0.586  11.175  1.1015 -0.7561  0.1377
  109OSM   H15A11159   5.041   0.515  11.255 -0.6125 -1.1712  0.1616
  109OSM   H15B11160   5.113   0.629  11.129  0.4193  1.2034  0.5655
  109OSM   H15C11161   4.989   0.533  11.088 -0.3620 -0.7845  0.7375
  109OSM    C1411162   4.787   0.630  11.235  0.6271  0.1383 -0.0735
  109OSM   H14A11163   4.765   0.543  11.174  1.8247  0.3061 -0.7759
  109OSM   H14B11164   4.719   0.713  11.229  0.8584  0.2555 -1.3564
  109OSM   H14C11165   4.784   0.611  11.341  0.2689 -1.2336 -0.3028
  109OSM    C1311166   4.975   0.784  11.311  0.9713 -0.7955  0.2026
  109OSM   H13A11167   4.898   0.839  11.364  0.3218 -1.9436  0.4790
  109OSM   H13B11168   5.047   0.858  11.282  0.1097  1.1150  2.5668
  109OSM   H13C11169   5.008   0.723  11.394 -0.5716  0.3053  1.7110
  109OSM    C1211170   4.898   0.771  11.074 -0.5025  0.4919  0.2560
  109OSM   H12A11171   4.836   0.712  11.008  0.5390  0.8517 -1.0865
  109OSM   H12B11172   4.992   0.775  11.021  0.0447  0.0161  1.1719
  109OSM    C1111173   4.833   0.910  11.081 -0.3385  0.1385 -0.1799
  109OSM   H11A11174   4.826   0.952  10.978  1.3186 -1.5739 -1.0503
  109OSM   H11B11175   4.905   0.972  11.138  0.9704 -0.4131 -1.1895
  109OSM      P11176   4.576   0.946  11.075 -0.2288  0.4347  0.1379
  109OSM    O1311177   4.474   0.933  11.175  0.4195  0.6589  0.2703
  109OSM    O1411178   4.585   1.070  11.002  0.1224 -0.5540 -0.2767
  109OSM    O1111179   4.568   0.818  10.978 -0.2941  0.0066 -0.1961
  109OSM    O1211180   4.711   0.918  11.148  0.4984  0.1027  0.5953
  109OSM    C1S11181   4.457   0.786  10.897 -0.0898 -0.2057  0.6892
  109OSM    H1S11182   4.372   0.854  10.918  1.0281  1.2386  0.7261
  109OSM    H1T11183   4.426   0.680  10.899 -0.8037 -0.2008 -2.8741
  109OSM     NF11184   4.392   0.791  10.652  0.3281 -0.6267 -0.4172
  109OSM    HNF11185   4.403   0.704  10.605  1.8104 -0.7138  0.0266
  109OSM    C2S11186   4.507   0.795  10.745  0.4211 -0.1252  0.2155
  109OSM    H2S11187   4.561   0.893  10.740 -1.2483  0.8034 -0.2915
  109OSM    C3S11188   4.615   0.688  10.704  0.3355  0.5368 -0.4519
  109OSM    H3S11189   4.573   0.588  10.681  1.4062  0.0476 -0.3754
  109OSM     O311190   4.707   0.645  10.806 -0.3115 -0.1280 -0.5721
  109OSM    HO311191   4.663   0.685  10.881 -0.9801 -2.8703  0.6184
  109OSM    C4S11192   4.681   0.735  10.572 -0.4518 -0.1050  0.1821
  109OSM    H4S11193   4.621   0.726  10.480  1.1139 -0.2122 -0.8686
  109OSM    C5S11194   4.805   0.791  10.566  0.2400  0.1671 -0.6008
  109OSM    H5S11195   4.866   0.805  10.657 -0.9177 -1.5802  0.4917
  109OSM    C6S11196   4.868   0.849  10.446  0.3516 -0.6324  0.0170
  109OSM    H6S11197   4.978   0.837  10.453  0.3894  0.4260  2.6992
  109OSM    H6T11198   4.850   0.959  10.441 -3.1416 -1.0351  1.0735
  109OSM    C7S11199   4.823   0.779  10.310 -0.1433 -0.0252  0.0304
  109OSM    H7S11200   4.714   0.794  10.296 -0.7767 -2.6227  1.5046
  109OSM    H7T11201   4.828   0.668  10.322  0.2040  0.2170  2.7319
  109OSM    C8S11202   4.890   0.830  10.186 -1.0603  0.5703 -0.2253
  109OSM    H8S11203   5.000   0.837  10.192 -0.9050 -1.6070  0.1437
  109OSM    H8T11204   4.846   0.929  10.162  0.8785  1.1372 -1.6064
  109OSM    C9S11205   4.863   0.754  10.066 -0.0021 -0.2534  0.0264
  109OSM    H9S11206   4.854   0.828   9.983 -1.4167  0.1561  0.5194
  109OSM    H9T11207   4.759   0.715  10.074 -0.1298 -0.0179 -0.4624
  109OSM   C10S11208   4.969   0.645  10.039  0.1210  0.9163  0.3077
  109OSM   H10S11209   4.969   0.586  10.132 -0.7511 -0.4928 -0.5459
  109OSM   H10T11210   5.066   0.697  10.025  0.6077  0.6459  2.3953
  109OSM   C11S11211   4.953   0.567   9.907 -0.1125  0.2237 -0.3450
  109OSM   H11S11212   4.860   0.506   9.911  0.8612 -1.3620 -1.0390
  109OSM   H11T11213   5.041   0.499   9.908  0.3441  0.7266 -2.2648
  109OSM   C12S11214   4.953   0.644   9.777  0.9144  0.0962  0.0554
  109OSM   H12S11215   5.028   0.725   9.772  0.9981 -0.0505 -1.6244
  109OSM   H12T11216   4.853   0.688   9.755  1.1571 -0.5953 -2.9206
  109OSM   C13S11217   4.983   0.569   9.642 -0.2706 -0.0856 -0.4511
  109OSM   H13S11218   4.900   0.498   9.625 -2.8138  2.3696  0.7200
  109OSM   H13T11219   5.079   0.516   9.657  1.4704  1.9707 -3.3173
  109OSM   C14S11220   4.988   0.660   9.516 -0.0284  0.3633  0.9634
  109OSM   H14S11221   5.076   0.729   9.521 -0.5499  1.0690  0.5795
  109OSM   H14T11222   4.895   0.718   9.502  0.0679  0.5989  1.3148
  109OSM   C15S11223   5.000   0.577   9.380  0.1682 -0.7461  0.4666
  109OSM   H15S11224   4.908   0.516   9.365 -1.2810  1.3354  0.3239
  109OSM   H15T11225   5.088   0.511   9.375 -0.6677 -1.8437 -0.3612
  109OSM   C16S11226   4.997   0.664   9.257  0.3356  0.2593  0.2740
  109OSM   H16S11227   5.087   0.728   9.250  0.6976 -0.4352 -2.8809
  109OSM   H16T11228   4.908   0.730   9.250  0.4761  0.2659 -2.6128
  109OSM   C17S11229   4.998   0.577   9.133  0.2284 -0.8643  1.1695
  109OSM   H17S11230   4.928   0.492   9.149  0.4921 -1.1177  0.9987
  109OSM   H17T11231   5.104   0.542   9.137  0.5299 -0.6402 -2.2389
  109OSM   C18S11232   4.979   0.651   9.005 -0.3322 -0.4431 -0.4203
  109OSM   H18S11233   4.974   0.576   8.922  5.0701 -3.1214  1.1855
  109OSM   H18T11234   5.073   0.700   8.973 -0.6558  0.3143 -0.2304
  109OSM   H18U11235   4.903   0.731   9.016  0.4558  0.2851 -0.2150
  109OSM    C1F11236   4.296   0.878  10.628  0.9567 -0.5356  0.0523
  109OSM     OF11237   4.301   0.985  10.688  0.1988  0.3359 -0.5667
  109OSM    C2F11238   4.209   0.846  10.512 -0.4125  0.2502  0.4295
  109OSM    H2F11239   4.181   0.739  10.501 -2.9618  0.9080 -0.2207
  109OSM    H2G11240   4.271   0.878  10.425  1.2248 -0.1783  1.3999
  109OSM    C3F11241   4.079   0.930  10.520 -0.4227  0.2500  0.6111
  109OSM    H3F11242   4.119   1.033  10.504  1.3829 -0.1597  2.1010
  109OSM    H3G11243   4.046   0.921  10.626 -1.4215 -1.3776  0.1961
  109OSM    C4F11244   3.959   0.877  10.437 -0.1504 -0.0596 -0.3685
  109OSM    H4F11245   3.864   0.903  10.488  0.6567 -2.3144  2.5431
  109OSM    H4G11246   3.962   0.766  10.430  2.4316 -0.1310  0.6211
  109OSM    C5F11247   3.958   0.947  10.299  0.3648 -0.5953 -0.8058
  109OSM    H5F11248   3.958   1.057  10.316 -0.1143 -1.1174  4.1006
  109OSM    H5G11249   3.854   0.932  10.262 -0.7836  0.0366  1.8771
  109OSM    C6F11250   4.058   0.904  10.193  0.8051 -0.4150  0.6934
  109OSM    H6F11251   4.061   0.794  10.207  1.0888 -0.2375  2.1234
  109OSM    H6G11252   4.162   0.936  10.213  0.7158  0.0217  0.4815
  109OSM    C7F11253   4.018   0.952  10.051  0.2791  0.3248  0.3667
  109OSM    H7F11254   4.014   1.063  10.049 -1.0380  0.3159 -2.4005
  109OSM    H7G11255   3.914   0.925  10.022  0.3069  1.3047 -0.7364
  109OSM    C8F11256   4.114   0.913   9.942  0.5487 -0.2458  0.0949
  109OSM    H8F11257   4.210   0.947   9.987 -0.0817  0.7667  0.7169
  109OSM    H8G11258   4.102   0.972   9.849  0.2671  0.3352  0.4884
  109OSM    C9F11259   4.135   0.765   9.912 -0.2044  0.3127  0.8547
  109OSM    H9F11260   4.147   0.699  10.000  0.4121 -1.5163 -0.5339
  109OSM   C10F11261   4.147   0.702   9.794 -0.4286 -0.2620  0.4122
  109OSM   H10F11262   4.174   0.595   9.793  1.4438  0.1696 -0.4186
  109OSM   C11F11263   4.141   0.774   9.661  0.5170  0.1485 -0.3367
  109OSM   H11F11264   4.186   0.707   9.585  0.4277  1.5703 -1.7168
  109OSM   H11G11265   4.211   0.860   9.654  2.0319 -1.1852 -3.2246
  109OSM   C12F11266   3.994   0.806   9.618 -0.1187  0.0984  0.0450
  109OSM   H12F11267   3.944   0.864   9.698 -0.7828 -0.7860  0.2860
  109OSM   H12G11268   3.927   0.718   9.600 -0.4923  0.3831  0.0341
  109OSM   C13F11269   3.992   0.898   9.499  0.8358  0.0426 -0.5540
  109OSM   H13F11270   4.027   1.001   9.521 -0.2944  1.1089 -3.3369
  109OSM   H13G11271   3.884   0.915   9.476  0.8956  0.8591 -0.2467
  109OSM   C14F11272   4.058   0.845   9.374  0.0289 -0.4557 -0.5561
  109OSM   H14F11273   4.016   0.742   9.374  1.2845 -1.0826  2.6820
  109OSM   H14G11274   4.169   0.847   9.383 -0.1321  1.7661  1.8976
  109OSM   C15F11275   4.015   0.902   9.238  0.2695  0.2938 -0.1381
  109OSM   H15F11276   4.017   1.013   9.227  0.3453  0.1809 -1.3434
  109OSM   H15G11277   3.909   0.888   9.209  0.2362  2.1996 -1.1362
  109OSM   C16F11278   4.103   0.846   9.122 -0.2053  0.5633  0.2702
  109OSM   H16F11279   4.041   0.833   9.030  0.8094 -1.7491 -0.1539
  109OSM   H16G11280   4.146   0.747   9.149 -0.0562  0.3949 -0.5479
  109OSM   C17F11281   4.201   0.945   9.064 -0.5260 -0.3831  0.2825
  109OSM   H17F11282   4.296   0.961   9.119  1.6739 -0.1506 -3.2631
  109OSM   H17G11283   4.150   1.043   9.051  1.2429  0.4090 -1.2411
  109OSM   C18F11284   4.237   0.922   8.919  0.4992 -0.1475 -0.9785
  109OSM   H18F11285   4.148   0.907   8.854  1.7528  1.6087 -3.2597
  109OSM   H18G11286   4.298   0.832   8.899  0.0997 -0.5027 -0.6042
  109OSM   H18H11287   4.284   1.010   8.870  2.0692 -0.9202 -0.9098
  110OSM      N11288   5.870   5.674  10.993  0.3185 -0.2809  0.3065
  110OSM    C1511289   5.762   5.694  11.096  0.3780 -0.5269 -0.0195
  110OSM   H15A11290   5.677   5.746  11.055  0.0853  0.5429  1.8109
  110OSM   H15B11291   5.799   5.736  11.189  0.0718  0.4494 -0.3280
  110OSM   H15C11292   5.723   5.595  11.114 -1.3472  0.0024 -0.6792
  110OSM    C1411293   5.984   5.591  11.050 -0.8460 -0.2296 -0.0749
  110OSM   H14A11294   5.951   5.499  11.095  1.7655 -1.3708 -0.3266
  110OSM   H14B11295   6.052   5.636  11.121 -0.6716 -0.6861  0.0493
  110OSM   H14C11296   6.040   5.546  10.970 -3.1343 -0.2849 -1.7492
  110OSM    C1311297   5.803   5.598  10.879 -0.2609 -0.1047 -0.4597
  110OSM   H13A11298   5.752   5.509  10.913  0.8742 -1.3705 -1.9364
  110OSM   H13B11299   5.875   5.553  10.813 -0.9422  0.4188 -1.6079
  110OSM   H13C11300   5.728   5.657  10.827 -1.4398 -0.3509  0.8889
  110OSM    C1211301   5.926   5.803  10.940  0.3037 -0.0481  0.1173
  110OSM   H12A11302   5.979   5.849  11.022 -1.2708  1.0713  0.5515
  110OSM   H12B11303   5.854   5.880  10.915 -0.3424 -0.7167 -0.1166
  110OSM    C1111304   6.023   5.797  10.827  0.0256  0.0764  0.4986
  110OSM   H11A11305   5.985   5.780  10.724 -2.1097  1.4550  0.9892
  110OSM   H11B11306   6.090   5.711  10.847  0.3786  0.1771 -0.2211
  110OSM      P11307   6.100   6.056  10.781 -0.4029  0.2436 -0.0167
  110OSM    O1311308   5.968   6.073  10.719  0.2563  0.3782 -0.4059
  110OSM    O1411309   6.138   6.154  10.885  0.3519 -0.7621  0.0352
  110OSM    O1111310   6.199   6.073  10.658  0.2798  0.6308 -0.0225
  110OSM    O1211311   6.112   5.906  10.834  0.3943 -0.4700  0.2603
  110OSM    C1S11312   6.229   5.975  10.567  0.2900  0.3738 -0.2296
  110OSM    H1S11313   6.154   5.896  10.548 -1.6088  2.2228 -0.7356
  110OSM    H1T11314   6.325   5.925  10.594 -0.4287 -1.4464 -0.8742
  110OSM     NF11315   6.234   5.955  10.312  0.4546  0.3808 -0.6178
  110OSM    HNF11316   6.325   5.947  10.272  0.3083  2.0792 -1.3794
  110OSM    C2S11317   6.231   6.045  10.425 -0.1155  0.0251  0.1609
  110OSM    H2S11318   6.148   6.119  10.424  0.2175  0.4332  1.2586
  110OSM    C3S11319   6.353   6.144  10.417 -0.2205 -0.2157 -1.0378
  110OSM    H3S11320   6.447   6.092  10.444  1.8974  3.3133 -0.8767
  110OSM     O311321   6.352   6.260  10.512  0.1561 -0.6459 -0.2517
  110OSM    HO311322   6.348   6.212  10.595 -0.7962 -3.5646 -1.8383
  110OSM    C4S11323   6.369   6.204  10.280  0.3375 -0.3043  0.0929
  110OSM    H4S11324   6.287   6.270  10.248 -0.4153 -1.3139 -0.0826
  110OSM    C5S11325   6.483   6.205  10.207  0.4082  0.5110 -0.1467
  110OSM    H5S11326   6.580   6.184  10.254  0.9104  1.4719 -0.7282
  110OSM    C6S11327   6.493   6.262  10.066  0.5638  0.3981  0.0764
  110OSM    H6S11328   6.575   6.334  10.049 -1.6142  2.4706 -2.5557
  110OSM    H6T11329   6.397   6.312  10.040 -0.5012 -0.8578  1.4089
  110OSM    C7S11330   6.506   6.140   9.973  0.1048  0.1552  0.0847
  110OSM    H7S11331   6.415   6.077   9.982  1.8000 -2.7100 -1.1736
  110OSM    H7T11332   6.579   6.070  10.020  1.7905  1.5681 -0.3345
  110OSM    C8S11333   6.538   6.161   9.824 -0.5273 -0.7058  0.3207
  110OSM    H8S11334   6.611   6.245   9.816 -3.0423  1.4638 -1.4822
  110OSM    H8T11335   6.445   6.197   9.777  0.2396  0.0051 -0.7055
  110OSM    C9S11336   6.579   6.034   9.748 -0.8518 -0.4310  0.2490
  110OSM    H9S11337   6.535   5.943   9.793 -0.3946 -0.1171  1.3803
  110OSM    H9T11338   6.689   6.021   9.750 -0.5718  1.5233 -0.2562
  110OSM   C10S11339   6.524   6.048   9.610 -0.8357  0.1007 -0.1608
  110OSM   H10S11340   6.558   6.139   9.556  0.4125 -0.7649 -0.8847
  110OSM   H10T11341   6.413   6.055   9.605 -0.7325  1.9537 -4.0831
  110OSM   C11S11342   6.567   5.928   9.508 -0.1187  0.2196  0.0388
  110OSM   H11S11343   6.508   5.842   9.546 -0.9834  0.5896 -0.4554
  110OSM   H11T11344   6.674   5.907   9.529 -0.0211  0.8493  0.2048
  110OSM   C12S11345   6.530   5.950   9.362  0.3245 -0.3489 -0.1166
  110OSM   H12S11346   6.527   6.059   9.344 -0.9302  0.1760  2.7152
  110OSM   H12T11347   6.433   5.896   9.353  0.1631  0.1190 -1.4303
  110OSM   C13S11348   6.634   5.891   9.263 -0.3409 -0.1409  0.1163
  110OSM   H13S11349   6.633   5.780   9.267 -2.0880 -0.5312 -4.6876
  110OSM   H13T11350   6.733   5.937   9.281 -0.3159 -0.2105  0.1556
  110OSM   C14S11351   6.604   5.901   9.118  0.0186  0.1709  0.3497
  110OSM   H14S11352   6.498   5.874   9.099  0.1571 -0.6035  0.6475
  110OSM   H14T11353   6.667   5.838   9.052 -0.2096  3.1780 -3.0463
  110OSM   C15S11354   6.626   6.042   9.056 -0.1026 -0.5314 -0.3819
  110OSM   H15S11355   6.719   6.084   9.101 -0.4145 -1.3672  1.1191
  110OSM   H15T11356   6.546   6.113   9.088 -0.4325  1.0785 -4.2331
  110OSM   C16S11357   6.653   6.041   8.900  0.1941 -0.5153  0.2083
  110OSM   H16S11358   6.553   6.030   8.852 -0.1966 -2.0593  1.3112
  110OSM   H16T11359   6.709   5.953   8.862  0.7220  0.3839 -1.1654
  110OSM   C17S11360   6.725   6.166   8.862 -0.8701  0.1860 -0.4161
  110OSM   H17S11361   6.774   6.141   8.766 -1.5915 -2.0060 -0.2697
  110OSM   H17T11362   6.814   6.187   8.926  0.2446  0.1666 -1.8952
  110OSM   C18S11363   6.640   6.289   8.824  0.3476 -0.2415  0.0697
  110OSM   H18S11364   6.703   6.347   8.754  2.5347 -2.3673  0.1500
  110OSM   H18T11365   6.603   6.350   8.909  0.5682 -0.5906  0.4216
  110OSM   H18U11366   6.552   6.258   8.763 -0.7025 -1.0971  1.9341
  110OSM    C1F11367   6.132   5.883  10.286  0.4103  0.3957  0.0013
  110OSM     OF11368   6.023   5.916  10.331 -0.1462  0.5419  0.5388
  110OSM    C2F11369   6.134   5.762  10.205 -0.2485  0.5591  0.8314
  110OSM    H2F11370   6.103   5.782  10.100 -0.1542 -1.8515  0.2968
  110OSM    H2G11371   6.065   5.687  10.248  1.2333 -0.9572  0.6813
  110OSM    C3F11372   6.273   5.708  10.189 -0.0390 -0.2231 -0.0731
  110OSM    H3F11373   6.322   5.679  10.285  0.3566 -2.4688 -0.8974
  110OSM    H3G11374   6.340   5.769  10.123  1.5550 -2.0514 -0.2201
  110OSM    C4F11375   6.271   5.577  10.109 -0.3248  0.4544  0.3343
  110OSM    H4F11376   6.213   5.505  10.171 -0.5690  0.2588 -0.1103
  110OSM    H4G11377   6.378   5.547  10.109  0.0193  1.6091 -0.7230
  110OSM    C5F11378   6.219   5.562   9.959 -0.0828 -0.1199  0.0433
  110OSM    H5F11379   6.109   5.573   9.957 -0.2370 -1.6613 -1.0570
  110OSM    H5G11380   6.240   5.460   9.920 -1.7922 -0.5767  0.2498
  110OSM    C6F11381   6.284   5.664   9.863  0.6233  0.2451  0.2419
  110OSM    H6F11382   6.395   5.669   9.869  0.5757  1.3777  0.3570
  110OSM    H6G11383   6.249   5.761   9.904 -0.1076 -0.1637  0.6086
  110OSM    C7F11384   6.245   5.644   9.715  0.1051  0.4982 -0.6557
  110OSM    H7F11385   6.260   5.539   9.683  0.3466  0.7442 -1.3721
  110OSM    H7G11386   6.312   5.711   9.657  0.8348  0.1139 -0.2704
  110OSM    C8F11387   6.099   5.693   9.680  0.2573  0.1347  0.0514
  110OSM    H8F11388   6.108   5.803   9.686  1.2928  0.0634  0.0475
  110OSM    H8G11389   6.027   5.653   9.755 -1.6228 -0.4750 -1.9855
  110OSM    C9F11390   6.069   5.652   9.542  0.9671  0.6134 -0.5739
  110OSM    H9F11391   6.125   5.717   9.472  2.2735 -1.4163 -1.5108
  110OSM   C10F11392   5.992   5.553   9.501 -0.0315 -0.9293 -0.1612
  110OSM   H10F11393   5.991   5.538   9.392 -1.5607  1.7882 -0.5995
  110OSM   C11F11394   5.921   5.450   9.586 -1.2484  0.4558  0.1657
  110OSM   H11F11395   5.931   5.464   9.696  1.4694  0.7399 -0.0387
  110OSM   H11G11396   5.974   5.353   9.577  4.5495  3.2252 -0.8990
  110OSM   C12F11397   5.776   5.442   9.547  0.4703  0.3641  0.0563
  110OSM   H12F11398   5.762   5.421   9.439 -0.7469 -1.4460  0.5134
  110OSM   H12G11399   5.715   5.532   9.566 -0.5161 -0.5378  1.3573
  110OSM   C13F11400   5.707   5.337   9.628  0.0786  0.2009  0.2750
  110OSM   H13F11401   5.709   5.370   9.735 -1.0403  2.3861 -0.3113
  110OSM   H13G11402   5.765   5.244   9.614 -1.4157 -0.7600  0.2939
  110OSM   C14F11403   5.558   5.328   9.580  0.1586 -1.3166  0.6391
  110OSM   H14F11404   5.523   5.232   9.625  1.0283 -1.7774  0.3697
  110OSM   H14G11405   5.554   5.316   9.470  0.4957 -0.4198  0.5173
  110OSM   C15F11406   5.476   5.452   9.616  0.3068 -0.2580 -0.3159
  110OSM   H15F11407   5.373   5.435   9.578  0.3458  1.9395 -1.5749
  110OSM   H15G11408   5.515   5.546   9.572  0.4984 -0.6040 -0.8944
  110OSM   C16F11409   5.465   5.458   9.766 -0.0310  0.5607  0.2725
  110OSM   H16F11410   5.555   5.500   9.816  0.7798 -1.7092  0.8147
  110OSM   H16G11411   5.463   5.357   9.812 -2.0870  0.1727 -0.5726
  110OSM   C17F11412   5.345   5.538   9.807 -0.0575 -0.9390 -0.2308
  110OSM   H17F11413   5.343   5.546   9.918  3.9595 -1.6695  0.0598
  110OSM   H17G11414   5.252   5.484   9.779 -0.8259 -0.4101  1.1976
  110OSM   C18F11415   5.326   5.680   9.751  0.6158  0.4024  0.0331
  110OSM   H18F11416   5.267   5.676   9.657 -2.5152 -1.2759  1.8841
  110OSM   H18G11417   5.421   5.737   9.741  0.1215  1.2796  0.2253
  110OSM   H18H11418   5.271   5.738   9.828  3.3701  2.7048  0.4317
  111OSM      N11419   5.377   3.357  10.659  0.0449  0.1444 -0.2497
  111OSM    C1511420   5.378   3.382  10.510  0.6256  0.0130  0.2298
  111OSM   H15A11421   5.275   3.377  10.477  0.5529 -0.5485  0.5306
  111OSM   H15B11422   5.416   3.294  10.460 -2.4823 -0.0049 -2.4609
  111OSM   H15C11423   5.431   3.473  10.485 -0.4288  0.6834  0.3799
  111OSM    C1411424   5.283   3.454  10.727 -0.0630  0.1268  0.3797
  111OSM   H14A11425   5.303   3.553  10.689  2.1560 -0.2931  0.3401
  111OSM   H14B11426   5.298   3.448  10.834 -2.6797 -0.3801  0.7781
  111OSM   H14C11427   5.179   3.440  10.700  0.2390  0.6251 -1.1191
  111OSM    C1311428   5.305   3.222  10.679 -0.2513  0.7329 -0.3636
  111OSM   H13A11429   5.289   3.199  10.783 -0.5496  0.6245 -0.4333
  111OSM   H13B11430   5.369   3.146  10.636  0.0718  1.1720 -0.6692
  111OSM   H13C11431   5.214   3.223  10.620 -1.2002  1.8205  1.0516
  111OSM    C1211432   5.518   3.367  10.715  0.2453 -0.5388  0.3730
  111OSM   H12A11433   5.525   3.345  10.820 -0.7904  0.6005  0.6959
  111OSM   H12B11434   5.560   3.467  10.712 -0.8789 -0.0434  0.7911
  111OSM    C1111435   5.628   3.296  10.638 -0.1502 -0.1082 -0.3466
  111OSM   H11A11436   5.655   3.339  10.539  1.0855  0.5123  0.2412
  111OSM   H11B11437   5.593   3.191  10.626  1.5642 -0.6809 -0.5422
  111OSM      P11438   5.783   3.181  10.808 -0.4319 -0.2861 -0.1689
  111OSM    O1311439   5.906   3.209  10.884 -0.4347  0.3622  0.0542
  111OSM    O1411440   5.670   3.138  10.884 -0.0801 -0.2638 -0.2203
  111OSM    O1111441   5.815   3.074  10.692  0.3485 -0.4033  0.4881
  111OSM    O1211442   5.747   3.299  10.718  0.4788  0.1844  1.1565
  111OSM    C1S11443   5.929   3.099  10.609 -0.3156 -0.2758 -0.4806
  111OSM    H1S11444   6.018   3.088  10.674 -2.0410 -3.5165  1.6085
  111OSM    H1T11445   5.932   3.191  10.548  3.5196 -0.5769 -0.9853
  111OSM     NF11446   6.086   2.997  10.454 -0.1376 -0.2580 -0.1255
  111OSM    HNF11447   6.081   3.036  10.362  1.7574  1.9110  0.6084
  111OSM    C2S11448   5.952   2.981  10.511  0.4009 -1.1386  0.3932
  111OSM    H2S11449   5.958   2.890  10.574 -2.1439 -0.6300  1.4977
  111OSM    C3S11450   5.833   2.969  10.409 -1.3650  0.0325  0.1315
  111OSM    H3S11451   5.809   3.064  10.356 -0.7755 -1.6055 -3.3695
  111OSM     O311452   5.711   2.937  10.468  0.2018 -0.5453  0.0571
  111OSM    HO311453   5.721   2.960  10.561  1.9269 -0.0389 -0.2268
  111OSM    C4S11454   5.846   2.866  10.302 -0.2421 -0.1259 -0.6051
  111OSM    H4S11455   5.882   2.769  10.338  0.7777  0.6348  0.5203
  111OSM    C5S11456   5.856   2.893  10.172 -0.1351  0.7851  0.3604
  111OSM    H5S11457   5.855   2.997  10.137  3.2294  0.6063 -0.6025
  111OSM    C6S11458   5.883   2.787  10.065  0.1759 -0.5581  0.1347
  111OSM    H6S11459   5.962   2.827   9.998  0.8811  0.6346  1.6101
  111OSM    H6T11460   5.796   2.756  10.004  0.2276 -0.6827  0.1241
  111OSM    C7S11461   5.948   2.653  10.117  0.6786  0.3130 -0.5640
  111OSM    H7S11462   5.880   2.608  10.193 -0.0858  0.1672 -1.3145
  111OSM    H7T11463   6.049   2.666  10.161  0.9336 -3.9673  0.4853
  111OSM    C8S11464   5.965   2.567   9.989  0.1669  0.6475 -0.5935
  111OSM    H8S11465   5.886   2.588   9.914 -1.6765  1.0573  1.3395
  111OSM    H8T11466   5.965   2.458  10.006  1.2150  0.6599 -0.4737
  111OSM    C9S11467   6.101   2.589   9.919 -0.0082 -0.9323 -0.2106
  111OSM    H9S11468   6.187   2.550   9.977  1.8182 -1.7675 -3.2465
  111OSM    H9T11469   6.116   2.696   9.893  2.7804 -1.6679 -2.2016
  111OSM   C10S11470   6.122   2.520   9.784 -0.0638  0.2572 -0.1796
  111OSM   H10S11471   6.047   2.559   9.712 -1.3405  1.2766  1.6302
  111OSM   H10T11472   6.114   2.409   9.793 -1.0342  0.2850 -0.6082
  111OSM   C11S11473   6.257   2.555   9.726 -0.1354  0.2445 -0.0179
  111OSM   H11S11474   6.338   2.521   9.794  1.8915  2.2984 -1.2609
  111OSM   H11T11475   6.282   2.663   9.731 -2.1318  0.7531 -0.1272
  111OSM   C12S11476   6.283   2.495   9.592 -0.2902  0.6533 -0.4224
  111OSM   H12S11477   6.218   2.547   9.518  0.4902  0.4205 -1.2933
  111OSM   H12T11478   6.251   2.389   9.603  0.3953  0.4030 -0.7550
  111OSM   C13S11479   6.425   2.501   9.540  0.3523 -0.3632  0.2653
  111OSM   H13S11480   6.489   2.436   9.603  0.1886  2.4853  3.7446
  111OSM   H13T11481   6.472   2.602   9.533 -2.2023  1.2288  3.1740
  111OSM   C14S11482   6.436   2.438   9.395  0.7245  0.1150  0.5541
  111OSM   H14S11483   6.350   2.367   9.387  0.6690 -0.1118  2.6159
  111OSM   H14T11484   6.531   2.382   9.382  0.0655 -1.2550  1.4340
  111OSM   C15S11485   6.420   2.537   9.283  0.6087 -0.1410  0.6957
  111OSM   H15S11486   6.504   2.608   9.269 -0.3524  0.9323  0.2061
  111OSM   H15T11487   6.327   2.596   9.301 -0.4487 -1.2123 -0.9833
  111OSM   C16S11488   6.398   2.483   9.145 -0.4472  0.1801  0.1358
  111OSM   H16S11489   6.350   2.383   9.149  0.8861 -0.5475 -0.9543
  111OSM   H16T11490   6.496   2.450   9.103  0.9322 -0.4752  3.5257
  111OSM   C17S11491   6.319   2.582   9.050 -0.0372  0.8602 -0.2753
  111OSM   H17S11492   6.396   2.658   9.024  0.9658 -1.2620 -4.3149
  111OSM   H17T11493   6.228   2.629   9.092 -0.1998  0.8389 -0.5987
  111OSM   C18S11494   6.262   2.519   8.930 -0.6809 -0.3124  0.0657
  111OSM   H18S11495   6.236   2.415   8.957 -2.0951 -0.0491 -0.2102
  111OSM   H18T11496   6.342   2.530   8.854  0.8908 -0.7898  1.5994
  111OSM   H18U11497   6.182   2.578   8.880 -1.2759 -1.0538  0.1245
  111OSM    C1F11498   6.209   2.970  10.509  0.4676  0.3336  0.4652
  111OSM     OF11499   6.213   2.946  10.627  0.0525 -0.0835 -0.3538
  111OSM    C2F11500   6.326   2.951  10.411  0.5408 -0.7826 -0.5862
  111OSM    H2F11501   6.377   2.855  10.432  0.7825 -0.4346  0.4854
  111OSM    H2G11502   6.389   3.040  10.432 -0.2695  0.1925 -2.1082
  111OSM    C3F11503   6.287   2.949  10.261 -0.6353 -0.2560  0.3294
  111OSM    H3F11504   6.248   3.051  10.241  1.8559  0.4958 -1.1072
  111OSM    H3G11505   6.205   2.874  10.257 -0.4385 -0.4501 -0.2026
  111OSM    C4F11506   6.408   2.923  10.165 -0.2494  0.0944  0.3401
  111OSM    H4F11507   6.468   2.844  10.216 -0.6149  0.1703  0.9047
  111OSM    H4G11508   6.473   3.012  10.158  0.0888 -0.1428  0.4074
  111OSM    C5F11509   6.373   2.883  10.017 -0.3800 -0.1482 -0.5509
  111OSM    H5F11510   6.298   2.802  10.000 -0.8042  0.4950 -1.8775
  111OSM    H5G11511   6.467   2.837   9.978 -0.2169  0.0884 -0.4384
  111OSM    C6F11512   6.349   3.011   9.930  0.3350 -0.3282 -0.5521
  111OSM    H6F11513   6.433   3.081   9.946 -1.1467  1.6069 -0.9144
  111OSM    H6G11514   6.249   3.055   9.953  0.7798  0.3931  0.0318
  111OSM    C7F11515   6.322   2.991   9.777  0.9605 -0.1202  0.8370
  111OSM    H7F11516   6.298   3.091   9.735 -1.2537 -0.4375  1.2454
  111OSM    H7G11517   6.218   2.953   9.778  1.3050 -1.5922 -2.9185
  111OSM    C8F11518   6.413   2.917   9.682 -0.6499 -0.0158 -0.0877
  111OSM    H8F11519   6.454   2.827   9.732  0.6295  0.1793 -0.7242
  111OSM    H8G11520   6.500   2.986   9.675 -0.3172 -0.3586  0.6285
  111OSM    C9F11521   6.348   2.882   9.548  1.2235 -0.1110 -0.6671
  111OSM    H9F11522   6.242   2.851   9.554  0.7528  1.3305 -1.1995
  111OSM   C10F11523   6.400   2.894   9.425 -0.6824  0.0387 -0.4504
  111OSM   H10F11524   6.332   2.872   9.341 -1.4967 -1.8080  0.6136
  111OSM   C11F11525   6.544   2.935   9.401 -0.4476 -0.1877  0.2921
  111OSM   H11F11526   6.596   2.845   9.440  0.0451  0.1192  0.3414
  111OSM   H11G11527   6.577   3.020   9.464  0.4870  0.5069 -1.0918
  111OSM   C12F11528   6.567   2.983   9.262 -0.7051  0.7287  0.3760
  111OSM   H12F11529   6.666   3.032   9.252 -0.2241 -0.2594  0.1804
  111OSM   H12G11530   6.489   3.053   9.228 -3.1668 -1.3552  1.4009
  111OSM   C13F11531   6.579   2.873   9.159 -0.2275  0.3426  0.9818
  111OSM   H13F11532   6.496   2.800   9.169 -0.9364  0.8971 -0.6274
  111OSM   H13G11533   6.679   2.825   9.160  0.1362  0.9257 -1.5061
  111OSM   C14F11534   6.562   2.920   9.007  0.2979  0.3299 -0.1131
  111OSM   H14F11535   6.454   2.945   8.997  0.0143  0.0920  1.9022
  111OSM   H14G11536   6.579   2.833   8.941 -0.9713  0.8958 -1.2326
  111OSM   C15F11537   6.632   3.053   8.972  0.6807  0.4640 -0.3057
  111OSM   H15F11538   6.738   3.035   8.997  0.3954 -1.1423 -0.1165
  111OSM   H15G11539   6.596   3.133   9.040 -1.1720 -1.0345  0.6017
  111OSM   C16F11540   6.619   3.095   8.825  0.3799  0.0614  0.4141
  111OSM   H16F11541   6.610   3.002   8.765 -0.7882  0.8785 -0.7208
  111OSM   H16G11542   6.706   3.151   8.786  0.3804 -1.3853 -1.8076
  111OSM   C17F11543   6.485   3.173   8.807 -0.6268  0.0768 -0.2202
  111OSM   H17F11544   6.501   3.269   8.861 -4.0812  0.3418  0.5532
  111OSM   H17G11545   6.400   3.114   8.848 -0.1582  1.5371  3.1915
  111OSM   C18F11546   6.459   3.199   8.656  0.1860 -0.1606  0.9765
  111OSM   H18F11547   6.537   3.262   8.609 -0.8300  0.9176  0.6817
  111OSM   H18G11548   6.366   3.258   8.641  0.6529  0.2198 -0.5965
  111OSM   H18H11549   6.444   3.103   8.603  1.1111 -0.1089  0.6118
  112OSM      N11550   2.644   1.788  10.803 -0.8030  0.4935  0.1590
  112OSM    C1511551   2.791   1.754  10.775  0.9920  0.0550  0.3287
  112OSM   H15A11552   2.830   1.692  10.854  3.0554  1.4971  0.5062
  112OSM   H15B11553   2.851   1.844  10.775  0.4044  0.5422 -2.4085
  112OSM   H15C11554   2.803   1.695  10.685 -0.7556 -2.7358  1.7677
  112OSM    C1411555   2.639   1.838  10.940  0.0969 -0.9082  0.1463
  112OSM   H14A11556   2.691   1.932  10.944 -4.3512  1.9446 -1.3761
  112OSM   H14B11557   2.685   1.770  11.010  3.0108  0.3819 -0.4140
  112OSM   H14C11558   2.534   1.851  10.963  0.1328 -1.6218  0.7302
  112OSM    C1311559   2.592   1.882  10.697  0.4726  0.1397  0.0133
  112OSM   H13A11560   2.590   1.834  10.600 -1.7268 -1.7607  0.9011
  112OSM   H13B11561   2.653   1.971  10.705  1.0557 -0.4432  3.7883
  112OSM   H13C11562   2.495   1.921  10.724  0.5499  0.7006 -0.4863
  112OSM    C1211563   2.560   1.665  10.791  0.3518 -0.1393 -0.7862
  112OSM   H12A11564   2.585   1.614  10.699 -0.8805 -0.1904 -1.1059
  112OSM   H12B11565   2.454   1.685  10.788  0.2641 -0.7067 -1.8679
  112OSM    C1111566   2.591   1.566  10.909  0.0168  0.1841  0.5638
  112OSM   H11A11567   2.515   1.484  10.905  0.4189 -0.2088  0.8201
  112OSM   H11B11568   2.570   1.619  11.005  4.2843  1.4135  1.0275
  112OSM      P11569   2.747   1.362  10.889  0.0825 -0.0604  0.3196
  112OSM    O1311570   2.891   1.340  10.900  0.4344 -0.2951 -0.1785
  112OSM    O1411571   2.654   1.286  10.977 -0.1775  0.5588  0.0293
  112OSM    O1111572   2.713   1.353  10.736  0.0522  0.1352  0.3430
  112OSM    O1211573   2.722   1.511  10.910 -0.0648  0.9430  0.0284
  112OSM    C1S11574   2.821   1.385  10.645 -0.3006  0.4098 -0.2427
  112OSM    H1S11575   2.907   1.323  10.677 -0.8270 -1.0004 -1.4411
  112OSM    H1T11576   2.848   1.492  10.659 -0.5606  0.6975 -1.7175
  112OSM     NF11577   2.902   1.352  10.418  0.1745  0.5638 -0.0618
  112OSM    HNF11578   2.938   1.440  10.385 -0.3779  1.7145  2.2432
  112OSM    C2S11579   2.779   1.355  10.499  0.6211 -0.5233  0.0965
  112OSM    H2S11580   2.739   1.253  10.480  2.0503 -0.8691 -1.2935
  112OSM    C3S11581   2.672   1.458  10.458  0.2330  0.3097  0.6113
  112OSM    H3S11582   2.715   1.559  10.447 -0.4379  0.5513  0.1304
  112OSM     O311583   2.565   1.472  10.551  0.2253 -0.3651  0.1547
  112OSM    HO311584   2.595   1.421  10.626  1.8718  3.4959  2.4440
  112OSM    C4S11585   2.614   1.417  10.332  0.2828 -0.2031 -0.0518
  112OSM    H4S11586   2.663   1.461  10.244 -0.9573  0.4938 -0.4200
  112OSM    C5S11587   2.507   1.340  10.302  0.4360 -0.0196  0.2812
  112OSM    H5S11588   2.442   1.293  10.377 -0.9786  1.1587 -0.1627
  112OSM    C6S11589   2.460   1.331  10.161  0.0147 -0.1804  0.0273
  112OSM    H6S11590   2.353   1.358  10.153 -0.3621 -1.1432  1.5493
  112OSM    H6T11591   2.454   1.224  10.133 -0.2835  0.1372 -1.2218
  112OSM    C7S11592   2.536   1.390  10.042 -0.2591 -0.3321 -0.3216
  112OSM    H7S11593   2.640   1.352  10.035 -0.1756  0.1025 -1.7648
  112OSM    H7T11594   2.544   1.500  10.030 -1.6325 -0.2462 -0.6986
  112OSM    C8S11595   2.471   1.339   9.910 -0.1526 -0.1135  0.2630
  112OSM    H8S11596   2.366   1.378   9.903  0.5057  2.3654  2.4483
  112OSM    H8T11597   2.455   1.230   9.913  0.3101 -0.1630  2.1074
  112OSM    C9S11598   2.543   1.380   9.782 -0.7627 -0.1284 -0.0681
  112OSM    H9S11599   2.651   1.354   9.768 -0.5079  0.7656  0.1770
  112OSM    H9T11600   2.548   1.491   9.782  0.2084 -0.1583  0.1322
  112OSM   C10S11601   2.459   1.340   9.659  0.2922  0.0194  1.1901
  112OSM   H10S11602   2.356   1.379   9.673  0.0500 -0.5388  0.9856
  112OSM   H10T11603   2.446   1.230   9.661  0.1321  0.0049 -0.2269
  112OSM   C11S11604   2.507   1.407   9.533  0.1130  0.5512  0.3736
  112OSM   H11S11605   2.607   1.365   9.509 -1.2385 -1.5659 -2.0269
  112OSM   H11T11606   2.522   1.517   9.538  0.0944  0.6421 -0.9958
  112OSM   C12S11607   2.433   1.373   9.398 -0.6272  0.0731  0.0347
  112OSM   H12S11608   2.331   1.413   9.411 -0.0148  1.9962 -0.7718
  112OSM   H12T11609   2.440   1.262   9.402 -1.5316  0.0158  0.0808
  112OSM   C13S11610   2.505   1.421   9.270  0.0243  0.3770  0.5046
  112OSM   H13S11611   2.612   1.395   9.286  0.1933  1.0458  0.5118
  112OSM   H13T11612   2.490   1.526   9.238  0.1959  0.5728  1.0576
  112OSM   C14S11613   2.450   1.344   9.143 -0.6379  0.7680  0.0603
  112OSM   H14S11614   2.345   1.373   9.124 -0.6439  0.3462 -0.5766
  112OSM   H14T11615   2.447   1.233   9.149  0.9797  0.6065 -1.2744
  112OSM   C15S11616   2.544   1.369   9.016  0.6863 -0.0523  0.0555
  112OSM   H15S11617   2.630   1.303   9.038 -0.7984 -2.4955 -1.0279
  112OSM   H15T11618   2.574   1.476   9.015 -1.0484  0.4609  0.4084
  112OSM   C16S11619   2.470   1.337   8.887  0.9114  0.3632 -0.3935
  112OSM   H16S11620   2.385   1.406   8.869  2.2955  2.4312  0.5792
  112OSM   H16T11621   2.447   1.228   8.886  0.2015  0.4817  1.1099
  112OSM   C17S11622   2.563   1.368   8.771 -0.9119 -0.1719 -0.5206
  112OSM   H17S11623   2.671   1.355   8.797 -0.3069  0.5202 -2.5305
  112OSM   H17T11624   2.557   1.477   8.751  1.4399 -0.1389 -1.3501
  112OSM   C18S11625   2.517   1.289   8.653 -0.0543  0.0824 -0.4795
  112OSM   H18S11626   2.414   1.320   8.628 -1.1300 -2.2390  0.8019
  112OSM   H18T11627   2.522   1.181   8.679 -1.7330 -0.1590 -1.0455
  112OSM   H18U11628   2.585   1.296   8.565 -1.6686  0.1418 -1.7798
  112OSM    C1F11629   2.978   1.249  10.397 -0.3533 -0.0236  0.5349
  112OSM     OF11630   2.966   1.143  10.461 -0.1260 -0.2145 -0.0112
  112OSM    C2F11631   3.088   1.261  10.298 -0.3273  0.0116  0.8427
  112OSM    H2F11632   3.152   1.172  10.315 -0.1705  0.0585  0.5188
  112OSM    H2G11633   3.143   1.356  10.316 -0.8712  0.9943 -2.0364
  112OSM    C3F11634   3.042   1.269  10.148  0.0757  0.3113 -0.1946
  112OSM    H3F11635   3.128   1.280  10.079 -0.3798  1.5443 -0.5856
  112OSM    H3G11636   2.980   1.360  10.133 -0.3860  0.3201  1.5388
  112OSM    C4F11637   2.975   1.135  10.103  0.8150 -0.2171  0.7919
  112OSM    H4F11638   2.876   1.122  10.151  0.5080 -0.6901  0.0472
  112OSM    H4G11639   3.043   1.056  10.141  0.6527  0.0994  1.7806
  112OSM    C5F11640   2.961   1.115   9.951 -0.1606  0.5032 -0.1631
  112OSM    H5F11641   2.885   1.184   9.911  1.0992  1.3808 -1.1153
  112OSM    H5G11642   2.918   1.012   9.945  2.5127 -0.7368  0.1303
  112OSM    C6F11643   3.099   1.119   9.887  0.5285  0.1098 -0.3932
  112OSM    H6F11644   3.185   1.091   9.951 -0.9898 -0.5450  1.4519
  112OSM    H6G11645   3.136   1.222   9.868  0.5677  0.0810 -0.4740
  112OSM    C7F11646   3.098   1.040   9.760  0.6008 -0.7351  0.1429
  112OSM    H7F11647   3.062   1.106   9.677  2.1653 -0.4939 -0.3736
  112OSM    H7G11648   3.013   0.968   9.756 -0.1024  0.0745  0.1680
  112OSM    C8F11649   3.225   0.998   9.706  0.2379 -0.3334 -0.6426
  112OSM    H8F11650   3.213   0.913   9.635 -1.4037  1.1664 -2.2619
  112OSM    H8G11651   3.282   0.956   9.791 -0.7723  0.1145  0.2865
  112OSM    C9F11652   3.300   1.114   9.649  0.2513  0.1853  0.1363
  112OSM    H9F11653   3.329   1.191   9.722  2.0247 -0.2399 -0.0635
  112OSM   C10F11654   3.332   1.139   9.520  0.1473  0.0614  0.1191
  112OSM   H10F11655   3.380   1.235   9.497 -0.2773  0.0721 -0.7532
  112OSM   C11F11656   3.301   1.058   9.404 -0.6091  0.2758 -0.3076
  112OSM   H11F11657   3.243   0.966   9.428 -0.2032 -0.3826 -1.7794
  112OSM   H11G11658   3.398   1.032   9.356  0.3088 -0.1219  1.6572
  112OSM   C12F11659   3.229   1.128   9.292 -0.0540  0.2827 -0.3475
  112OSM   H12F11660   3.299   1.207   9.259  1.5567 -0.7039  0.5781
  112OSM   H12G11661   3.139   1.180   9.333  0.2855 -0.2406  1.1341
  112OSM   C13F11662   3.194   1.032   9.172 -0.2437  0.8155  0.1691
  112OSM   H13F11663   3.085   1.034   9.150  0.1160  2.0505 -1.7135
  112OSM   H13G11664   3.215   0.930   9.209 -1.6083 -0.1140 -1.5059
  112OSM   C14F11665   3.289   1.068   9.052  0.2698  0.6484 -0.2676
  112OSM   H14F11666   3.394   1.053   9.084 -0.3296 -0.5406  1.2443
  112OSM   H14G11667   3.276   1.178   9.039  0.2916  0.4370 -2.5390
  112OSM   C15F11668   3.252   1.001   8.920 -0.4802  0.5981  0.2791
  112OSM   H15F11669   3.148   1.033   8.896 -1.0625 -0.2625  1.5551
  112OSM   H15G11670   3.271   0.893   8.935  0.0804  0.1824 -2.8204
  112OSM   C16F11671   3.346   1.052   8.804  0.1976  0.0959  0.2768
  112OSM   H16F11672   3.452   1.052   8.837  0.4352 -1.6818 -0.3828
  112OSM   H16G11673   3.338   1.161   8.782 -0.3379 -0.1023 -0.5452
  112OSM   C17F11674   3.334   0.964   8.676 -0.0706  0.1729 -0.1911
  112OSM   H17F11675   3.406   0.885   8.707  0.5840  0.5533 -0.6883
  112OSM   H17G11676   3.376   1.026   8.593 -2.3955 -0.0417 -1.6165
  112OSM   C18F11677   3.192   0.920   8.640  0.1142  0.0914  0.4321
  112OSM   H18F11678   3.138   0.866   8.720 -0.9327  1.2374  0.5228
  112OSM   H18G11679   3.188   0.859   8.547  0.1028 -0.8945  1.0591
  112OSM   H18H11680   3.120   1.003   8.623 -1.6255 -1.5012 -0.2802
  113OSM      N11681   4.486   6.645  11.042  0.2011  0.6603 -0.1541
  113OSM    C1511682   4.609   6.608  11.108 -0.0915  0.1828  0.1372
  113OSM   H15A11683   4.621   6.500  11.107 -0.3487  0.1362  1.1117
  113OSM   H15B11684   4.600   6.645  11.209 -2.4876 -0.3215  0.1724
  113OSM   H15C11685   4.692   6.660  11.064  1.1009 -1.4142  0.4028
  113OSM    C1411686   4.378   6.534  11.063  0.0751 -0.9120  0.1729
  113OSM   H14A11687   4.350   6.528  11.167 -1.2708 -1.5981 -0.2106
  113OSM   H14B11688   4.414   6.436  11.035 -0.9464 -1.9191  2.1256
  113OSM   H14C11689   4.296   6.556  10.998  0.3448 -1.4337 -0.3528
  113OSM    C1311690   4.441   6.775  11.088  0.0434  0.3170  0.0575
  113OSM   H13A11691   4.344   6.804  11.052 -1.1030 -2.2113  0.8972
  113OSM   H13B11692   4.518   6.851  11.083  1.9291 -1.5007  0.2665
  113OSM   H13C11693   4.411   6.767  11.192  0.4104 -3.3556  0.0012
  113OSM    C1211694   4.508   6.655  10.894  0.1498 -0.3826  0.3411
  113OSM   H12A11695   4.411   6.672  10.849  0.4384  1.1270  0.2406
  113OSM   H12B11696   4.538   6.555  10.865  3.5684  1.1389 -2.0458
  113OSM    C1111697   4.613   6.753  10.837 -0.1384  0.4562 -0.0038
  113OSM   H11A11698   4.572   6.848  10.876  0.3517  1.2305 -1.3055
  113OSM   H11B11699   4.613   6.764  10.727  0.7974 -1.2858 -0.2109
  113OSM      P11700   4.845   6.856  10.874  0.0215  0.1990  0.2416
  113OSM    O1311701   4.782   6.967  10.953 -0.2295  0.0315  0.0052
  113OSM    O1411702   4.984   6.814  10.897  0.5158  0.0986  0.2559
  113OSM    O1111703   4.831   6.907  10.723  0.1458 -0.1862  0.2171
  113OSM    O1211704   4.745   6.734  10.890 -0.0626 -0.4162  0.5624
  113OSM    C1S11705   4.941   7.001  10.685 -0.5250 -0.0667 -0.3600
  113OSM    H1S11706   5.040   6.953  10.701 -0.7871 -1.4166 -2.3964
  113OSM    H1T11707   4.920   7.093  10.743 -1.3550 -1.1377  1.1058
  113OSM     NF11708   5.054   7.094  10.489  0.2428 -0.7957  0.0692
  113OSM    HNF11709   5.051   7.184  10.446  0.3200 -0.7901  0.0754
  113OSM    C2S11710   4.928   7.037  10.535  0.1740  0.7882  0.4492
  113OSM    H2S11711   4.921   6.938  10.485 -1.0409  0.9217  0.3187
  113OSM    C3S11712   4.803   7.118  10.510  0.1560  0.0711  0.4448
  113OSM    H3S11713   4.806   7.214  10.566  1.9164  0.1089  0.3596
  113OSM     O311714   4.690   7.067  10.574  0.4348 -0.6199 -0.1102
  113OSM    HO311715   4.726   7.020  10.650  2.1439 -0.3320 -0.7128
  113OSM    C4S11716   4.781   7.142  10.356 -0.3907 -0.2574 -0.9830
  113OSM    H4S11717   4.858   7.209  10.316 -0.1813  0.1049 -0.0028
  113OSM    C5S11718   4.692   7.090  10.271  0.1686 -0.0061 -0.3018
  113OSM    H5S11719   4.608   7.027  10.304  0.7274 -1.5103 -1.5979
  113OSM    C6S11720   4.697   7.126  10.126  0.7797  0.1503 -0.4807
  113OSM    H6S11721   4.735   7.228  10.108  0.4076  0.4796  0.5181
  113OSM    H6T11722   4.591   7.126  10.092  0.4015 -1.1755  0.5885
  113OSM    C7S11723   4.772   7.030  10.047 -0.1911  0.1004 -0.2931
  113OSM    H7S11724   4.730   6.934  10.083 -0.2696 -0.0836 -0.8586
  113OSM    H7T11725   4.880   7.039  10.070 -0.5103  1.1784  0.8833
  113OSM    C8S11726   4.748   7.052   9.899 -0.5137 -0.3200  0.3035
  113OSM    H8S11727   4.779   7.154   9.870  0.4740 -0.8594 -0.6210
  113OSM    H8T11728   4.639   7.040   9.878 -0.6703  0.8246  0.4187
  113OSM    C9S11729   4.820   6.969   9.795 -0.1547  0.6027 -0.2458
  113OSM    H9S11730   4.805   6.866   9.833 -0.7677  0.3263 -1.1955
  113OSM    H9T11731   4.926   7.002   9.789 -0.4637  1.3775 -2.7291
  113OSM   C10S11732   4.740   6.976   9.665 -0.4094  0.2232 -0.5146
  113OSM   H10S11733   4.630   6.966   9.666 -0.2422 -2.3048  0.7159
  113OSM   H10T11734   4.778   6.886   9.613  4.6659  0.9319  1.3224
  113OSM   C11S11735   4.772   7.109   9.584  0.4844 -0.8562  1.0641
  113OSM   H11S11736   4.881   7.129   9.591  0.5150 -0.8609  0.6031
  113OSM   H11T11737   4.703   7.192   9.611 -2.2542 -2.2508 -1.0662
  113OSM   C12S11738   4.720   7.088   9.439  0.1964  0.3980 -0.3665
  113OSM   H12S11739   4.721   7.186   9.388  0.7017 -0.1417 -1.4235
  113OSM   H12T11740   4.616   7.049   9.439  0.6768 -0.9344  0.0063
  113OSM   C13S11741   4.809   6.996   9.357  0.2202  0.1801 -0.5712
  113OSM   H13S11742   4.800   6.890   9.389 -2.5840  0.8892  1.4064
  113OSM   H13T11743   4.912   7.034   9.375  0.3528 -0.6094  0.4481
  113OSM   C14S11744   4.772   7.004   9.212 -0.0198  0.2845  0.6761
  113OSM   H14S11745   4.779   7.105   9.166 -1.5556 -0.8026 -2.1921
  113OSM   H14T11746   4.675   6.955   9.186  0.6114 -0.3787 -0.5344
  113OSM   C15S11747   4.864   6.919   9.122  0.3457  0.4436  0.5519
  113OSM   H15S11748   4.859   6.813   9.154 -0.7465  0.2705 -0.1428
  113OSM   H15T11749   4.972   6.942   9.127  0.3464  1.1864 -1.9219
  113OSM   C16S11750   4.816   6.902   8.973 -0.4701 -0.4610 -0.1469
  113OSM   H16S11751   4.745   6.817   8.974 -0.4262 -0.4991  0.9835
  113OSM   H16T11752   4.902   6.871   8.909  0.9481  0.1203  1.4053
  113OSM   C17S11753   4.769   7.034   8.911 -0.1468  0.1891 -0.1728
  113OSM   H17S11754   4.841   7.118   8.924 -0.2102  0.3295 -0.7199
  113OSM   H17T11755   4.674   7.062   8.962  0.2281  0.2682  0.5022
  113OSM   C18S11756   4.759   7.009   8.758  0.5199 -0.6065  0.2334
  113OSM   H18S11757   4.676   6.941   8.730  1.5158 -0.6145 -3.0696
  113OSM   H18T11758   4.854   6.974   8.714  1.9643  0.1033  2.6093
  113OSM   H18U11759   4.732   7.110   8.720 -1.2349 -0.9116  0.5536
  113OSM    C1F11760   5.167   7.027  10.479 -0.4247 -0.5600  0.0803
  113OSM     OF11761   5.164   6.906  10.494 -0.3973  0.1961  0.4781
  113OSM    C2F11762   5.291   7.102  10.436 -0.4280 -0.9852  0.0479
  113OSM    H2F11763   5.351   7.125  10.527  0.2401 -0.5909 -0.4783
  113OSM    H2G11764   5.267   7.203  10.396 -0.4610 -0.6590  0.8619
  113OSM    C3F11765   5.377   7.031  10.328 -0.1423  0.8233 -0.4736
  113OSM    H3F11766   5.325   7.038  10.230 -0.6412  1.7556 -0.1577
  113OSM    H3G11767   5.384   6.924  10.354  0.2313  1.3545  1.7901
  113OSM    C4F11768   5.527   7.073  10.317 -0.6430 -0.7552  0.1177
  113OSM    H4F11769   5.566   7.078  10.421  0.4843 -0.6998 -0.2944
  113OSM    H4G11770   5.525   7.178  10.280  2.5651 -0.5316  0.2839
  113OSM    C5F11771   5.616   6.993  10.221 -0.0261 -0.4908  0.1074
  113OSM    H5F11772   5.630   6.888  10.255 -0.6276 -0.1314  1.5401
  113OSM    H5G11773   5.722   7.025  10.217  0.6815 -2.7694 -2.5595
  113OSM    C6F11774   5.569   6.998  10.076 -0.6685 -0.0211  0.2721
  113OSM    H6F11775   5.565   7.098  10.028  0.5957 -0.6952 -1.3399
  113OSM    H6G11776   5.462   6.967  10.077 -0.3993 -1.0637  1.9018
  113OSM    C7F11777   5.623   6.881   9.987 -0.8396 -0.2867 -0.5794
  113OSM    H7F11778   5.540   6.829   9.935 -2.8076  3.0279 -1.0646
  113OSM    H7G11779   5.664   6.805  10.057 -0.3667  0.1208 -0.4061
  113OSM    C8F11780   5.726   6.910   9.880  0.5330 -0.9827 -0.0535
  113OSM    H8F11781   5.819   6.953   9.922  0.7081 -1.5122  0.1083
  113OSM    H8G11782   5.677   6.980   9.808 -0.0034  0.7686  1.8914
  113OSM    C9F11783   5.766   6.776   9.818  0.3731  0.5023  1.1661
  113OSM    H9F11784   5.787   6.691   9.885  0.4194  0.0814  0.6281
  113OSM   C10F11785   5.796   6.747   9.685  0.2099 -0.1209  0.2041
  113OSM   H10F11786   5.837   6.646   9.667 -1.8643 -0.8823 -0.5897
  113OSM   C11F11787   5.788   6.837   9.566 -0.9301 -0.8393 -0.0415
  113OSM   H11F11788   5.694   6.894   9.580  0.1908  1.0157  0.2726
  113OSM   H11G11789   5.785   6.773   9.475  2.5553 -2.0673  0.5775
  113OSM   C12F11790   5.903   6.934   9.571 -0.5547 -0.6756 -0.4504
  113OSM   H12F11791   5.894   6.984   9.670 -4.2495 -1.5973 -0.1703
  113OSM   H12G11792   5.880   7.015   9.499 -1.7726  0.5731  1.2557
  113OSM   C13F11793   6.032   6.866   9.544 -0.6214 -0.2089 -0.4559
  113OSM   H13F11794   6.047   6.786   9.619 -1.3934  0.4149  0.4042
  113OSM   H13G11795   6.113   6.940   9.563  1.4605 -2.2803 -0.8671
  113OSM   C14F11796   6.042   6.821   9.399 -0.0330  0.0367 -0.5223
  113OSM   H14F11797   6.012   6.910   9.341 -0.8833  1.1295  1.4991
  113OSM   H14G11798   5.959   6.750   9.375  0.5924 -2.3906  3.5083
  113OSM   C15F11799   6.171   6.747   9.363  0.1677  0.6373  0.7233
  113OSM   H15F11800   6.185   6.666   9.437 -2.3674 -0.6142 -0.0296
  113OSM   H15G11801   6.257   6.818   9.364  0.1988  0.6880 -1.2000
  113OSM   C16F11802   6.161   6.676   9.228 -0.2235  0.1226  0.6330
  113OSM   H16F11803   6.188   6.746   9.145  0.9745 -1.7479 -0.6448
  113OSM   H16G11804   6.059   6.641   9.199 -0.6826  2.3943 -0.7345
  113OSM   C17F11805   6.267   6.565   9.214 -0.6731 -1.1929  0.3460
  113OSM   H17F11806   6.268   6.486   9.292 -0.4518 -2.6626 -1.1061
  113OSM   H17G11807   6.358   6.627   9.232 -1.9223  0.7711  0.2383
  113OSM   C18F11808   6.274   6.500   9.075  0.0362  0.4970  0.4397
  113OSM   H18F11809   6.208   6.564   9.013  1.7204 -0.9274 -3.1278
  113OSM   H18G11810   6.249   6.392   9.071  0.8626  0.3296 -0.7315
  113OSM   H18H11811   6.373   6.520   9.029 -0.2919 -1.0083 -1.0157
  114OSM      N11812   5.986   0.765  11.375  0.6840  0.2689 -0.0706
  114OSM    C1511813   5.944   0.698  11.498 -0.5984 -0.7520 -0.0806
  114OSM   H15A11814   5.838   0.713  11.510 -0.1709  2.3850  0.7817
  114OSM   H15B11815   5.988   0.750  11.582  2.0394  0.4881 -2.0854
  114OSM   H15C11816   5.973   0.594  11.491 -0.1354 -0.6345  0.0391
  114OSM    C1411817   6.135   0.763  11.374 -0.0501 -0.1450 -0.4066
  114OSM   H14A11818   6.178   0.665  11.358 -1.3724 -0.7325 -0.5680
  114OSM   H14B11819   6.172   0.812  11.462 -1.5221 -0.0732  0.2034
  114OSM   H14C11820   6.164   0.838  11.302 -0.0493 -0.6965 -0.9880
  114OSM    C1311821   5.931   0.694  11.251  0.0910  0.1701 -0.1534
  114OSM   H13A11822   5.981   0.747  11.172  0.1096  1.5147  0.7342
  114OSM   H13B11823   5.824   0.687  11.240 -0.1044  1.3206  0.8561
  114OSM   H13C11824   5.977   0.596  11.246  0.5869  0.3306  0.9517
  114OSM    C1211825   5.940   0.908  11.383 -0.1480 -0.2198 -0.6001
  114OSM   H12A11826   5.993   0.956  11.464  0.4396 -1.7192 -0.0565
  114OSM   H12B11827   5.836   0.914  11.410 -0.8323 -1.3379 -2.7121
  114OSM    C1111828   5.958   1.002  11.262  0.2089 -0.0288 -0.6371
  114OSM   H11A11829   5.945   1.109  11.291  2.4016  0.4716 -1.3195
  114OSM   H11B11830   5.880   0.977  11.187 -0.4586  0.1991 -0.0432
  114OSM      P11831   6.213   1.079  11.234 -0.2238  0.0222  0.1701
  114OSM    O1311832   6.169   1.196  11.320  0.2225 -0.2178  0.3534
  114OSM    O1411833   6.310   0.986  11.288  0.0445  0.2866  0.7764
  114OSM    O1111834   6.249   1.137  11.091 -0.1533 -0.1390 -0.3223
  114OSM    O1211835   6.087   0.985  11.208  0.3090  0.0042  0.0755
  114OSM    C1S11836   6.358   1.062  11.029 -0.0437  0.1349 -0.7793
  114OSM    H1S11837   6.366   0.955  11.058  2.3447  0.1617 -1.1962
  114OSM    H1T11838   6.455   1.098  11.068 -1.3194  1.2357  1.5678
  114OSM     NF11839   6.437   0.956  10.819  0.4374  0.4455 -0.5734
  114OSM    HNF11840   6.523   0.997  10.791 -0.1291  1.5914 -0.6971
  114OSM    C2S11841   6.338   1.057  10.872 -0.5943  0.2552 -0.9775
  114OSM    H2S11842   6.234   1.027  10.846 -0.6035 -0.5547 -0.0474
  114OSM    C3S11843   6.358   1.205  10.805  0.1863  0.1583  0.8139
  114OSM    H3S11844   6.461   1.239  10.829 -0.4376  1.9205  1.1499
  114OSM     O311845   6.264   1.301  10.860 -0.0218  0.5575  0.0211
  114OSM    HO311846   6.241   1.249  10.938  1.0342 -0.5619 -0.3708
  114OSM    C4S11847   6.324   1.198  10.665 -0.6122  0.2774  0.1145
  114OSM    H4S11848   6.217   1.182  10.645 -0.7636  1.9559 -0.5437
  114OSM    C5S11849   6.420   1.211  10.568  0.4278  0.2282  0.0319
  114OSM    H5S11850   6.525   1.232  10.589  0.4465  0.8098 -0.6170
  114OSM    C6S11851   6.392   1.215  10.425  0.2586 -0.0362 -0.1912
  114OSM    H6S11852   6.447   1.133  10.375 -0.5502 -1.4563  1.1740
  114OSM    H6T11853   6.430   1.313  10.388  2.9767  0.3206  2.9971
  114OSM    C7S11854   6.245   1.204  10.385  0.0498 -0.1445 -0.6948
  114OSM    H7S11855   6.186   1.290  10.424  2.1239  0.5201  1.1994
  114OSM    H7T11856   6.211   1.109  10.431 -1.2443  0.7372  0.2221
  114OSM    C8S11857   6.233   1.182  10.236 -0.2669  0.1792 -0.0925
  114OSM    H8S11858   6.290   1.091  10.205 -1.8528 -0.9508  0.1436
  114OSM    H8T11859   6.280   1.271  10.190  0.8433 -1.1762 -1.7125
  114OSM    C9S11860   6.094   1.182  10.182 -0.0127 -0.4884  0.4366
  114OSM    H9S11861   6.049   1.277  10.218 -1.3732 -1.4375  1.3735
  114OSM    H9T11862   6.038   1.091  10.213 -1.2726 -0.1026 -0.6035
  114OSM   C10S11863   6.078   1.183  10.022 -0.0131  0.4435 -0.3583
  114OSM   H10S11864   5.969   1.180  10.001 -0.0403  0.5460 -0.2299
  114OSM   H10T11865   6.123   1.091   9.980 -2.6206 -1.1928  0.1520
  114OSM   C11S11866   6.146   1.312   9.971 -0.5505  0.4128 -0.3930
  114OSM   H11S11867   6.256   1.296   9.975 -0.7207 -0.7858 -0.0948
  114OSM   H11T11868   6.123   1.405  10.027 -2.5131 -0.2749  0.0251
  114OSM   C12S11869   6.106   1.333   9.820 -0.1235  0.6779 -0.6980
  114OSM   H12S11870   5.996   1.323   9.810  0.0367 -1.0826 -0.9492
  114OSM   H12T11871   6.135   1.240   9.768  1.2604  0.7790 -0.1432
  114OSM   C13S11872   6.145   1.465   9.755 -0.4963  0.2192 -0.6996
  114OSM   H13S11873   6.255   1.471   9.762 -0.4817 -0.2341 -0.4942
  114OSM   H13T11874   6.108   1.557   9.805 -0.4505  0.7916 -1.6834
  114OSM   C14S11875   6.104   1.465   9.608 -0.3890  0.4092 -0.6257
  114OSM   H14S11876   6.169   1.402   9.544 -2.1352 -1.2515 -0.8400
  114OSM   H14T11877   6.118   1.572   9.578 -0.5738  0.2699 -1.2245
  114OSM   C15S11878   5.960   1.421   9.584 -0.5133 -0.0752  0.1196
  114OSM   H15S11879   5.893   1.454   9.666 -1.8511 -0.6603 -0.6902
  114OSM   H15T11880   5.954   1.311   9.599  1.5782 -0.9498 -3.9417
  114OSM   C16S11881   5.895   1.453   9.451 -0.2900 -0.0723 -0.1626
  114OSM   H16S11882   5.792   1.412   9.449  0.9154 -3.3619 -0.8328
  114OSM   H16T11883   5.950   1.399   9.372 -1.5363 -1.9353  0.1762
  114OSM   C17S11884   5.883   1.601   9.423 -0.9335  0.2944  0.6338
  114OSM   H17S11885   5.818   1.617   9.335  1.5075  1.0673 -1.1439
  114OSM   H17T11886   5.983   1.626   9.382 -0.9818  1.4437  1.1803
  114OSM   C18S11887   5.844   1.700   9.533 -0.1188  0.2201  0.1124
  114OSM   H18S11888   5.855   1.804   9.497 -0.4768 -0.5686 -2.4398
  114OSM   H18T11889   5.917   1.691   9.616  0.2177  1.0843 -0.0806
  114OSM   H18U11890   5.740   1.673   9.560 -0.3071 -1.4108 -1.9629
  114OSM    C1F11891   6.412   0.825  10.810 -0.4464  1.1392 -0.4981
  114OSM     OF11892   6.339   0.771  10.897  0.3610 -0.3629  0.2330
  114OSM    C2F11893   6.462   0.743  10.699  0.3423 -0.3079 -0.5139
  114OSM    H2F11894   6.523   0.670  10.756  0.5422  0.2005 -0.0671
  114OSM    H2G11895   6.536   0.800  10.639  1.6011 -0.7719  0.5524
  114OSM    C3F11896   6.352   0.663  10.628 -0.2480 -0.0480  1.0205
  114OSM    H3F11897   6.280   0.608  10.693  0.3504 -3.0427 -0.6427
  114OSM    H3G11898   6.396   0.593  10.554  0.5049  0.5089  0.9331
  114OSM    C4F11899   6.265   0.753  10.539  0.7950 -0.1783  0.0919
  114OSM    H4F11900   6.248   0.842  10.604  0.3914 -1.0467  1.2049
  114OSM    H4G11901   6.164   0.709  10.533  0.2207  1.1836 -0.5120
  114OSM    C5F11902   6.309   0.783  10.393 -0.7448  0.5629 -0.1045
  114OSM    H5F11903   6.412   0.824  10.386 -0.5073 -0.2284 -1.8402
  114OSM    H5G11904   6.244   0.866  10.357 -1.2885 -0.4938 -1.6787
  114OSM    C6F11905   6.301   0.660  10.292  0.0943  0.2146 -0.6728
  114OSM    H6F11906   6.196   0.634  10.272 -0.3405  1.7254 -0.5222
  114OSM    H6G11907   6.358   0.580  10.343 -1.4097  0.5512  1.7012
  114OSM    C7F11908   6.359   0.692  10.157  0.2126 -0.1547 -0.2045
  114OSM    H7F11909   6.468   0.701  10.175  0.2305 -1.5788  0.5237
  114OSM    H7G11910   6.316   0.788  10.120  1.4168  0.2273 -0.6650
  114OSM    C8F11911   6.344   0.582  10.045 -0.4250  0.4632  0.0449
  114OSM    H8F11912   6.238   0.555  10.029 -0.3999 -0.4339  1.2712
  114OSM    H8G11913   6.402   0.494  10.080 -1.8919 -0.8816 -0.7688
  114OSM    C9F11914   6.402   0.621   9.915  0.1306  0.2576  0.3346
  114OSM    H9F11915   6.414   0.730   9.909  1.2309  0.1797  0.9944
  114OSM   C10F11916   6.438   0.540   9.810  0.0582 -0.0785 -0.4534
  114OSM   H10F11917   6.481   0.582   9.718 -1.6568 -1.7799 -2.1073
  114OSM   C11F11918   6.433   0.390   9.805 -0.9649 -0.0615 -0.8136
  114OSM   H11F11919   6.336   0.352   9.844  0.3833 -2.1599  0.7258
  114OSM   H11G11920   6.508   0.339   9.869 -0.2080  1.1953 -0.6544
  114OSM   C12F11921   6.454   0.327   9.666 -0.4957  0.1412 -0.1795
  114OSM   H12F11922   6.478   0.219   9.673 -1.0445 -0.0287 -0.8223
  114OSM   H12G11923   6.549   0.375   9.633  0.2665 -0.9829  0.3155
  114OSM   C13F11924   6.342   0.343   9.563 -0.4521  0.9428 -0.2765
  114OSM   H13F11925   6.292   0.442   9.572  0.1635  1.0968  2.3878
  114OSM   H13G11926   6.272   0.262   9.596  1.0341 -0.9331 -1.4982
  114OSM   C14F11927   6.388   0.300   9.417 -0.3655  0.1478 -0.5750
  114OSM   H14F11928   6.460   0.217   9.434  0.6020  1.3163  1.4529
  114OSM   H14G11929   6.435   0.393   9.377  0.4585 -1.2809 -3.1753
  114OSM   C15F11930   6.267   0.268   9.337  0.1546  0.0788  0.4047
  114OSM   H15F11931   6.205   0.359   9.349  1.0972  0.6231  1.3768
  114OSM   H15G11932   6.225   0.177   9.386 -0.4220 -0.1194 -0.4293
  114OSM   C16F11933   6.295   0.267   9.184  0.2096  0.6746 -0.6453
  114OSM   H16F11934   6.331   0.364   9.146 -0.6096  0.7144 -1.3628
  114OSM   H16G11935   6.194   0.246   9.141 -0.3904  0.8445  0.6270
  114OSM   C17F11936   6.398   0.163   9.145 -0.2651 -0.4803 -0.2034
  114OSM   H17F11937   6.378   0.068   9.199  0.4861 -0.7549 -0.4013
  114OSM   H17G11938   6.500   0.192   9.176 -1.1020  3.4331 -0.5488
  114OSM   C18F11939   6.399   0.147   8.997  0.1410 -0.5116  0.2531
  114OSM   H18F11940   6.458   0.059   8.963  1.8541  0.9499 -0.7465
  114OSM   H18G11941   6.431   0.241   8.948  1.4652 -1.8736 -1.6455
  114OSM   H18H11942   6.295   0.118   8.970  0.3288  0.1897 -1.3472
  115OSM      N11943   1.193   5.670   6.235  0.4151 -0.7969  0.1654
  115OSM    C1511944   1.115   5.630   6.357 -0.3588 -0.1526  0.1880
  115OSM   H15A11945   1.016   5.595   6.330  0.7925 -1.3692 -2.9072
  115OSM   H15B11946   1.095   5.718   6.416 -1.5067 -0.9014  0.9713
  115OSM   H15C11947   1.165   5.559   6.422 -0.0423 -2.1871 -2.1270
  115OSM    C1411948   1.106   5.775   6.166 -0.1246  0.5295 -0.3440
  115OSM   H14A11949   1.153   5.838   6.093  0.7813 -0.9506 -1.0892
  115OSM   H14B11950   1.083   5.848   6.242  2.2566  2.3961 -1.3198
  115OSM   H14C11951   1.016   5.728   6.128 -0.1673 -0.7595  1.2250
  115OSM    C1311952   1.320   5.731   6.280 -0.2737 -0.2919 -0.2032
  115OSM   H13A11953   1.301   5.806   6.356 -1.1608 -0.9227  0.2158
  115OSM   H13B11954   1.376   5.789   6.208  2.8373 -1.5328  1.0164
  115OSM   H13C11955   1.389   5.660   6.324 -0.1568  0.0471  0.1719
  115OSM    C1211956   1.220   5.553   6.142 -0.1795 -0.0122 -0.5507
  115OSM   H12A11957   1.294   5.492   6.193 -1.6361 -1.2835  0.1089
  115OSM   H12B11958   1.252   5.585   6.043  0.9570  0.0254 -0.1877
  115OSM    C1111959   1.099   5.449   6.116  0.0655 -0.1102 -0.1947
  115OSM   H11A11960   1.072   5.408   6.216 -2.0755 -1.5997 -1.2930
  115OSM   H11B11961   1.131   5.363   6.053  0.1778 -0.6143  0.5350
  115OSM      P11962   0.845   5.469   6.047 -0.0143  0.2609 -0.1010
  115OSM    O1311963   0.753   5.588   6.052 -0.3896  0.0652 -0.3664
  115OSM    O1411964   0.830   5.366   5.944  0.4618  0.6080  0.3568
  115OSM    O1111965   0.832   5.403   6.189 -0.0082 -0.4673 -0.0671
  115OSM    O1211966   0.992   5.517   6.047 -0.5923 -0.1581  0.1328
  115OSM    C1S11967   0.761   5.287   6.219  0.0711  0.5557  0.6097
  115OSM    H1S11968   0.830   5.200   6.222 -0.2800  0.2205 -0.4851
  115OSM    H1T11969   0.690   5.258   6.139 -0.0753  2.0605  0.1726
  115OSM     NF11970   0.681   5.148   6.411  0.0789 -0.4161  0.0838
  115OSM    HNF11971   0.589   5.110   6.396 -0.5028  1.1362 -0.4639
  115OSM    C2S11972   0.695   5.289   6.363 -0.3039  0.5064  0.7107
  115OSM    H2S11973   0.777   5.335   6.422  0.4799  0.6108 -0.4230
  115OSM    C3S11974   0.563   5.377   6.372  0.5590 -0.3521  1.2264
  115OSM    H3S11975   0.489   5.325   6.307  1.0424 -0.6335  0.8939
  115OSM     O311976   0.575   5.506   6.303 -0.1712  0.1999  0.4148
  115OSM    HO311977   0.663   5.501   6.265  0.2555 -1.2606  1.4695
  115OSM    C4S11978   0.518   5.400   6.513 -0.1753  0.3747 -0.3204
  115OSM    H4S11979   0.583   5.344   6.582  0.9315 -0.2343 -1.7777
  115OSM    C5S11980   0.415   5.483   6.557 -0.2655  0.4507  0.0846
  115OSM    H5S11981   0.353   5.540   6.487  3.8294  3.8108 -1.1892
  115OSM    C6S11982   0.397   5.509   6.705  0.5471  0.3975 -0.3538
  115OSM    H6S11983   0.294   5.545   6.727  0.8118  1.3900 -0.6761
  115OSM    H6T11984   0.465   5.582   6.753 -0.2016  0.0039  1.3907
  115OSM    C7S11985   0.423   5.385   6.795  0.2688 -0.6249  0.1505
  115OSM    H7S11986   0.531   5.360   6.787  0.6965  1.0583  0.3325
  115OSM    H7T11987   0.377   5.293   6.752 -0.4891  0.9540 -2.6967
  115OSM    C8S11988   0.384   5.400   6.938  0.3215  0.3204  0.8095
  115OSM    H8S11989   0.350   5.308   6.991 -0.3388  0.6536  0.9673
  115OSM    H8T11990   0.298   5.468   6.952  0.0483  0.2632 -0.4560
  115OSM    C9S11991   0.496   5.461   7.025 -0.4517 -0.0247  0.9762
  115OSM    H9S11992   0.510   5.567   6.995 -0.5061 -0.0567  0.8384
  115OSM    H9T11993   0.599   5.423   7.008 -0.2959  1.2888 -1.4019
  115OSM   C10S11994   0.451   5.468   7.169 -0.4730  0.0450  0.2367
  115OSM   H10S11995   0.456   5.364   7.207  1.1246 -0.1188 -0.3268
  115OSM   H10T11996   0.351   5.513   7.183 -0.5332  0.6542 -1.8724
  115OSM   C11S11997   0.549   5.540   7.258  0.0613  0.1509  0.2319
  115OSM   H11S11998   0.560   5.648   7.234 -1.2246  0.8463  2.5626
  115OSM   H11T11999   0.649   5.494   7.238  0.0645  0.7244 -1.2122
  115OSM   C12S12000   0.528   5.541   7.411  0.4099  0.2816 -0.2651
  115OSM   H12S12001   0.533   5.435   7.442 -0.5362  0.6705  1.3367
  115OSM   H12T12002   0.428   5.585   7.431  0.6081  0.7624 -0.2943
  115OSM   C13S12003   0.638   5.618   7.475  1.1094 -0.6982  0.4028
  115OSM   H13S12004   0.622   5.728   7.466  1.9619 -0.5855  0.1599
  115OSM   H13T12005   0.735   5.602   7.423  1.6197 -1.7597  1.6150
  115OSM   C14S12006   0.671   5.583   7.622  1.1900  0.7444  1.3606
  115OSM   H14S12007   0.761   5.641   7.651  2.6194 -0.6006 -0.1765
  115OSM   H14T12008   0.684   5.473   7.630 -0.2041  0.2886 -1.4031
  115OSM   C15S12009   0.552   5.612   7.722 -0.4375  0.3600  1.0550
  115OSM   H15S12010   0.455   5.576   7.681 -1.4407  1.0486  2.6910
  115OSM   H15T12011   0.546   5.721   7.743  1.9743  0.6911  0.2778
  115OSM   C16S12012   0.567   5.546   7.863  0.3185  0.0883  0.2796
  115OSM   H16S12013   0.590   5.438   7.856 -1.7971 -0.4773  1.2562
  115OSM   H16T12014   0.473   5.555   7.922  1.0393 -1.1459  1.6879
  115OSM   C17S12015   0.691   5.616   7.933 -0.3097 -0.5288 -0.1327
  115OSM   H17S12016   0.778   5.578   7.875 -1.2050  0.4239 -2.2136
  115OSM   H17T12017   0.702   5.575   8.036 -0.9895  0.6625  0.4466
  115OSM   C18S12018   0.682   5.762   7.958  0.2326 -0.2985 -0.1201
  115OSM   H18S12019   0.587   5.786   8.010  1.7514  1.4546  2.0547
  115OSM   H18T12020   0.692   5.816   7.862  1.5945 -0.7607 -0.2554
  115OSM   H18U12021   0.767   5.791   8.024  2.2488 -0.9589 -2.2870
  115OSM    C1F12022   0.774   5.081   6.462 -1.1077 -0.3451  0.1017
  115OSM     OF12023   0.890   5.115   6.451 -0.0421  0.0930 -0.0573
  115OSM    C2F12024   0.734   4.961   6.532 -0.5918  0.3743 -0.4607
  115OSM    H2F12025   0.758   4.867   6.477 -0.1766 -0.0947  0.4937
  115OSM    H2G12026   0.624   4.966   6.548 -0.7944 -0.3737 -1.4701
  115OSM    C3F12027   0.804   4.953   6.675 -0.0311  0.1574  0.6857
  115OSM    H3F12028   0.911   4.976   6.658 -0.5254  1.9131 -0.1722
  115OSM    H3G12029   0.795   4.850   6.718 -2.9854  0.6274  1.3746
  115OSM    C4F12030   0.756   5.060   6.771 -0.1992  0.4346 -0.5291
  115OSM    H4F12031   0.654   5.034   6.807 -0.1945 -0.7962 -1.3517
  115OSM    H4G12032   0.739   5.157   6.720  0.3370  0.7175 -0.1760
  115OSM    C5F12033   0.851   5.076   6.897  0.2092  0.3847 -0.1826
  115OSM    H5F12034   0.800   5.149   6.963 -0.8264 -0.8389  0.4015
  115OSM    H5G12035   0.952   5.118   6.877  0.8392  0.2736  2.4530
  115OSM    C6F12036   0.880   4.944   6.971  0.6964  0.2140 -0.0191
  115OSM    H6F12037   0.945   4.884   6.903  0.6249 -1.4684  1.3281
  115OSM    H6G12038   0.786   4.889   6.996  1.1692 -2.4917 -3.3549
  115OSM    C7F12039   0.958   4.971   7.103 -0.1907  0.5305 -0.3067
  115OSM    H7F12040   1.048   5.036   7.092 -1.1458  2.1644  1.1123
  115OSM    H7G12041   1.006   4.873   7.125 -1.1882 -0.4556 -2.2621
  115OSM    C8F12042   0.900   5.042   7.223 -0.0766  0.1481  0.3046
  115OSM    H8F12043   0.878   5.145   7.186 -1.4819 -0.2812 -0.1219
  115OSM    H8G12044   0.988   5.049   7.291  1.7526 -0.7787 -1.8543
  115OSM    C9F12045   0.783   4.961   7.276 -0.1911 -0.2713  0.2096
  115OSM    H9F12046   0.808   4.854   7.272  1.0783 -0.0852  2.1353
  115OSM   C10F12047   0.681   4.999   7.342  0.5684  0.7710  0.8889
  115OSM   H10F12048   0.619   4.920   7.387 -0.2368  1.4380  0.9708
  115OSM   C11F12049   0.638   5.145   7.372  0.2361 -0.2004 -0.0414
  115OSM   H11F12050   0.527   5.149   7.371  0.0738 -2.1750  1.8027
  115OSM   H11G12051   0.669   5.212   7.289  1.1956 -1.3053 -0.6202
  115OSM   C12F12052   0.705   5.201   7.497  0.0524 -0.4259  0.5925
  115OSM   H12F12053   0.665   5.304   7.507  0.4997 -0.3144  1.3340
  115OSM   H12G12054   0.816   5.202   7.488  0.0099  1.6509 -0.0631
  115OSM   C13F12055   0.673   5.130   7.628  0.4136  0.0057  0.1547
  115OSM   H13F12056   0.673   5.019   7.626 -1.7220 -0.0496 -2.6693
  115OSM   H13G12057   0.568   5.160   7.648  0.4724 -0.7972  1.8149
  115OSM   C14F12058   0.762   5.191   7.739  0.2467 -0.0009 -0.2119
  115OSM   H14F12059   0.718   5.291   7.760 -2.7034 -1.3138  0.3273
  115OSM   H14G12060   0.868   5.208   7.708  0.3262 -0.5647 -0.2603
  115OSM   C15F12061   0.753   5.103   7.867  0.5360 -0.5413  0.1109
  115OSM   H15F12062   0.805   5.006   7.855  0.7951 -0.4033  0.1041
  115OSM   H15G12063   0.645   5.097   7.892  0.2118 -0.3722 -1.1649
  115OSM   C16F12064   0.820   5.172   7.988 -0.6164 -0.0876 -0.3062
  115OSM   H16F12065   0.800   5.109   8.077  0.2818  1.8377  1.3321
  115OSM   H16G12066   0.772   5.270   8.008 -1.2082 -0.4109 -0.1142
  115OSM   C17F12067   0.969   5.177   7.963 -0.6023  0.3707 -0.3440
  115OSM   H17F12068   0.991   5.247   7.879 -0.2661  1.2895  0.4872
  115OSM   H17G12069   0.997   5.070   7.954 -2.5561 -0.1722 -0.2737
  115OSM   C18F12070   1.053   5.251   8.067  0.1624 -0.1486  0.0914
  115OSM   H18F12071   1.014   5.353   8.087  0.8598 -0.0175  0.8038
  115OSM   H18G12072   1.158   5.274   8.038  0.0834  2.4562  1.6102
  115OSM   H18H12073   1.051   5.201   8.166  1.3693  1.5981  1.0527
  116OSM      N12074   0.026   0.267   5.954 -0.2262 -0.0493 -0.6793
  116OSM    C1512075   0.053   0.408   5.902  0.0495  0.1041 -0.4865
  116OSM   H15A12076   0.078   0.479   5.980  2.4485  0.9029 -1.8570
  116OSM   H15B12077  -0.043   0.440   5.866  0.0106  1.9292  1.0751
  116OSM   H15C12078   0.124   0.417   5.822 -0.1044  0.9889 -0.5267
  116OSM    C1412079  -0.073   0.277   6.061  0.6685 -0.0222  0.0853
  116OSM   H14A12080  -0.087   0.178   6.101 -0.0041 -0.6105 -1.5249
  116OSM   H14B12081  -0.168   0.301   6.015  0.3717 -0.3587  0.5228
  116OSM   H14C12082  -0.047   0.340   6.144 -0.0634  0.4612 -0.0338
  116OSM    C1312083  -0.027   0.190   5.838 -0.6502  0.3823  0.0695
  116OSM   H13A12084  -0.038   0.084   5.856 -1.5052  0.2460 -1.1272
  116OSM   H13B12085   0.039   0.200   5.753  1.3248  0.6948  1.5664
  116OSM   H13C12086  -0.121   0.232   5.805 -1.4085 -2.8699 -2.4598
  116OSM    C1212087   0.160   0.209   6.002  0.3602 -0.0799  0.1966
  116OSM   H12A12088   0.228   0.208   5.918  2.1273 -0.4906  1.5796
  116OSM   H12B12089   0.145   0.104   6.018  1.8654 -0.4765 -0.8145
  116OSM    C1112090   0.230   0.277   6.125 -0.6429  0.0664  0.0344
  116OSM   H11A12091   0.231   0.386   6.103  1.6569 -0.6281 -4.1778
  116OSM   H11B12092   0.330   0.229   6.126 -1.9289 -2.8379 -0.1813
  116OSM      P12093   0.165   0.106   6.306 -0.7497  0.2036  0.6653
  116OSM    O1312094   0.065   0.090   6.407  0.2368  0.1715  0.5686
  116OSM    O1412095   0.172   0.008   6.195 -0.1864 -0.6800  0.7194
  116OSM    O1112096   0.303   0.108   6.379  0.4453 -0.6800  0.1421
  116OSM    O1212097   0.157   0.248   6.243 -0.2254 -0.0642  0.5803
  116OSM    C1S12098   0.339   0.227   6.458 -0.5076  0.4025  0.4001
  116OSM    H1S12099   0.326   0.325   6.407  1.2301 -0.3506 -1.6561
  116OSM    H1T12100   0.450   0.231   6.461 -0.2397 -2.9572 -0.7525
  116OSM     NF12101   0.329   0.358   6.662  0.1884 -0.2285  0.4330
  116OSM    HNF12102   0.412   0.344   6.714  0.5201 -4.0520 -0.8205
  116OSM    C2S12103   0.278   0.245   6.598 -0.0543 -0.4216  0.5842
  116OSM    H2S12104   0.169   0.268   6.588 -0.3016 -1.1871  1.3896
  116OSM    C3S12105   0.310   0.117   6.678 -0.5086 -0.2105  0.6210
  116OSM    H3S12106   0.420   0.112   6.692 -0.6134 -2.3515  1.0296
  116OSM     O312107   0.281  -0.016   6.621  0.0124 -0.2057  0.3017
  116OSM    HO312108   0.277   0.001   6.526  0.6097  0.4875  0.3993
  116OSM    C4S12109   0.252   0.142   6.818 -0.1771  0.1794 -0.4611
  116OSM    H4S12110   0.325   0.192   6.883 -0.6580 -0.9028  0.9623
  116OSM    C5S12111   0.133   0.111   6.869  0.2455  0.3007  0.0346
  116OSM    H5S12112   0.059   0.055   6.811 -1.3941  0.9451  1.4204
  116OSM    C6S12113   0.089   0.146   7.010  0.4079 -0.6618  0.3572
  116OSM    H6S12114   0.025   0.064   7.048 -1.9472  0.3359 -1.1936
  116OSM    H6T12115   0.034   0.242   6.997  2.9943  0.9140  0.2735
  116OSM    C7S12116   0.189   0.170   7.117 -0.4737  0.1174 -0.3197
  116OSM    H7S12117   0.240   0.266   7.096 -0.3074 -0.2146 -1.5202
  116OSM    H7T12118   0.251   0.079   7.136  0.5720  0.9563  0.3819
  116OSM    C8S12119   0.107   0.179   7.249  0.3565 -0.1272 -0.2102
  116OSM    H8S12120   0.046   0.086   7.243  0.2011  0.0450 -1.5715
  116OSM    H8T12121   0.035   0.263   7.235  0.1637 -0.3401 -0.5091
  116OSM    C9S12122   0.194   0.195   7.371  0.7719  0.3393 -0.5236
  116OSM    H9S12123   0.256   0.286   7.358  0.5220  0.5631 -0.1715
  116OSM    H9T12124   0.269   0.112   7.370  1.3459  0.8549 -1.0710
  116OSM   C10S12125   0.117   0.199   7.502 -0.5630  0.0418  0.4266
  116OSM   H10S12126   0.078   0.097   7.525 -0.0397 -0.0314  1.0171
  116OSM   H10T12127   0.032   0.269   7.503 -0.8743 -0.2054 -2.1607
  116OSM   C11S12128   0.219   0.240   7.615 -0.0192 -0.2585  0.1340
  116OSM   H11S12129   0.246   0.348   7.608 -1.0212 -0.0536 -0.9614
  116OSM   H11T12130   0.305   0.171   7.614  2.1257  2.2295  1.3600
  116OSM   C12S12131   0.151   0.216   7.749 -0.0948 -0.4210  0.6117
  116OSM   H12S12132   0.124   0.109   7.760  1.8046 -1.0708 -0.4398
  116OSM   H12T12133   0.056   0.272   7.736  1.2949  1.7598 -0.7303
  116OSM   C13S12134   0.233   0.254   7.870 -0.2396 -0.2650  0.4004
  116OSM   H13S12135   0.242   0.364   7.866  0.6562 -0.3410  0.1705
  116OSM   H13T12136   0.330   0.200   7.865 -1.3346 -2.2159 -1.2155
  116OSM   C14S12137   0.162   0.221   8.003 -0.6199 -0.3129 -0.5123
  116OSM   H14S12138   0.060   0.264   8.013  0.2168  1.7578 -0.5285
  116OSM   H14T12139   0.222   0.274   8.081  1.0550 -1.0916 -1.2196
  116OSM   C15S12140   0.153   0.071   8.051  0.6360 -0.5756 -0.5406
  116OSM   H15S12141   0.252   0.021   8.060 -0.4594 -2.6870  0.3986
  116OSM   H15T12142   0.107   0.004   7.976  1.2074 -1.9304  0.2888
  116OSM   C16S12143   0.091   0.067   8.199  0.3200 -0.0372  0.2091
  116OSM   H16S12144   0.013   0.146   8.203  0.2621 -0.1009  0.3436
  116OSM   H16T12145   0.170   0.105   8.268  0.5700  3.2230 -1.6746
  116OSM   C17S12146   0.052  -0.080   8.236 -0.1092 -0.3153  0.6865
  116OSM   H17S12147  -0.028  -0.112   8.165 -0.5910  1.7676  0.2121
  116OSM   H17T12148  -0.001  -0.081   8.334  1.0400 -2.3582  1.3451
  116OSM   C18S12149   0.162  -0.184   8.242  0.3857 -0.3604  0.4167
  116OSM   H18S12150   0.129  -0.288   8.263 -1.2611 -0.6152 -2.8022
  116OSM   H18T12151   0.235  -0.151   8.319 -0.9158 -0.4458  1.7373
  116OSM   H18U12152   0.217  -0.181   8.146  1.1396  1.5445  0.8768
  116OSM    C1F12153   0.302   0.480   6.626  0.5396 -0.2506  0.0203
  116OSM     OF12154   0.206   0.505   6.555 -0.2768  0.1456 -0.1269
  116OSM    C2F12155   0.385   0.591   6.683  0.5650  0.1269 -0.2481
  116OSM    H2F12156   0.421   0.654   6.600 -2.8013  1.5405 -0.7763
  116OSM    H2G12157   0.459   0.552   6.757 -0.4839 -0.7957  0.3524
  116OSM    C3F12158   0.284   0.687   6.775 -0.4515  0.1390  0.0753
  116OSM    H3F12159   0.200   0.731   6.717 -1.2694 -1.6114 -0.1353
  116OSM    H3G12160   0.348   0.774   6.802 -1.0485  1.3182 -2.0844
  116OSM    C4F12161   0.224   0.612   6.889 -0.4663 -0.9075  0.4479
  116OSM    H4F12162   0.293   0.539   6.936  1.0176 -0.7646 -1.4259
  116OSM    H4G12163   0.139   0.551   6.850 -0.1674 -1.0942  0.0804
  116OSM    C5F12164   0.166   0.709   6.997 -0.1497  0.0805  0.3338
  116OSM    H5F12165   0.070   0.736   6.949 -1.3390 -1.3917  1.7413
  116OSM    H5G12166   0.242   0.789   7.007 -0.0199  0.1783 -1.1827
  116OSM    C6F12167   0.123   0.653   7.130 -0.8323  0.2920  0.1410
  116OSM    H6F12168   0.050   0.572   7.107 -0.5607  0.3026 -0.7741
  116OSM    H6G12169   0.057   0.731   7.176 -0.9747  0.2135  0.0711
  116OSM    C7F12170   0.228   0.631   7.237 -0.4395  0.2792 -0.1293
  116OSM    H7F12171   0.302   0.713   7.233  0.8778 -0.8651 -0.1104
  116OSM    H7G12172   0.284   0.537   7.217 -2.0813 -1.8458  4.1169
  116OSM    C8F12173   0.180   0.618   7.385 -0.1446 -0.6339 -0.5403
  116OSM    H8F12174   0.260   0.580   7.452 -1.5850 -0.1713  1.5482
  116OSM    H8G12175   0.091   0.550   7.385 -0.9366  0.2765  2.2046
  116OSM    C9F12176   0.139   0.757   7.429  0.3393  1.3425  0.1369
  116OSM    H9F12177   0.156   0.833   7.351  0.2095  1.0085 -0.2194
  116OSM   C10F12178   0.081   0.788   7.546 -0.3841  0.6742  0.4698
  116OSM   H10F12179   0.064   0.895   7.563 -2.7229  0.2172  1.3732
  116OSM   C11F12180   0.036   0.699   7.657 -0.4170 -0.0608  0.7344
  116OSM   H11F12181   0.063   0.596   7.625  3.1507  1.2656 -1.0540
  116OSM   H11G12182  -0.074   0.709   7.670 -0.3683  0.4971  0.7339
  116OSM   C12F12183   0.090   0.737   7.789 -0.4513  0.0089 -0.2498
  116OSM   H12F12184   0.083   0.843   7.821  0.8649  1.0437 -3.0432
  116OSM   H12G12185   0.200   0.726   7.776 -0.2003  1.7491  0.2425
  116OSM   C13F12186   0.044   0.649   7.904 -0.3614  0.5941 -0.0985
  116OSM   H13F12187   0.041   0.541   7.877  1.4669  0.3654  0.4694
  116OSM   H13G12188  -0.063   0.676   7.918 -0.9423 -1.5933  0.0661
  116OSM   C14F12189   0.125   0.669   8.025 -0.2084 -0.3875  0.1946
  116OSM   H14F12190   0.132   0.777   8.054  2.3147 -1.0427  2.3867
  116OSM   H14G12191   0.234   0.656   8.011 -0.3904 -0.2421 -1.6374
  116OSM   C15F12192   0.058   0.605   8.147 -0.4130 -0.0725 -0.2798
  116OSM   H15F12193   0.023   0.504   8.119  2.6513 -0.9534 -1.3443
  116OSM   H15G12194  -0.014   0.670   8.202 -0.8097 -1.7609  1.3069
  116OSM   C16F12195   0.167   0.589   8.255 -0.7311 -0.1375  0.5230
  116OSM   H16F12196   0.208   0.689   8.282 -0.6133  0.0042 -0.1481
  116OSM   H16G12197   0.242   0.528   8.201 -2.5086 -3.1460  1.2503
  116OSM   C17F12198   0.133   0.510   8.378  0.0945 -1.3317  0.4737
  116OSM   H17F12199   0.223   0.483   8.436  0.2659 -2.3400 -0.2415
  116OSM   H17G12200   0.082   0.413   8.362  1.6012 -1.8019 -2.0928
  116OSM   C18F12201   0.057   0.602   8.471  0.6899 -0.0724  0.5780
  116OSM   H18F12202  -0.050   0.616   8.443  0.7255 -0.7647  0.0486
  116OSM   H18G12203   0.114   0.696   8.483  0.3549  0.1224  0.6696
  116OSM   H18H12204   0.053   0.556   8.572 -0.9556 -1.6736 -0.1600
  117OSM      N12205   0.300   3.001   6.239  0.6784 -0.1923  0.6604
  117OSM    C1512206   0.277   2.854   6.272 -0.0268  0.2674 -0.6854
  117OSM   H15A12207   0.185   2.833   6.324  2.2161 -1.5011  2.9954
  117OSM   H15B12208   0.364   2.817   6.324  0.4274 -0.0564 -1.6548
  117OSM   H15C12209   0.274   2.805   6.176  1.1621  1.0574 -1.1451
  117OSM    C1412210   0.430   3.016   6.165  0.2460 -0.7467 -0.5402
  117OSM   H14A12211   0.406   2.973   6.069 -1.4626 -1.5693  0.2147
  117OSM   H14B12212   0.514   2.967   6.214  1.8984  0.5055 -1.9881
  117OSM   H14C12213   0.446   3.122   6.156 -2.1496 -0.2832  0.1991
  117OSM    C1312214   0.185   3.048   6.149 -0.4629 -0.5670 -0.3437
  117OSM   H13A12215   0.087   3.040   6.195 -1.6581 -0.0035 -2.6063
  117OSM   H13B12216   0.165   2.982   6.066  0.1279 -0.2384 -0.7531
  117OSM   H13C12217   0.203   3.148   6.110  0.9547 -0.2351  1.0992
  117OSM    C1212218   0.305   3.088   6.360 -0.7117 -0.4074 -0.2677
  117OSM   H12A12219   0.400   3.069   6.408 -1.0340  1.0624  1.0277
  117OSM   H12B12220   0.221   3.064   6.423  0.4750  0.5747  1.7853
  117OSM    C1112221   0.285   3.238   6.341  0.1318 -0.3650  0.0740
  117OSM   H11A12222   0.273   3.284   6.442 -4.0047 -1.0831  0.0942
  117OSM   H11B12223   0.182   3.250   6.302  0.2458  1.1146  0.1880
  117OSM      P12224   0.498   3.378   6.291 -0.2476  0.0006  0.3747
  117OSM    O1312225   0.621   3.294   6.265 -0.2750  0.0850  0.4623
  117OSM    O1412226   0.489   3.508   6.222 -0.3755  0.4177 -0.2470
  117OSM    O1112227   0.495   3.401   6.449 -0.4966 -0.0930  0.4734
  117OSM    O1212228   0.372   3.299   6.251  0.6828 -0.5205  0.4063
  117OSM    C1S12229   0.411   3.509   6.503  0.1078  0.0304  0.1679
  117OSM    H1S12230   0.306   3.494   6.468  1.6168 -0.1902 -5.1124
  117OSM    H1T12231   0.434   3.608   6.457 -0.6353  0.0184 -0.2529
  117OSM     NF12232   0.332   3.643   6.707  0.7498  0.0589 -0.4269
  117OSM    HNF12233   0.378   3.730   6.724 -2.4504  1.8134 -0.0788
  117OSM    C2S12234   0.408   3.524   6.661 -0.5171 -0.5565 -0.6089
  117OSM    H2S12235   0.354   3.433   6.695  1.9028 -1.6285  0.6348
  117OSM    C3S12236   0.550   3.518   6.726  0.6748  0.0267 -0.2040
  117OSM    H3S12237   0.597   3.618   6.717  0.9561 -0.2690 -2.9307
  117OSM     O312238   0.642   3.435   6.660  0.2149  0.5150 -0.2729
  117OSM    HO312239   0.597   3.406   6.581 -0.6036  1.2068 -0.0824
  117OSM    C4S12240   0.541   3.484   6.879 -0.6493 -0.3149 -0.6255
  117OSM    H4S12241   0.508   3.381   6.898 -4.5946  0.5471 -1.7541
  117OSM    C5S12242   0.601   3.558   6.981  0.7496  0.1483  0.5463
  117OSM    H5S12243   0.633   3.661   6.962 -1.1166  1.0165  1.8221
  117OSM    C6S12244   0.606   3.515   7.129 -0.0774  0.0619  0.1965
  117OSM    H6S12245   0.694   3.446   7.129  0.8158  1.1648  0.6151
  117OSM    H6T12246   0.519   3.460   7.170 -0.6694  1.4553  0.8882
  117OSM    C7S12247   0.630   3.635   7.218 -0.4281  0.3446 -0.2988
  117OSM    H7S12248   0.535   3.693   7.220 -1.3276 -0.9330 -2.4957
  117OSM    H7T12249   0.714   3.696   7.179  0.5348 -1.4163 -1.0798
  117OSM    C8S12250   0.649   3.581   7.363  0.1467  0.4629  0.0346
  117OSM    H8S12251   0.590   3.488   7.376  2.2932 -0.8805  0.8550
  117OSM    H8T12252   0.609   3.655   7.435 -0.9325  1.2203 -1.3023
  117OSM    C9S12253   0.796   3.545   7.382  0.3832  0.1596  0.1423
  117OSM    H9S12254   0.846   3.629   7.329 -2.0780  2.5932  1.4126
  117OSM    H9T12255   0.815   3.444   7.341 -0.2873 -0.3502  1.0287
  117OSM   C10S12256   0.841   3.542   7.525  1.1864 -0.4966  0.3950
  117OSM   H10S12257   0.944   3.500   7.526  1.2593 -0.3216  0.9462
  117OSM   H10T12258   0.780   3.473   7.587 -0.5716  0.2978 -0.3645
  117OSM   C11S12259   0.837   3.682   7.582 -0.1263  0.0540 -0.9173
  117OSM   H11S12260   0.736   3.728   7.590  0.1508  0.7116 -1.1377
  117OSM   H11T12261   0.894   3.757   7.523  2.5133 -0.0898  1.2460
  117OSM   C12S12262   0.896   3.681   7.726 -0.2608  0.3966 -0.6524
  117OSM   H12S12263   1.002   3.650   7.732 -0.7638 -1.2857  0.6649
  117OSM   H12T12264   0.854   3.597   7.786 -2.0653  1.1398 -0.7991
  117OSM   C13S12265   0.872   3.807   7.812  0.7310 -0.8110  0.0359
  117OSM   H13S12266   0.889   3.893   7.744  1.7008 -1.2478 -0.2964
  117OSM   H13T12267   0.953   3.818   7.887  1.4646 -2.0094 -0.5422
  117OSM   C14S12268   0.732   3.809   7.883 -0.5797 -0.3690  0.4785
  117OSM   H14S12269   0.737   3.749   7.977 -2.9534 -1.0633  0.2278
  117OSM   H14T12270   0.655   3.769   7.813 -0.2898 -0.6435  0.3098
  117OSM   C15S12271   0.696   3.954   7.921  0.9935 -0.3291 -1.0336
  117OSM   H15S12272   0.655   4.001   7.830 -0.8117 -0.7682 -0.4812
  117OSM   H15T12273   0.789   4.011   7.944  1.1236 -0.5274 -1.0570
  117OSM   C16S12274   0.597   3.955   8.037  0.2341  0.4670  0.1107
  117OSM   H16S12275   0.638   3.942   8.140  0.5673  2.9807  0.3372
  117OSM   H16T12276   0.516   3.886   8.005  1.4364 -1.2536  0.5818
  117OSM   C17S12277   0.531   4.090   8.034  0.9012  0.2912 -0.5087
  117OSM   H17S12278   0.490   4.103   7.931 -1.1320  4.1886  0.5772
  117OSM   H17T12279   0.601   4.174   8.052 -0.7379  1.1394  2.8064
  117OSM   C18S12280   0.412   4.100   8.133 -0.0435 -0.2505  0.4089
  117OSM   H18S12281   0.328   4.034   8.103  0.6988 -0.9760 -0.1060
  117OSM   H18T12282   0.380   4.204   8.154  3.0312  0.1033  4.6827
  117OSM   H18U12283   0.445   4.065   8.233  1.2582 -1.5967 -0.4488
  117OSM    C1F12284   0.202   3.645   6.686  0.7565 -0.0524 -0.0945
  117OSM     OF12285   0.136   3.558   6.635 -0.2142 -0.0163 -0.4568
  117OSM    C2F12286   0.125   3.765   6.716  0.1863 -1.0823  0.3024
  117OSM    H2F12287   0.181   3.861   6.712  0.4282 -1.2234  0.2451
  117OSM    H2G12288   0.065   3.768   6.810 -1.0975 -0.7441 -0.5082
  117OSM    C3F12289   0.014   3.803   6.608 -0.5666  0.7908  0.1637
  117OSM    H3F12290  -0.042   3.708   6.595  1.5061 -0.4723  0.0201
  117OSM    H3G12291   0.073   3.836   6.520 -1.4027  2.0675  0.0587
  117OSM    C4F12292  -0.094   3.905   6.646  0.5471 -0.0766  0.1000
  117OSM    H4F12293  -0.137   3.860   6.738 -0.8524 -0.5081 -0.7347
  117OSM    H4G12294  -0.175   3.902   6.571  2.3007  1.0605 -1.9484
  117OSM    C5F12295  -0.044   4.045   6.664 -0.0223 -0.2756  0.2310
  117OSM    H5F12296  -0.010   4.082   6.565 -2.4937 -1.8203 -1.2897
  117OSM    H5G12297   0.048   4.048   6.727  2.1329 -0.9650 -2.6985
  117OSM    C6F12298  -0.163   4.131   6.708  0.0258  0.1185 -0.1232
  117OSM    H6F12299  -0.250   4.119   6.640  1.5902  2.5447 -2.7995
  117OSM    H6G12300  -0.122   4.232   6.686  0.8444 -0.1742  0.0308
  117OSM    C7F12301  -0.188   4.115   6.858 -0.3458  0.4341  0.9082
  117OSM    H7F12302  -0.195   4.219   6.898  1.1391  0.4211  1.2604
  117OSM    H7G12303  -0.098   4.062   6.896  0.6988  1.2260 -0.3751
  117OSM    C8F12304  -0.313   4.030   6.899  0.4353 -0.3546 -0.1221
  117OSM    H8F12305  -0.313   3.936   6.840 -0.3296 -0.3377 -0.1637
  117OSM    H8G12306  -0.406   4.080   6.865  0.8564 -0.1021 -0.9284
  117OSM    C9F12307  -0.315   4.023   7.052  0.2087 -0.8899 -1.0079
  117OSM    H9F12308  -0.221   3.973   7.078 -1.0400 -2.8630 -0.0220
  117OSM   C10F12309  -0.406   4.057   7.148  0.2352 -0.3661  0.5571
  117OSM   H10F12310  -0.366   4.048   7.250  2.3015 -1.4542 -0.2758
  117OSM   C11F12311  -0.538   4.130   7.127  0.0257 -0.3647 -0.6269
  117OSM   H11F12312  -0.611   4.082   7.196 -0.0338  0.0858 -0.3661
  117OSM   H11G12313  -0.564   4.123   7.020 -1.5416  2.3515 -0.5147
  117OSM   C12F12314  -0.543   4.285   7.152 -0.6617 -0.4401 -0.8087
  117OSM   H12F12315  -0.643   4.323   7.123 -0.5041  1.0476  0.4828
  117OSM   H12G12316  -0.476   4.333   7.077  0.1135  2.7583  1.7281
  117OSM   C13F12317  -0.502   4.337   7.292 -0.0507 -0.2878  0.3769
  117OSM   H13F12318  -0.511   4.447   7.303 -1.4822 -0.4361  1.0261
  117OSM   H13G12319  -0.395   4.320   7.317  0.4530  1.3725 -0.5298
  117OSM   C14F12320  -0.611   4.289   7.398 -0.5273  0.2368  0.8101
  117OSM   H14F12321  -0.621   4.178   7.400  1.0120  0.0914  2.6437
  117OSM   H14G12322  -0.710   4.325   7.362  0.9289  1.2517 -2.6157
  117OSM   C15F12323  -0.595   4.343   7.537  0.3792 -0.2394  0.7731
  117OSM   H15F12324  -0.589   4.453   7.522 -0.8449 -0.1820  0.6634
  117OSM   H15G12325  -0.500   4.308   7.585  0.2507 -1.3996  0.2164
  117OSM   C16F12326  -0.728   4.334   7.615 -0.1259 -0.4185 -0.1792
  117OSM   H16F12327  -0.752   4.229   7.642 -2.6052  0.0247 -0.4448
  117OSM   H16G12328  -0.819   4.371   7.563 -0.5226  1.3470  1.6233
  117OSM   C17F12329  -0.723   4.416   7.747  0.1822  0.0516  0.1272
  117OSM   H17F12330  -0.693   4.520   7.723 -0.9312 -0.1030 -2.2631
  117OSM   H17G12331  -0.823   4.433   7.792  0.1212  2.0998 -0.7218
  117OSM   C18F12332  -0.624   4.357   7.848  0.0337  0.0416  0.4447
  117OSM   H18F12333  -0.654   4.376   7.953  0.5549 -0.0126  0.6085
  117OSM   H18G12334  -0.524   4.404   7.835  0.4258 -0.7107  0.6554
  117OSM   H18H12335  -0.596   4.254   7.819  2.5436 -0.0820  2.8943
  118OSM      N12336   0.488   5.471   5.794 -0.0474  0.6460 -0.3037
  118OSM    C1512337   0.498   5.599   5.864 -0.1352 -0.1266 -0.0308
  118OSM   H15A12338   0.507   5.695   5.816  2.1416  1.6296  3.4494
  118OSM   H15B12339   0.591   5.609   5.917 -0.5154  2.3087  0.2937
  118OSM   H15C12340   0.411   5.613   5.927 -0.0223  2.3949 -0.3250
  118OSM    C1412341   0.364   5.464   5.714 -0.5727 -0.6615 -0.1294
  118OSM   H14A12342   0.373   5.388   5.638  0.0109 -0.3388 -0.3878
  118OSM   H14B12343   0.336   5.556   5.664 -2.1068 -0.1827  1.4996
  118OSM   H14C12344   0.277   5.437   5.773 -1.1521 -0.1837 -0.7384
  118OSM    C1312345   0.608   5.452   5.697 -0.3131 -0.7625 -0.1058
  118OSM   H13A12346   0.606   5.519   5.613  0.7407  0.4537  0.8005
  118OSM   H13B12347   0.626   5.353   5.656  1.8580  0.6338 -2.8214
  118OSM   H13C12348   0.693   5.478   5.757 -1.5700 -2.1025  2.4295
  118OSM    C1212349   0.504   5.350   5.883  0.0748 -0.3007 -0.7955
  118OSM   H12A12350   0.610   5.349   5.904  0.7339 -0.7332 -3.7956
  118OSM   H12B12351   0.491   5.258   5.829 -2.3575  0.1281 -1.0717
  118OSM    C1112352   0.431   5.342   6.019  0.1391 -0.0162 -0.2147
  118OSM   H11A12353   0.459   5.427   6.086 -1.1941 -0.3262  0.7878
  118OSM   H11B12354   0.464   5.255   6.080  2.2611  0.5943 -0.3977
  118OSM      P12355   0.181   5.419   6.082 -0.0942 -0.0938 -0.4989
  118OSM    O1312356   0.208   5.567   6.072 -0.1843  0.2913  0.3410
  118OSM    O1412357   0.044   5.375   6.055  0.0313  0.0181 -0.3399
  118OSM    O1112358   0.216   5.376   6.229  0.2022 -0.0285 -0.3921
  118OSM    O1212359   0.290   5.331   6.007  0.3696  0.3135 -0.1977
  118OSM    C1S12360   0.202   5.239   6.263 -0.2476 -0.1899 -0.0605
  118OSM    H1S12361   0.293   5.187   6.227 -1.5078 -1.2266 -1.9487
  118OSM    H1T12362   0.113   5.192   6.216  0.5793 -0.9156 -0.9352
  118OSM     NF12363   0.182   5.081   6.463 -0.0151 -0.0324 -0.0536
  118OSM    HNF12364   0.103   5.021   6.453  1.1030 -1.9449  1.8334
  118OSM    C2S12365   0.175   5.221   6.419  0.1063  0.0937 -0.3678
  118OSM    H2S12366   0.259   5.270   6.473  1.2364 -1.2956 -0.8232
  118OSM    C3S12367   0.048   5.304   6.465 -0.5177 -0.1624  0.8037
  118OSM    H3S12368  -0.039   5.261   6.411 -0.7015  0.4904  0.5765
  118OSM     O312369   0.050   5.441   6.425 -0.2848  0.1387 -0.3476
  118OSM    HO312370   0.104   5.435   6.346  1.0189  1.3390  0.4258
  118OSM    C4S12371   0.027   5.284   6.617  0.6345  0.1342 -0.2168
  118OSM    H4S12372   0.003   5.184   6.655 -0.2672  0.1620 -0.6755
  118OSM    C5S12373   0.040   5.376   6.714 -0.4678 -0.6808 -0.5878
  118OSM    H5S12374   0.066   5.481   6.693 -0.2335 -0.7592 -0.6988
  118OSM    C6S12375   0.006   5.364   6.860  0.0593  0.2993  0.5980
  118OSM    H6S12376  -0.088   5.421   6.876 -0.1513  0.2655 -0.4213
  118OSM    H6T12377   0.076   5.412   6.932 -2.2708  0.6428  2.7928
  118OSM    C7S12378   0.002   5.220   6.915  0.2063 -0.4415  0.0574
  118OSM    H7S12379   0.091   5.161   6.883  0.7581  1.3131 -1.9522
  118OSM    H7T12380  -0.090   5.173   6.875 -0.8444  2.0757 -0.7384
  118OSM    C8S12381  -0.012   5.212   7.070  0.1419 -0.1241  1.2708
  118OSM    H8S12382  -0.039   5.110   7.105  0.4296 -0.1678  1.3632
  118OSM    H8T12383  -0.097   5.274   7.107  1.9303  3.9926 -0.8201
  118OSM    C9S12384   0.110   5.243   7.156 -0.3291  0.5309 -0.2580
  118OSM    H9S12385   0.150   5.343   7.130  0.3793 -0.1752 -2.1576
  118OSM    H9T12386   0.192   5.172   7.130 -1.4827 -1.4072  1.1666
  118OSM   C10S12387   0.089   5.235   7.307  0.2254 -0.2609  0.0845
  118OSM   H10S12388   0.063   5.131   7.336 -1.1708 -0.0164 -0.2445
  118OSM   H10T12389   0.001   5.296   7.334  1.4500  1.6822 -0.0989
  118OSM   C11S12390   0.207   5.289   7.390  0.2703  0.2667  0.1452
  118OSM   H11S12391   0.210   5.399   7.376  0.7831 -0.0099 -2.2877
  118OSM   H11T12392   0.295   5.250   7.334 -0.2241 -1.2156  0.3537
  118OSM   C12S12393   0.215   5.246   7.537 -0.0332 -0.0320  0.9911
  118OSM   H12S12394   0.207   5.135   7.529 -1.4503  0.0633  0.8199
  118OSM   H12T12395   0.113   5.269   7.576 -0.0817  1.0160  0.2873
  118OSM   C13S12396   0.322   5.309   7.629 -0.1624 -0.2660  0.3252
  118OSM   H13S12397   0.322   5.416   7.658 -0.0214 -0.4804  1.1679
  118OSM   H13T12398   0.407   5.283   7.562 -2.1319 -2.2638 -1.5626
  118OSM   C14S12399   0.349   5.244   7.765  0.2867 -0.3218  0.1000
  118OSM   H14S12400   0.445   5.279   7.807 -0.5482  1.1946  0.8400
  118OSM   H14T12401   0.360   5.135   7.750  0.3105 -0.3797  0.5266
  118OSM   C15S12402   0.234   5.260   7.858  0.2716 -0.0291 -0.1244
  118OSM   H15S12403   0.145   5.196   7.843  1.0233 -0.9702 -0.7000
  118OSM   H15T12404   0.193   5.362   7.842 -0.0709 -0.0720  0.4446
  118OSM   C16S12405   0.274   5.260   8.005  0.3269  0.2054 -0.6892
  118OSM   H16S12406   0.184   5.289   8.063  2.5120  0.7687  2.7183
  118OSM   H16T12407   0.362   5.327   8.012  2.9857 -3.1572  1.9879
  118OSM   C17S12408   0.331   5.130   8.059  0.1966  0.2497  0.1199
  118OSM   H17S12409   0.429   5.113   8.008  0.8294 -1.8144  1.8663
  118OSM   H17T12410   0.257   5.052   8.031  0.2010  0.7660 -1.4413
  118OSM   C18S12411   0.348   5.129   8.210  0.1759  0.0075  0.4660
  118OSM   H18S12412   0.259   5.154   8.272 -0.3069 -1.5648  0.4612
  118OSM   H18T12413   0.431   5.196   8.240 -1.2016  2.2164 -0.3775
  118OSM   H18U12414   0.378   5.025   8.234 -2.6567 -1.4501 -1.7511
  118OSM    C1F12415   0.297   5.023   6.465  0.4623 -0.2007 -0.6462
  118OSM     OF12416   0.395   5.079   6.417  0.1933  0.5287 -0.2310
  118OSM    C2F12417   0.302   4.880   6.528  0.3710 -0.1174  0.3930
  118OSM    H2F12418   0.378   4.824   6.470 -1.2383 -2.0947  0.0714
  118OSM    H2G12419   0.202   4.830   6.521 -0.6986  1.8239  1.0042
  118OSM    C3F12420   0.349   4.889   6.670 -0.1872  0.1305 -0.0314
  118OSM    H3F12421   0.270   4.938   6.730 -0.2096  0.2492 -0.1573
  118OSM    H3G12422   0.450   4.934   6.675 -1.0013  2.1985 -0.8237
  118OSM    C4F12423   0.369   4.748   6.733  0.1703 -0.1189  0.2099
  118OSM    H4F12424   0.425   4.686   6.660 -0.0231 -0.4151  0.3132
  118OSM    H4G12425   0.273   4.694   6.748  1.0041 -2.0574 -1.0801
  118OSM    C5F12426   0.437   4.765   6.877 -0.1244 -0.0340  0.2505
  118OSM    H5F12427   0.544   4.792   6.870  0.4508 -2.4907 -2.0408
  118OSM    H5G12428   0.437   4.664   6.923  0.9063 -0.5082 -0.7322
  118OSM    C6F12429   0.365   4.858   6.977 -0.3309 -0.2260 -0.5548
  118OSM    H6F12430   0.254   4.853   6.977 -0.3179 -0.6452  0.1015
  118OSM    H6G12431   0.396   4.961   6.948 -0.7204  0.6515  1.9378
  118OSM    C7F12432   0.412   4.836   7.129 -0.5261 -0.2920  0.3783
  118OSM    H7F12433   0.518   4.862   7.107 -0.9216  1.0191 -0.0446
  118OSM    H7G12434   0.402   4.728   7.153 -2.3344 -0.5035 -1.1059
  118OSM    C8F12435   0.341   4.913   7.233  0.4459 -0.2971 -0.5068
  118OSM    H8F12436   0.352   5.022   7.213 -0.4898  0.4516  2.5905
  118OSM    H8G12437   0.404   4.894   7.322  1.4307  1.8107 -0.6768
  118OSM    C9F12438   0.198   4.876   7.263 -0.5504 -0.3829  0.2957
  118OSM    H9F12439   0.126   4.905   7.185 -0.5277  1.2449  0.8484
  118OSM   C10F12440   0.142   4.803   7.357  0.4528  0.1123 -0.4844
  118OSM   H10F12441   0.035   4.780   7.341  0.8210 -1.2621 -1.1329
  118OSM   C11F12442   0.216   4.725   7.458 -0.6872  0.0371 -0.1805
  118OSM   H11F12443   0.324   4.710   7.440 -0.7402 -0.9872  0.2533
  118OSM   H11G12444   0.188   4.618   7.464 -1.6699  0.2863 -0.0897
  118OSM   C12F12445   0.219   4.803   7.597 -0.2752  0.3057 -0.0811
  118OSM   H12F12446   0.249   4.907   7.570  1.1784 -0.2596 -0.7674
  118OSM   H12G12447   0.296   4.762   7.666  0.1716  2.0054  0.4879
  118OSM   C13F12448   0.086   4.804   7.670 -0.5228 -0.1266 -0.2599
  118OSM   H13F12449   0.046   4.700   7.677 -0.7242  0.0608  1.8524
  118OSM   H13G12450   0.013   4.858   7.605 -0.5636 -0.6503 -0.6597
  118OSM   C14F12451   0.091   4.865   7.809 -0.0571  0.1575  0.6002
  118OSM   H14F12452   0.138   4.966   7.810  0.6488 -0.1410  2.6643
  118OSM   H14G12453   0.163   4.804   7.869  0.4914  0.4716  0.2643
  118OSM   C15F12454  -0.046   4.883   7.869 -0.6433  0.3360  0.3046
  118OSM   H15F12455  -0.093   4.785   7.845  0.1402  0.3570 -1.4963
  118OSM   H15G12456  -0.102   4.960   7.811  0.3500 -0.2300 -1.4794
  118OSM   C16F12457  -0.042   4.908   8.024  0.1240 -0.4997 -0.5546
  118OSM   H16F12458   0.005   5.006   8.044  3.5989 -2.3482  1.2974
  118OSM   H16G12459   0.017   4.829   8.076  0.3233 -0.7577 -1.1629
  118OSM   C17F12460  -0.192   4.904   8.069 -0.1205 -0.0231  0.5917
  118OSM   H17F12461  -0.219   4.801   8.038  2.5427 -0.0725 -2.0491
  118OSM   H17G12462  -0.263   4.964   8.007  1.5101  0.5191 -0.8435
  118OSM   C18F12463  -0.212   4.929   8.213 -0.7650 -0.6045 -0.2584
  118OSM   H18F12464  -0.175   5.028   8.248 -0.7169  0.3936 -2.8418
  118OSM   H18G12465  -0.155   4.861   8.279 -0.3296 -0.1164 -0.1275
  118OSM   H18H12466  -0.320   4.911   8.236 -1.3144  2.2655 -0.2447
  119OSM      N12467   1.994   3.610   5.967  0.0742 -0.9404 -0.2853
  119OSM    C1512468   1.877   3.556   5.893 -1.0500 -0.7289  0.3675
  119OSM   H15A12469   1.786   3.611   5.913 -1.9571 -1.4684 -1.4162
  119OSM   H15B12470   1.858   3.454   5.921  0.5640 -1.4888 -1.1204
  119OSM   H15C12471   1.900   3.556   5.787 -0.2440  1.4729  0.4848
  119OSM    C1412472   2.113   3.512   5.965 -0.3773  0.3135 -0.8189
  119OSM   H14A12473   2.152   3.511   5.864 -0.9386  0.5930 -1.0412
  119OSM   H14B12474   2.072   3.414   5.988  0.6171  0.3407  1.2913
  119OSM   H14C12475   2.193   3.543   6.030 -0.9112 -1.0290  0.5383
  119OSM    C1312476   2.032   3.742   5.915 -0.2270 -0.2379 -0.0457
  119OSM   H13A12477   2.120   3.784   5.962 -0.9319 -1.1164  2.1941
  119OSM   H13B12478   1.959   3.822   5.915  1.0221  0.9417 -0.0728
  119OSM   H13C12479   2.064   3.731   5.812  1.8766  0.7260  0.4473
  119OSM    C1212480   1.950   3.623   6.111  0.0051 -0.2355  0.3454
  119OSM   H12A12481   2.032   3.665   6.168 -0.7834  0.4554  1.0057
  119OSM   H12B12482   1.932   3.521   6.141  1.0277 -0.6437 -0.4135
  119OSM    C1112483   1.826   3.715   6.149  0.1822 -0.2131 -0.1300
  119OSM   H11A12484   1.864   3.818   6.130 -0.0504  0.3285  2.0427
  119OSM   H11B12485   1.808   3.711   6.258  3.5350  0.7168  0.5871
  119OSM      P12486   1.605   3.801   6.045 -0.0635  0.3938 -0.3507
  119OSM    O1312487   1.661   3.876   5.931  0.2334 -0.5111  0.1453
  119OSM    O1412488   1.473   3.737   6.039  0.1727  0.3553  0.7062
  119OSM    O1112489   1.618   3.902   6.170 -0.1908 -0.1838  0.6879
  119OSM    O1212490   1.710   3.683   6.077  0.3792 -0.0496  0.0270
  119OSM    C1S12491   1.561   3.866   6.291 -0.3321  1.3629 -0.4252
  119OSM    H1S12492   1.609   3.783   6.348  0.0457  1.4276 -0.6452
  119OSM    H1T12493   1.453   3.839   6.287 -0.5362  1.6182  1.9669
  119OSM     NF12494   1.515   3.940   6.519  0.8217 -1.1068  0.8672
  119OSM    HNF12495   1.422   3.968   6.542  0.3010 -0.7028 -1.4991
  119OSM    C2S12496   1.568   3.986   6.388  0.7812  0.0608 -0.5984
  119OSM    H2S12497   1.676   4.010   6.398  1.5059 -2.6463 -0.9035
  119OSM    C3S12498   1.490   4.109   6.329 -0.0300 -0.1120  0.1036
  119OSM    H3S12499   1.382   4.088   6.313 -0.4418  1.2256  0.9438
  119OSM     O312500   1.551   4.156   6.209 -0.1228  0.2896 -0.5709
  119OSM    HO312501   1.611   4.083   6.190  0.4622  0.2809  1.1401
  119OSM    C4S12502   1.494   4.216   6.433 -0.0688 -0.0910  0.2467
  119OSM    H4S12503   1.591   4.264   6.449  1.2860 -2.0254 -1.6050
  119OSM    C5S12504   1.390   4.247   6.513  0.1074 -0.1309  0.0352
  119OSM    H5S12505   1.301   4.183   6.505 -0.6963  0.9030  0.4905
  119OSM    C6S12506   1.389   4.352   6.622 -0.7519 -0.8379  0.9089
  119OSM    H6S12507   1.382   4.455   6.582  0.6810 -1.2574 -0.4957
  119OSM    H6T12508   1.483   4.352   6.681 -0.9763  0.7400  1.3045
  119OSM    C7S12509   1.277   4.337   6.730 -0.4368  0.3006  0.0228
  119OSM    H7S12510   1.272   4.234   6.770  0.1991  1.0580  2.1931
  119OSM    H7T12511   1.181   4.354   6.678 -1.2731 -0.0776  1.3916
  119OSM    C8S12512   1.286   4.440   6.842 -0.1570 -0.3528  0.0844
  119OSM    H8S12513   1.292   4.543   6.802  1.1899 -0.5133 -0.1629
  119OSM    H8T12514   1.374   4.422   6.907  0.5180  0.0925 -0.6814
  119OSM    C9S12515   1.158   4.428   6.928  0.9638 -0.0145  0.8446
  119OSM    H9S12516   1.157   4.325   6.969 -0.8322 -0.4020 -0.0772
  119OSM    H9T12517   1.072   4.433   6.858  0.6685 -0.2009  1.1899
  119OSM   C10S12518   1.145   4.540   7.029 -0.3357 -0.3617  0.3235
  119OSM   H10S12519   1.056   4.599   6.998  0.6941  1.7609  1.1619
  119OSM   H10T12520   1.229   4.613   7.027 -1.0138  0.4411  0.6037
  119OSM   C11S12521   1.124   4.500   7.177 -0.7582 -0.2221  0.3623
  119OSM   H11S12522   1.219   4.461   7.219  1.0317  2.0728 -1.3644
  119OSM   H11T12523   1.048   4.418   7.175 -0.1215 -0.8208  0.2918
  119OSM   C12S12524   1.080   4.625   7.260 -0.1737 -0.5855  0.1857
  119OSM   H12S12525   0.982   4.652   7.215  0.3533 -0.4017 -0.8982
  119OSM   H12T12526   1.147   4.708   7.228 -2.2786  0.2421 -2.4974
  119OSM   C13S12527   1.069   4.608   7.411  0.2400 -0.0500 -0.3145
  119OSM   H13S12528   1.159   4.559   7.453 -0.5604  0.3465  2.0405
  119OSM   H13T12529   0.980   4.543   7.431  1.1679 -1.5255 -0.8210
  119OSM   C14S12530   1.053   4.740   7.488 -0.3127 -0.2128 -0.2019
  119OSM   H14S12531   0.954   4.777   7.455 -0.2302 -1.2780 -1.7687
  119OSM   H14T12532   1.129   4.812   7.449 -1.5832  0.2568 -1.9568
  119OSM   C15S12533   1.054   4.709   7.639  0.1032 -0.7126  0.3223
  119OSM   H15S12534   1.153   4.718   7.687  0.3731 -0.8910 -0.1963
  119OSM   H15T12535   1.013   4.606   7.646  1.5860 -1.4127 -0.8590
  119OSM   C16S12536   0.969   4.809   7.727 -0.0014  0.7815  0.1008
  119OSM   H16S12537   0.863   4.799   7.693 -0.0660  0.9083  0.2635
  119OSM   H16T12538   1.025   4.904   7.711  1.9460 -0.4051 -0.3562
  119OSM   C17S12539   0.968   4.763   7.875  0.1828 -0.2446  0.6698
  119OSM   H17S12540   0.916   4.666   7.890  1.0607 -0.6630  1.0612
  119OSM   H17T12541   0.905   4.829   7.939  1.7575  3.0349 -0.9462
  119OSM   C18S12542   1.108   4.748   7.932  0.4663 -0.3182  0.0316
  119OSM   H18S12543   1.148   4.654   7.889 -2.6944 -1.3707 -0.8714
  119OSM   H18T12544   1.107   4.736   8.043 -1.6583 -0.5468  0.0263
  119OSM   H18U12545   1.177   4.833   7.913 -1.5888  1.1468 -1.2022
  119OSM    C1F12546   1.588   3.870   6.606  0.7021  0.1938  0.2258
  119OSM     OF12547   1.699   3.833   6.577  0.0884 -0.0496  0.0712
  119OSM    C2F12548   1.535   3.844   6.738 -0.3603  0.1859 -0.2591
  119OSM    H2F12549   1.606   3.787   6.802 -1.3457  1.8439  2.4751
  119OSM    H2G12550   1.445   3.779   6.736  0.4016 -0.8891 -0.7558
  119OSM    C3F12551   1.485   3.969   6.813 -0.3671 -0.2270 -0.8103
  119OSM    H3F12552   1.416   4.029   6.750  0.7166  0.9785 -0.9059
  119OSM    H3G12553   1.568   4.040   6.833 -0.3637 -0.8494  1.7299
  119OSM    C4F12554   1.412   3.923   6.941  0.3781 -0.5131  0.0556
  119OSM    H4F12555   1.468   3.839   6.989  1.2377  0.0001 -0.0240
  119OSM    H4G12556   1.311   3.884   6.916  0.0975  1.2804 -1.8184
  119OSM    C5F12557   1.387   4.035   7.039  0.7072  0.3304 -0.3331
  119OSM    H5F12558   1.325   4.115   6.993  0.7192 -0.8942 -2.6175
  119OSM    H5G12559   1.486   4.074   7.074  1.4326  0.9178 -2.8662
  119OSM    C6F12560   1.318   3.982   7.167 -0.2194  0.0930  0.5820
  119OSM    H6F12561   1.378   3.898   7.208 -0.2567  0.3227  1.1120
  119OSM    H6G12562   1.223   3.938   7.132  0.0229  0.6551 -0.8281
  119OSM    C7F12563   1.283   4.087   7.276 -0.1508  0.6078 -0.1280
  119OSM    H7F12564   1.197   4.061   7.342 -0.4887  0.3183 -0.6765
  119OSM    H7G12565   1.245   4.177   7.223 -2.2517  0.3016  0.7415
  119OSM    C8F12566   1.409   4.112   7.368 -0.7874  0.5739  0.4871
  119OSM    H8F12567   1.492   4.164   7.315 -1.0234 -2.1352 -2.8786
  119OSM    H8G12568   1.453   4.019   7.411 -0.3997  0.0894 -0.9048
  119OSM    C9F12569   1.360   4.208   7.482  0.1601  0.3638  1.3118
  119OSM    H9F12570   1.337   4.306   7.437  1.7395 -0.2877 -1.1435
  119OSM   C10F12571   1.348   4.190   7.615  0.2658 -0.4527  0.2577
  119OSM   H10F12572   1.308   4.277   7.669 -1.0864 -0.1395 -1.1656
  119OSM   C11F12573   1.396   4.076   7.702  0.8459 -0.0381  0.1643
  119OSM   H11F12574   1.436   4.103   7.803  0.2820 -0.0108  0.3869
  119OSM   H11G12575   1.484   4.022   7.661  0.0004 -2.4950  1.4207
  119OSM   C12F12576   1.293   3.961   7.722  0.8921  0.1542  0.4365
  119OSM   H12F12577   1.261   3.931   7.620 -1.7208  0.3055  1.1394
  119OSM   H12G12578   1.194   4.000   7.755  0.3064  1.0108 -2.1212
  119OSM   C13F12579   1.337   3.834   7.787 -0.8240  0.3370  0.3588
  119OSM   H13F12580   1.409   3.779   7.723 -2.1267 -1.7387  0.5952
  119OSM   H13G12581   1.249   3.766   7.794 -1.1482  0.7624  0.4394
  119OSM   C14F12582   1.391   3.854   7.929 -0.6276  0.1929 -0.8036
  119OSM   H14F12583   1.483   3.915   7.917  0.1025 -0.5924  0.5144
  119OSM   H14G12584   1.421   3.752   7.964 -1.3921 -0.5741 -2.2807
  119OSM   C15F12585   1.289   3.915   8.033 -0.2930  0.6401 -0.3539
  119OSM   H15F12586   1.201   3.848   8.029 -0.4332  0.7161  0.9218
  119OSM   H15G12587   1.263   4.020   8.007 -0.9981  0.6531  0.3797
  119OSM   C16F12588   1.348   3.919   8.175  0.8643 -0.1264  0.6415
  119OSM   H16F12589   1.438   3.983   8.179  1.5349 -1.0504  0.7228
  119OSM   H16G12590   1.397   3.820   8.185 -1.4334 -1.4690 -0.4883
  119OSM   C17F12591   1.252   3.959   8.287  0.1155 -0.6572 -0.4366
  119OSM   H17F12592   1.157   3.903   8.273  0.9976 -2.2683 -0.3381
  119OSM   H17G12593   1.234   4.063   8.254  1.5009 -0.2908 -0.1044
  119OSM   C18F12594   1.320   3.959   8.424  0.0080  0.4464  0.6644
  119OSM   H18F12595   1.366   3.859   8.437 -0.5991  0.2610  1.4999
  119OSM   H18G12596   1.247   3.992   8.501  0.1008  1.6907  0.2355
  119OSM   H18H12597   1.404   4.032   8.425 -0.2067  0.7233 -0.4093
  120OSM      N12598   1.196   0.736   6.368  0.5077 -0.0230 -0.2514
  120OSM    C1512599   1.324   0.780   6.447  0.2073 -0.1474  0.7870
  120OSM   H15A12600   1.405   0.771   6.376  0.1371 -1.5001  0.8506
  120OSM   H15B12601   1.348   0.712   6.528  1.4472  0.2391  0.7629
  120OSM   H15C12602   1.310   0.883   6.476 -1.9434  0.1238 -0.9116
  120OSM    C1412603   1.180   0.808   6.237 -0.0458 -0.0739  0.1493
  120OSM   H14A12604   1.167   0.913   6.258 -1.1454  0.0466 -1.0026
  120OSM   H14B12605   1.080   0.786   6.204 -1.1140  2.9980  0.9680
  120OSM   H14C12606   1.258   0.792   6.163  0.5339 -1.2145  0.9774
  120OSM    C1312607   1.216   0.590   6.341 -0.0984  1.6455 -0.2350
  120OSM   H13A12608   1.248   0.525   6.421  0.6923  1.8658 -0.3653
  120OSM   H13B12609   1.299   0.585   6.273  1.3867  1.2114  1.5291
  120OSM   H13C12610   1.135   0.542   6.287  0.6800  0.8397 -0.7012
  120OSM    C1212611   1.076   0.755   6.458  0.0434  0.5430 -0.7398
  120OSM   H12A12612   1.087   0.682   6.538 -0.1247  1.6605  0.3322
  120OSM   H12B12613   0.992   0.716   6.403 -0.4767  0.5895  0.0059
  120OSM    C1112614   1.043   0.894   6.519 -0.3983  0.3646 -0.0954
  120OSM   H11A12615   1.140   0.947   6.514  2.1795 -3.7852  1.3461
  120OSM   H11B12616   1.012   0.873   6.624 -0.5483 -1.1743 -0.4239
  120OSM      P12617   0.946   1.094   6.361 -0.1972  0.0869  0.1764
  120OSM    O1312618   1.055   1.079   6.264  0.2982  0.0473 -0.0550
  120OSM    O1412619   0.816   1.134   6.307 -0.2615  0.4735  0.2325
  120OSM    O1112620   0.989   1.180   6.483 -0.2171 -0.4599 -0.5804
  120OSM    O1212621   0.933   0.958   6.440  0.3977  0.3137 -0.2354
  120OSM    C1S12622   0.890   1.247   6.575 -0.2631  0.5534 -0.0247
  120OSM    H1S12623   0.788   1.212   6.549  0.1697 -0.8515  0.0590
  120OSM    H1T12624   0.897   1.357   6.568 -2.6837  0.8959  1.8873
  120OSM     NF12625   0.818   1.281   6.818 -0.2994  0.3272  0.3472
  120OSM    HNF12626   0.858   1.363   6.859  1.1284  0.0565 -0.4101
  120OSM    C2S12627   0.920   1.219   6.727  1.1280 -0.3530 -0.0950
  120OSM    H2S12628   0.918   1.109   6.741 -0.9864 -0.1152  2.2593
  120OSM    C3S12629   1.066   1.260   6.759  0.1420  0.3493  0.2338
  120OSM    H3S12630   1.073   1.369   6.740  2.9009  0.1315 -0.3655
  120OSM     O312631   1.167   1.199   6.682  0.0071 -0.2230  0.7959
  120OSM    HO312632   1.116   1.166   6.608  1.2014  0.2350 -0.2553
  120OSM    C4S12633   1.103   1.225   6.901 -0.2940 -0.1739 -0.1978
  120OSM    H4S12634   1.109   1.117   6.920  0.8486 -0.2424 -0.8900
  120OSM    C5S12635   1.113   1.316   7.003 -0.1040 -0.3295 -0.2788
  120OSM    H5S12636   1.092   1.423   6.989 -0.8311 -0.5638 -1.0704
  120OSM    C6S12637   1.143   1.288   7.147 -0.1497  0.0635  0.2111
  120OSM    H6S12638   1.228   1.349   7.187  0.3738 -0.4852 -0.0437
  120OSM    H6T12639   1.176   1.182   7.154 -0.3459  0.0972  2.2982
  120OSM    C7S12640   1.019   1.302   7.228  0.5639  0.3397 -0.2281
  120OSM    H7S12641   0.939   1.231   7.196  2.7204 -2.4062  0.0800
  120OSM    H7T12642   0.971   1.401   7.241  2.1717  1.1327 -0.0453
  120OSM    C8S12643   1.053   1.259   7.375 -0.0856 -0.0733  0.2073
  120OSM    H8S12644   1.139   1.325   7.400  0.7763  0.0839 -2.7538
  120OSM    H8T12645   1.082   1.152   7.371 -0.8085 -0.2488 -0.6778
  120OSM    C9S12646   0.939   1.278   7.471  0.2039 -0.6767 -0.7240
  120OSM    H9S12647   0.841   1.240   7.437 -1.9148  2.1659  1.7437
  120OSM    H9T12648   0.909   1.383   7.488 -1.8387 -1.1237 -1.3631
  120OSM   C10S12649   0.976   1.210   7.606 -0.3732 -0.0108 -0.0395
  120OSM   H10S12650   1.087   1.223   7.611 -0.3418 -0.0895 -0.4653
  120OSM   H10T12651   0.960   1.102   7.585  0.2505  0.2663 -2.1334
  120OSM   C11S12652   0.919   1.264   7.733  0.4728  0.0193  0.1571
  120OSM   H11S12653   0.810   1.285   7.724  0.8527  1.2722 -3.0357
  120OSM   H11T12654   0.961   1.366   7.749 -0.7446  0.6340 -0.3928
  120OSM   C12S12655   0.951   1.180   7.859  0.2571 -0.5199 -0.3803
  120OSM   H12S12656   1.053   1.135   7.857  1.5425  2.0717  1.3331
  120OSM   H12T12657   0.879   1.095   7.855 -0.9016  0.0376  3.7717
  120OSM   C13S12658   0.937   1.268   7.989 -0.7909  0.0777  0.1795
  120OSM   H13S12659   0.855   1.342   7.979 -1.4521 -0.7182 -0.4315
  120OSM   H13T12660   1.034   1.322   7.993 -2.1484  2.8664 -1.4135
  120OSM   C14S12661   0.922   1.172   8.110  0.5437  0.4034  0.2320
  120OSM   H14S12662   1.007   1.101   8.109 -0.1436 -0.4892 -2.2939
  120OSM   H14T12663   0.831   1.110   8.094  1.6213 -0.9520 -0.9071
  120OSM   C15S12664   0.905   1.251   8.245  0.4531 -0.3496 -0.2626
  120OSM   H15S12665   0.965   1.344   8.250 -1.3125  0.8751 -0.6495
  120OSM   H15T12666   0.954   1.182   8.317 -0.9731 -2.2514 -1.0130
  120OSM   C16S12667   0.757   1.273   8.281  0.3679 -0.4533  0.0649
  120OSM   H16S12668   0.743   1.307   8.386 -0.9781 -0.3179 -0.1314
  120OSM   H16T12669   0.695   1.181   8.280  0.2679 -0.3877  0.0764
  120OSM   C17S12670   0.694   1.384   8.193 -0.2751  0.4056  0.7122
  120OSM   H17S12671   0.696   1.363   8.084 -1.0700  4.0940 -0.1497
  120OSM   H17T12672   0.744   1.482   8.208 -0.2957  0.6745 -0.8338
  120OSM   C18S12673   0.548   1.406   8.239 -0.5918  0.2507 -0.4472
  120OSM   H18S12674   0.480   1.319   8.229 -1.7976  1.0147  0.7711
  120OSM   H18T12675   0.509   1.498   8.190  3.6185  2.7318  0.3450
  120OSM   H18U12676   0.546   1.425   8.348 -1.6692 -1.1793 -0.1888
  120OSM    C1F12677   0.689   1.247   6.824  1.0059 -0.3958  0.6524
  120OSM     OF12678   0.641   1.152   6.756 -0.1946  0.0554  0.3458
  120OSM    C2F12679   0.592   1.344   6.899 -0.5031 -0.2493  0.0355
  120OSM    H2F12680   0.499   1.358   6.839  0.8518 -0.0621 -2.1407
  120OSM    H2G12681   0.639   1.444   6.899  0.2652 -0.5876 -1.3177
  120OSM    C3F12682   0.576   1.292   7.038 -0.4076 -0.0148  0.0797
  120OSM    H3F12683   0.680   1.274   7.073  0.2496 -1.0453 -2.1915
  120OSM    H3G12684   0.524   1.194   7.037 -2.2004  0.9002 -0.7040
  120OSM    C4F12685   0.495   1.379   7.128 -0.5737 -0.6079 -1.1194
  120OSM    H4F12686   0.396   1.414   7.092 -0.5517  2.0332  1.0981
  120OSM    H4G12687   0.556   1.471   7.143 -0.4823 -0.9891  1.3326
  120OSM    C5F12688   0.499   1.311   7.266 -0.3134 -0.4198 -0.2564
  120OSM    H5F12689   0.601   1.311   7.311  0.4216  0.5218 -1.8286
  120OSM    H5G12690   0.447   1.213   7.261 -0.1000 -0.7530  2.7045
  120OSM    C6F12691   0.417   1.390   7.369  0.4836 -0.1838  0.0325
  120OSM    H6F12692   0.316   1.397   7.323  0.9639  0.8381 -0.9212
  120OSM    H6G12693   0.457   1.494   7.363 -0.8197  0.4136  1.1530
  120OSM    C7F12694   0.417   1.352   7.520 -0.4972  0.2253  0.2738
  120OSM    H7F12695   0.524   1.330   7.542 -0.0298 -0.2485 -2.1627
  120OSM    H7G12696   0.363   1.256   7.530  0.6101 -0.4356  0.0318
  120OSM    C8F12697   0.353   1.451   7.620 -0.3338  0.0826  0.3561
  120OSM    H8F12698   0.244   1.437   7.605 -0.4534 -0.2637  1.4593
  120OSM    H8G12699   0.400   1.543   7.580 -0.3889 -0.9690 -2.2871
  120OSM    C9F12700   0.401   1.410   7.752  0.2071  0.0112 -0.6573
  120OSM    H9F12701   0.494   1.351   7.751 -0.1796 -0.6529  0.4744
  120OSM   C10F12702   0.330   1.428   7.868  0.5668 -0.0527 -0.0787
  120OSM   H10F12703   0.372   1.407   7.968 -0.4304 -0.9639  0.1776
  120OSM   C11F12704   0.188   1.487   7.877  0.2046 -0.5847  0.2474
  120OSM   H11F12705   0.124   1.478   7.786  1.7203  0.0185 -0.9342
  120OSM   H11G12706   0.189   1.591   7.915 -1.9226 -0.2181 -0.5701
  120OSM   C12F12707   0.114   1.407   7.987  0.3755  0.3847 -0.6413
  120OSM   H12F12708   0.129   1.297   7.983  1.0138  0.3804  1.1629
  120OSM   H12G12709   0.008   1.438   7.970 -0.1992 -0.2745  1.4437
  120OSM   C13F12710   0.170   1.432   8.130  0.2605 -0.2636 -0.0352
  120OSM   H13F12711   0.172   1.541   8.154  0.1115 -0.1006 -0.7418
  120OSM   H13G12712   0.272   1.389   8.134  0.1662 -0.6146 -1.0877
  120OSM   C14F12713   0.094   1.357   8.239 -0.1048  0.2666 -0.2375
  120OSM   H14F12714   0.084   1.249   8.217 -1.5919 -0.6591  4.0077
  120OSM   H14G12715  -0.013   1.385   8.232 -0.6029 -1.5778 -0.4945
  120OSM   C15F12716   0.150   1.397   8.381  0.3355  0.2746  0.2488
  120OSM   H15F12717   0.158   1.508   8.379  1.6817  0.2201  1.2917
  120OSM   H15G12718   0.252   1.355   8.396  1.1146  1.6333 -1.0161
  120OSM   C16F12719   0.049   1.367   8.497 -0.1463 -0.3143 -1.3208
  120OSM   H16F12720   0.008   1.264   8.495 -0.6173 -0.2337  1.1863
  120OSM   H16G12721  -0.034   1.440   8.491  0.1960 -0.0110 -2.5997
  120OSM   C17F12722   0.118   1.383   8.636 -0.7568 -0.0183 -0.0419
  120OSM   H17F12723   0.175   1.478   8.628  2.5639 -1.8357  0.3214
  120OSM   H17G12724   0.206   1.316   8.641 -1.7144 -1.2001  1.6235
  120OSM   C18F12725   0.038   1.367   8.769 -0.0041 -0.0253  1.0313
  120OSM   H18F12726  -0.042   1.443   8.770 -0.9272 -0.9609  2.3219
  120OSM   H18G12727   0.104   1.387   8.856  1.7764  2.5651 -0.7728
  120OSM   H18H12728  -0.015   1.269   8.768  0.7418 -0.4681 -1.4537
  121OSM      N12729   3.072   3.407   5.854 -0.5946  0.0022  0.1505
  121OSM    C1512730   2.994   3.283   5.871 -0.5310  0.0006 -0.1009
  121OSM   H15A12731   2.897   3.289   5.824 -0.2859 -0.6466 -0.6920
  121OSM   H15B12732   2.991   3.248   5.973  1.1340 -4.0905 -1.2663
  121OSM   H15C12733   3.045   3.200   5.825  0.6971  1.0387 -0.6981
  121OSM    C1412734   3.049   3.459   5.716 -0.2974  1.0597 -0.4138
  121OSM   H14A12735   3.075   3.390   5.636  3.8329 -0.6579  2.0468
  121OSM   H14B12736   3.093   3.555   5.695 -0.4017  1.5562  1.5013
  121OSM   H14C12737   2.943   3.476   5.704 -0.1836  3.6097  1.5454
  121OSM    C1312738   3.020   3.507   5.950 -0.9147  0.6788  1.0509
  121OSM   H13A12739   3.046   3.477   6.050  1.4255 -0.6516  0.1288
  121OSM   H13B12740   2.913   3.510   5.938 -1.3186 -0.9471  3.5898
  121OSM   H13C12741   3.066   3.605   5.943 -0.5645  0.4673  0.1844
  121OSM    C1212742   3.225   3.376   5.867 -0.0718  0.3900 -0.8557
  121OSM   H12A12743   3.284   3.465   5.854  0.0106  0.5854  0.6821
  121OSM   H12B12744   3.245   3.308   5.785 -0.4258  2.1945 -2.4962
  121OSM    C1112745   3.266   3.332   6.008 -0.6754 -0.0537  0.1823
  121OSM   H11A12746   3.375   3.316   5.993 -0.5401  1.2151 -0.3087
  121OSM   H11B12747   3.218   3.233   6.020  1.7767 -1.9312 -3.6681
  121OSM      P12748   3.323   3.548   6.152  0.0958 -0.5885 -0.2113
  121OSM    O1312749   3.406   3.538   6.276 -0.2975  0.4958 -0.1482
  121OSM    O1412750   3.398   3.585   6.033 -0.1306  0.2836  0.1467
  121OSM    O1112751   3.222   3.659   6.173  0.0232  0.2848 -0.1085
  121OSM    O1212752   3.240   3.419   6.118 -0.2066 -0.6716  0.0234
  121OSM    C1S12753   3.125   3.664   6.278  0.5027  0.0313 -0.1842
  121OSM    H1S12754   3.082   3.566   6.307 -0.6011  0.4648 -0.2933
  121OSM    H1T12755   3.045   3.730   6.238  2.6511  2.4771 -0.7128
  121OSM     NF12756   3.059   3.732   6.504  0.1187 -0.7245  0.1294
  121OSM    HNF12757   3.009   3.818   6.512  1.4072 -0.1748  4.6956
  121OSM    C2S12758   3.174   3.729   6.414 -0.4692  0.0661 -0.7723
  121OSM    H2S12759   3.246   3.657   6.458 -2.5406 -1.2473  0.5975
  121OSM    C3S12760   3.243   3.870   6.406 -0.1808  0.2590  0.2286
  121OSM    H3S12761   3.170   3.943   6.366 -1.8604 -1.7018 -0.4438
  121OSM     O312762   3.359   3.863   6.317 -0.2248  0.0275  0.0802
  121OSM    HO312763   3.355   3.779   6.270 -0.4774  1.1159 -1.9635
  121OSM    C4S12764   3.275   3.923   6.546  0.1314  0.3802 -0.0681
  121OSM    H4S12765   3.363   3.875   6.591  1.5339  1.4620 -1.5273
  121OSM    C5S12766   3.208   4.022   6.614  0.5048  0.2247  0.7992
  121OSM    H5S12767   3.120   4.073   6.573  1.2928  1.0908  0.1195
  121OSM    C6S12768   3.247   4.066   6.754 -0.0526 -0.5519 -0.2560
  121OSM    H6S12769   3.281   4.171   6.759  0.2238 -0.6725  0.5493
  121OSM    H6T12770   3.335   4.009   6.790  1.3887 -0.0708 -2.7674
  121OSM    C7S12771   3.125   4.049   6.847  0.5347 -0.5264  0.2143
  121OSM    H7S12772   3.084   3.947   6.862 -0.8278  0.0196  0.3645
  121OSM    H7T12773   3.051   4.124   6.811  0.7443 -0.2832  0.2845
  121OSM    C8S12774   3.165   4.093   6.988 -0.1794  0.2101 -0.3393
  121OSM    H8S12775   3.234   4.179   6.975 -0.0140  0.0781 -0.3307
  121OSM    H8T12776   3.233   4.015   7.028  0.5976  1.9469  1.9499
  121OSM    C9S12777   3.054   4.112   7.091 -0.3110 -0.3360  0.0644
  121OSM    H9S12778   2.984   4.028   7.071 -1.2033  0.2880  0.4904
  121OSM    H9T12779   3.002   4.209   7.079 -2.7940 -1.3330  1.9254
  121OSM   C10S12780   3.104   4.089   7.235  0.5374  0.1507 -0.2895
  121OSM   H10S12781   3.152   4.179   7.278 -1.2188  1.0920 -0.1950
  121OSM   H10T12782   3.184   4.014   7.222  0.9303  0.6187 -0.5750
  121OSM   C11S12783   2.997   4.053   7.339  0.4424 -0.1048 -0.3207
  121OSM   H11S12784   3.035   4.016   7.437  0.2441  2.8576  0.9730
  121OSM   H11T12785   2.939   3.972   7.290 -1.2270  1.6160 -1.3347
  121OSM   C12S12786   2.900   4.171   7.371 -0.1227 -0.5694  0.7893
  121OSM   H12S12787   2.846   4.200   7.278 -1.2750  0.3975  1.7169
  121OSM   H12T12788   2.971   4.247   7.409  0.4395  0.1289 -1.4741
  121OSM   C13S12789   2.787   4.142   7.471  1.1028 -0.6524  0.3282
  121OSM   H13S12790   2.735   4.057   7.423 -3.0991  1.3901  0.7316
  121OSM   H13T12791   2.713   4.225   7.464  1.5995 -0.2289  0.0571
  121OSM   C14S12792   2.824   4.110   7.614  0.5219  0.2580 -0.8230
  121OSM   H14S12793   2.841   4.206   7.667  0.5094 -1.1043  1.8436
  121OSM   H14T12794   2.912   4.043   7.629  1.5397  1.3862 -1.6176
  121OSM   C15S12795   2.703   4.058   7.698  0.0277  0.4424 -0.7168
  121OSM   H15S12796   2.676   3.960   7.654  0.0396  0.1319 -0.0399
  121OSM   H15T12797   2.623   4.133   7.681  0.4998  0.9184 -0.8763
  121OSM   C16S12798   2.738   4.049   7.846  0.5315 -0.0775 -0.0463
  121OSM   H16S12799   2.762   4.150   7.886 -0.7952  0.0617  0.4493
  121OSM   H16T12800   2.823   3.979   7.862  2.5215  1.9986 -0.9598
  121OSM   C17S12801   2.621   4.004   7.929  0.7756 -0.2642  0.6265
  121OSM   H17S12802   2.585   3.906   7.891 -1.2903  0.5722  0.2921
  121OSM   H17T12803   2.535   4.074   7.920 -0.1305 -1.4985 -0.9264
  121OSM   C18S12804   2.653   3.998   8.074  0.2339  0.0640  0.4335
  121OSM   H18S12805   2.747   3.949   8.108  0.1272 -0.0772  0.5298
  121OSM   H18T12806   2.572   3.944   8.128 -2.0697  0.6290 -2.2183
  121OSM   H18U12807   2.661   4.095   8.126 -2.0770  0.3453  0.3535
  121OSM    C1F12808   3.003   3.623   6.568 -1.3741 -0.4520 -0.6092
  121OSM     OF12809   3.060   3.518   6.579 -0.3736 -0.0354 -0.3036
  121OSM    C2F12810   2.859   3.651   6.604 -0.4274  0.0903  0.7389
  121OSM    H2F12811   2.796   3.666   6.513  1.3789 -0.2254 -0.6151
  121OSM    H2G12812   2.856   3.737   6.675  2.3036  0.6821  0.2307
  121OSM    C3F12813   2.799   3.529   6.679 -0.7443  0.3585  0.4367
  121OSM    H3F12814   2.849   3.534   6.778  2.2620  2.7004 -1.0295
  121OSM    H3G12815   2.818   3.435   6.624 -2.4683  0.0352  0.3577
  121OSM    C4F12816   2.649   3.553   6.700  0.6264  0.2290 -0.2176
  121OSM    H4F12817   2.600   3.558   6.600 -0.1476 -1.9904 -0.0006
  121OSM    H4G12818   2.633   3.650   6.752  2.2879 -0.3571  1.5278
  121OSM    C5F12819   2.592   3.439   6.782  0.6381  0.6346  0.0625
  121OSM    H5F12820   2.678   3.378   6.819  1.1770  0.6279 -1.1748
  121OSM    H5G12821   2.543   3.371   6.710 -0.3944  1.1964  0.2296
  121OSM    C6F12822   2.508   3.487   6.898  0.4564  0.7733  0.3550
  121OSM    H6F12823   2.439   3.572   6.875  0.1969  1.0815  2.1666
  121OSM    H6G12824   2.587   3.511   6.972  2.4345 -2.4586 -0.4991
  121OSM    C7F12825   2.423   3.376   6.959  0.8296  0.0897 -0.2743
  121OSM    H7F12826   2.334   3.359   6.895 -0.5911  1.4888  1.2520
  121OSM    H7G12827   2.382   3.412   7.055 -0.6871 -4.0610  0.8635
  121OSM    C8F12828   2.504   3.242   6.984  0.1996  0.4553 -0.1820
  121OSM    H8F12829   2.595   3.278   7.037  1.5971  0.5310 -2.5047
  121OSM    H8G12830   2.526   3.194   6.886 -0.4111 -0.6311  0.1985
  121OSM    C9F12831   2.431   3.144   7.069 -0.0400  0.2979 -0.1145
  121OSM    H9F12832   2.374   3.070   7.011  2.7644 -0.2079 -2.4326
  121OSM   C10F12833   2.417   3.145   7.196 -0.7994  0.4049  0.6163
  121OSM   H10F12834   2.356   3.070   7.248 -0.4350  1.2060  2.2545
  121OSM   C11F12835   2.487   3.240   7.297  0.4257  0.0577  0.1010
  121OSM   H11F12836   2.415   3.281   7.371 -0.4181  0.3278 -0.8491
  121OSM   H11G12837   2.520   3.329   7.239 -0.7821 -1.6873 -3.6274
  121OSM   C12F12838   2.595   3.180   7.379  0.5063 -0.9832  0.1016
  121OSM   H12F12839   2.671   3.256   7.405  0.6975 -1.2876  0.4491
  121OSM   H12G12840   2.642   3.098   7.320 -2.1532 -1.2504 -1.8420
  121OSM   C13F12841   2.544   3.108   7.515  0.1068 -0.4735  0.2957
  121OSM   H13F12842   2.616   3.026   7.533 -1.1190 -1.5502  0.4727
  121OSM   H13G12843   2.444   3.060   7.508 -0.6106  0.4875  2.6662
  121OSM   C14F12844   2.529   3.206   7.635  1.1449  0.3895 -0.5667
  121OSM   H14F12845   2.472   3.295   7.601 -0.1199 -0.1936 -0.0259
  121OSM   H14G12846   2.625   3.245   7.674  1.0290  1.5649 -1.4113
  121OSM   C15F12847   2.452   3.142   7.758 -0.5423 -0.2495 -0.3734
  121OSM   H15F12848   2.375   3.071   7.720 -1.0222  0.0778 -0.0296
  121OSM   H15G12849   2.406   3.218   7.825  2.1327  0.0588  1.2551
  121OSM   C16F12850   2.539   3.065   7.862 -0.1776 -0.6449  0.4280
  121OSM   H16F12851   2.626   3.123   7.900 -1.2833  0.5902  1.1157
  121OSM   H16G12852   2.585   2.982   7.805  1.2246  0.5467 -0.2411
  121OSM   C17F12853   2.470   3.011   7.985 -0.2321  0.2288  0.2767
  121OSM   H17F12854   2.369   2.978   7.952 -0.4770  0.4447  0.8040
  121OSM   H17G12855   2.453   3.098   8.051  0.3231  0.1132  0.5732
  121OSM   C18F12856   2.547   2.906   8.065 -0.2832 -0.3216  0.7315
  121OSM   H18F12857   2.549   2.813   8.005 -0.7037 -0.9793  1.7122
  121OSM   H18G12858   2.494   2.886   8.161 -0.2245  2.5153  1.4744
  121OSM   H18H12859   2.650   2.942   8.086 -0.3649  1.5434 -1.6128
  122OSM      N12860   1.084   4.968   6.106 -0.1230  0.3228  0.5332
  122OSM    C1512861   0.983   4.950   6.208  0.1999  0.4518 -0.0476
  122OSM   H15A12862   1.006   5.000   6.301 -0.3462  0.7438 -0.0654
  122OSM   H15B12863   0.969   4.845   6.232 -0.4898  0.0984 -1.8399
  122OSM   H15C12864   0.892   4.986   6.162  1.5875  0.7148 -2.7890
  122OSM    C1412865   1.047   4.869   5.999  0.0309 -0.1705 -0.2485
  122OSM   H14A12866   1.010   4.780   6.048 -2.3588  1.7608  1.7768
  122OSM   H14B12867   1.126   4.823   5.942 -1.4605 -3.5561  0.2006
  122OSM   H14C12868   0.964   4.901   5.937 -0.8836 -1.4605  0.2605
  122OSM    C1312869   1.089   5.109   6.056  1.0218 -0.5465  0.2403
  122OSM   H13A12870   1.160   5.107   5.975  1.0919 -1.2981  0.3173
  122OSM   H13B12871   1.112   5.177   6.136 -1.5982  0.9923 -0.2041
  122OSM   H13C12872   0.991   5.140   6.022  0.1333 -1.9989  1.3639
  122OSM    C1212873   1.213   4.923   6.170 -0.7397  1.0995 -0.2057
  122OSM   H12A12874   1.293   4.943   6.100  0.6016  0.9885  1.2194
  122OSM   H12B12875   1.216   4.817   6.189  1.5329  0.6788 -2.3830
  122OSM    C1112876   1.255   4.994   6.307  0.3217 -0.0947  0.5950
  122OSM   H11A12877   1.342   4.945   6.356 -0.6191  0.4864  2.9871
  122OSM   H11B12878   1.171   4.992   6.379  0.0089 -1.1958  0.2204
  122OSM      P12879   1.422   5.172   6.195 -0.1260  0.1451  0.0091
  122OSM    O1312880   1.383   5.124   6.062  0.0112  0.5721 -0.0925
  122OSM    O1412881   1.441   5.316   6.214 -0.6479 -1.0022  0.5818
  122OSM    O1112882   1.552   5.098   6.252  0.2350 -0.0071 -0.1889
  122OSM    O1212883   1.297   5.136   6.292  0.4465  0.3791 -0.0179
  122OSM    C1S12884   1.626   5.154   6.356  0.0152  0.7938 -0.8848
  122OSM    H1S12885   1.596   5.259   6.373 -0.5304  0.5500 -0.3079
  122OSM    H1T12886   1.731   5.163   6.323  1.6859 -1.4896  3.0709
  122OSM     NF12887   1.696   5.138   6.588  0.9767 -0.1927 -0.2589
  122OSM    HNF12888   1.789   5.109   6.604  0.8183 -0.9625 -0.7068
  122OSM    C2S12889   1.623   5.060   6.488  0.0328  0.1764 -0.5922
  122OSM    H2S12890   1.519   5.036   6.518  0.6441  0.7849  2.3528
  122OSM    C3S12891   1.688   4.921   6.451  0.2809 -0.1972 -0.0778
  122OSM    H3S12892   1.790   4.958   6.428 -0.0449 -0.3626 -1.9309
  122OSM     O312893   1.630   4.862   6.334  0.3911 -0.0154  0.1197
  122OSM    HO312894   1.576   4.933   6.300  0.4207 -0.0641 -0.0322
  122OSM    C4S12895   1.698   4.832   6.570  0.7091 -0.9758 -0.4515
  122OSM    H4S12896   1.787   4.847   6.632 -1.0124  0.5991  1.8380
  122OSM    C5S12897   1.614   4.730   6.597 -0.2988  0.2573 -0.5793
  122OSM    H5S12898   1.547   4.693   6.519 -0.6877 -0.0360 -0.1103
  122OSM    C6S12899   1.646   4.641   6.720 -0.3388 -0.2100  0.3108
  122OSM    H6S12900   1.753   4.635   6.746 -0.2148  0.1191 -0.1177
  122OSM    H6T12901   1.625   4.537   6.688 -4.0647  0.1536  1.1232
  122OSM    C7S12902   1.563   4.684   6.840  0.1704 -0.0689 -0.1596
  122OSM    H7S12903   1.454   4.671   6.823  0.0678  0.8028 -0.1993
  122OSM    H7T12904   1.591   4.789   6.861 -0.0607  0.0141 -0.2598
  122OSM    C8S12905   1.616   4.600   6.960 -0.0775 -0.3157  0.6661
  122OSM    H8S12906   1.727   4.609   6.957 -0.1882  1.1337  0.2763
  122OSM    H8T12907   1.581   4.495   6.949 -1.9836 -0.1231  3.8187
  122OSM    C9S12908   1.558   4.655   7.092 -0.2537 -0.5333 -0.5271
  122OSM    H9S12909   1.447   4.663   7.087 -0.0969  2.2686 -1.5894
  122OSM    H9T12910   1.599   4.758   7.103  2.1633 -1.2110 -2.2496
  122OSM   C10S12911   1.590   4.573   7.218 -0.5663 -0.4259  0.4033
  122OSM   H10S12912   1.694   4.537   7.208  0.1969  1.7020  0.2302
  122OSM   H10T12913   1.524   4.485   7.200 -0.9683 -0.0278 -0.1127
  122OSM   C11S12914   1.562   4.647   7.354  0.0550  0.4400 -0.6566
  122OSM   H11S12915   1.463   4.694   7.335 -0.2427  0.5826  1.0937
  122OSM   H11T12916   1.642   4.721   7.375  2.0034 -2.0743  1.4352
  122OSM   C12S12917   1.550   4.565   7.481 -0.3019  0.8785  0.0988
  122OSM   H12S12918   1.626   4.483   7.486  0.4731  1.6166  0.7869
  122OSM   H12T12919   1.460   4.500   7.488  1.4479 -1.4800  2.8286
  122OSM   C13S12920   1.543   4.643   7.612 -0.7984 -0.6456 -0.0476
  122OSM   H13S12921   1.466   4.724   7.614  0.9233  1.0576  2.2853
  122OSM   H13T12922   1.641   4.694   7.626 -0.1013 -1.0830 -2.6886
  122OSM   C14S12923   1.509   4.546   7.732  0.7116 -0.5599  0.4708
  122OSM   H14S12924   1.580   4.461   7.733  0.5251 -0.7185  0.3524
  122OSM   H14T12925   1.412   4.498   7.706  0.1354  0.2730  0.9980
  122OSM   C15S12926   1.489   4.603   7.870 -0.1428  0.3015 -0.5618
  122OSM   H15S12927   1.408   4.679   7.882 -0.4615 -0.0725 -0.3336
  122OSM   H15T12928   1.590   4.645   7.889  0.1616 -0.7105  0.0906
  122OSM   C16S12929   1.469   4.502   7.986 -0.1683  0.8036  0.1213
  122OSM   H16S12930   1.451   4.553   8.083 -0.1994  1.4132 -0.1996
  122OSM   H16T12931   1.565   4.448   7.995 -0.4937  0.4499  1.8171
  122OSM   C17S12932   1.350   4.411   7.961 -0.8008  1.5746  0.3617
  122OSM   H17S12933   1.383   4.331   7.891  2.0389  2.2832  0.7902
  122OSM   H17T12934   1.269   4.469   7.912 -1.0399 -0.2621 -1.5493
  122OSM   C18S12935   1.289   4.372   8.095 -0.6426  0.3147 -0.9421
  122OSM   H18S12936   1.202   4.305   8.078 -1.0913  0.8082 -0.6214
  122OSM   H18T12937   1.244   4.450   8.160 -0.4257 -0.7651  0.5586
  122OSM   H18U12938   1.370   4.326   8.155  1.4062  2.5093 -1.8495
  122OSM    C1F12939   1.633   5.243   6.639 -1.1369  1.1880  0.3968
  122OSM     OF12940   1.508   5.255   6.636 -0.1224  0.3575  0.9588
  122OSM    C2F12941   1.719   5.336   6.721  0.2627 -0.8741 -0.1634
  122OSM    H2F12942   1.805   5.371   6.660  1.6700 -2.9637  0.5162
  122OSM    H2G12943   1.748   5.270   6.806 -0.2483  0.6848  1.2720
  122OSM    C3F12944   1.632   5.464   6.762  0.1801  0.2576 -0.2738
  122OSM    H3F12945   1.578   5.503   6.673 -0.2455  1.0296  0.3214
  122OSM    H3G12946   1.691   5.544   6.811  1.6388 -0.1885 -1.2288
  122OSM    C4F12947   1.529   5.437   6.876  0.4002 -0.3327  0.3695
  122OSM    H4F12948   1.473   5.346   6.845  0.6082  0.0311 -1.1763
  122OSM    H4G12949   1.448   5.510   6.894  1.1374  0.0197  2.5451
  122OSM    C5F12950   1.593   5.399   7.014 -0.4346 -0.0431  0.1550
  122OSM    H5F12951   1.658   5.311   6.994 -1.4931 -0.5663 -1.1218
  122OSM    H5G12952   1.499   5.375   7.069  1.2874 -0.8937  2.9040
  122OSM    C6F12953   1.662   5.515   7.084  0.8607 -0.1453 -0.2297
  122OSM    H6F12954   1.581   5.589   7.100 -0.6158 -1.6169 -0.6586
  122OSM    H6G12955   1.743   5.558   7.021  1.6601  1.7248  1.9391
  122OSM    C7F12956   1.724   5.464   7.208 -0.4995  0.6501 -0.1636
  122OSM    H7F12957   1.794   5.379   7.198  0.8937  0.9895  4.3123
  122OSM    H7G12958   1.648   5.430   7.282  0.6123  0.1403  0.7895
  122OSM    C8F12959   1.795   5.584   7.283 -0.3489 -0.5113  0.4321
  122OSM    H8F12960   1.715   5.650   7.324 -1.2195 -1.1074 -0.2634
  122OSM    H8G12961   1.851   5.654   7.218 -0.6315  1.1035  1.8480
  122OSM    C9F12962   1.889   5.530   7.391  1.1036 -0.0763 -0.3033
  122OSM    H9F12963   1.983   5.486   7.356  0.5207 -0.2267 -1.7387
  122OSM   C10F12964   1.881   5.556   7.520 -0.2666  0.6963  0.2505
  122OSM   H10F12965   1.956   5.506   7.584  1.8164  0.0893 -2.4606
  122OSM   C11F12966   1.777   5.646   7.585 -0.2769  0.7764  0.4107
  122OSM   H11F12967   1.674   5.619   7.553  0.0999  0.4591 -0.5564
  122OSM   H11G12968   1.793   5.753   7.562  0.2912  1.0614  1.9838
  122OSM   C12F12969   1.781   5.650   7.743  0.4015  0.6755 -0.4664
  122OSM   H12F12970   1.694   5.709   7.778  0.6070  0.3560  0.6552
  122OSM   H12G12971   1.877   5.693   7.777 -0.6029  3.8358 -1.3263
  122OSM   C13F12972   1.748   5.518   7.806  0.1096 -0.5196 -0.7798
  122OSM   H13F12973   1.813   5.434   7.773 -0.0988 -2.3284  2.8977
  122OSM   H13G12974   1.639   5.502   7.789  0.1392 -0.1104 -1.3605
  122OSM   C14F12975   1.746   5.527   7.962  0.5202  0.3199  0.1955
  122OSM   H14F12976   1.676   5.607   7.995  0.0907 -0.6712  1.8328
  122OSM   H14G12977   1.848   5.555   7.997  1.1308 -0.9662 -0.5225
  122OSM   C15F12978   1.705   5.404   8.045  0.4909 -0.7682 -0.0647
  122OSM   H15F12979   1.774   5.319   8.025  0.2612 -0.5677 -1.8415
  122OSM   H15G12980   1.603   5.373   8.015  0.5269 -0.3923 -0.5913
  122OSM   C16F12981   1.706   5.420   8.202 -0.0033  0.0031 -0.1974
  122OSM   H16F12982   1.622   5.484   8.237 -1.0023 -1.3182 -0.0988
  122OSM   H16G12983   1.803   5.463   8.235 -0.1153 -1.3825  2.2289
  122OSM   C17F12984   1.688   5.287   8.272  0.2574 -0.0799  0.0542
  122OSM   H17F12985   1.761   5.216   8.229  0.9769  0.0944  0.9472
  122OSM   H17G12986   1.586   5.251   8.244  0.3187 -2.8849  2.7905
  122OSM   C18F12987   1.680   5.285   8.422 -0.2803 -0.0312  0.7836
  122OSM   H18F12988   1.592   5.344   8.455  2.2161  3.1322  2.3504
  122OSM   H18G12989   1.767   5.325   8.478 -0.5191 -0.0605  1.1778
  122OSM   H18H12990   1.678   5.176   8.446 -3.7659 -0.0458  0.8506
  123OSM      N12991   5.285   1.466   6.264 -0.3384 -0.5322 -0.7943
  123OSM    C1512992   5.399   1.376   6.281 -0.1223  0.7660 -0.2452
  123OSM   H15A12993   5.375   1.285   6.334  0.6776  0.6804 -0.0177
  123OSM   H15B12994   5.482   1.426   6.329 -0.1529  2.0886 -1.4852
  123OSM   H15C12995   5.438   1.345   6.185  1.4904 -0.6580  0.8158
  123OSM    C1412996   5.339   1.597   6.214  0.0373 -0.0882 -0.2741
  123OSM   H14A12997   5.260   1.670   6.208 -0.2062 -0.2571  0.7568
  123OSM   H14B12998   5.382   1.590   6.115  1.4197 -0.2466  0.3148
  123OSM   H14C12999   5.407   1.634   6.289 -1.3238  2.6023 -0.2694
  123OSM    C1313000   5.182   1.418   6.162 -0.4740 -0.3651  0.0995
  123OSM   H13A13001   5.155   1.316   6.189 -1.7626 -0.1132 -0.1665
  123OSM   H13B13002   5.233   1.418   6.067  0.1931  0.4688  0.4567
  123OSM   H13C13003   5.097   1.484   6.162  1.3573  2.1567 -1.5005
  123OSM    C1213004   5.213   1.490   6.403 -0.1001  0.7482 -0.3612
  123OSM   H12A13005   5.119   1.541   6.397 -1.1529 -0.4577  3.1597
  123OSM   H12B13006   5.273   1.553   6.467  1.8655 -1.1578 -0.1841
  123OSM    C1113007   5.193   1.350   6.481 -1.2321 -1.3916  0.0893
  123OSM   H11A13008   5.130   1.365   6.572  0.4548 -0.3280  1.1451
  123OSM   H11B13009   5.294   1.321   6.517 -1.0100 -0.7618 -0.0103
  123OSM      P13010   5.147   1.091   6.415  0.1013  0.1710  0.1722
  123OSM    O1313011   5.052   1.025   6.324 -0.2270  0.2345  0.2197
  123OSM    O1413012   5.288   1.060   6.403 -0.2398  0.0683 -0.2293
  123OSM    O1113013   5.104   1.071   6.573  0.1831 -0.1018  0.0647
  123OSM    O1213014   5.136   1.252   6.406 -0.4933 -0.7707  0.3786
  123OSM    C1S13015   4.964   1.040   6.594 -0.2293  0.0089 -0.4516
  123OSM    H1S13016   4.941   0.941   6.548  1.8317 -1.0622  0.6390
  123OSM    H1T13017   4.894   1.114   6.550  1.6998  0.6892 -2.5226
  123OSM     NF13018   4.798   0.955   6.747  0.4719 -0.1428  0.1294
  123OSM    HNF13019   4.724   1.021   6.734 -0.6726 -1.8734 -3.1562
  123OSM    C2S13020   4.935   1.013   6.744 -0.0405 -0.3522 -0.6370
  123OSM    H2S13021   5.001   0.936   6.788 -0.4706  0.0747  0.7977
  123OSM    C3S13022   4.943   1.148   6.822  0.3275  0.5927  0.1258
  123OSM    H3S13023   4.868   1.214   6.773  0.0140  0.2629  0.1629
  123OSM     O313024   5.069   1.213   6.795  0.4351  0.0596  0.0025
  123OSM    HO313025   5.113   1.161   6.728 -1.6106 -0.0189 -1.3616
  123OSM    C4S13026   4.899   1.130   6.959 -0.8767  0.0645 -0.5258
  123OSM    H4S13027   4.789   1.133   6.961 -0.8850  3.3038  1.7976
  123OSM    C5S13028   4.973   1.108   7.069 -0.8443  0.3905 -0.0288
  123OSM    H5S13029   5.081   1.099   7.054 -0.5112  0.3651  2.0954
  123OSM    C6S13030   4.926   1.085   7.216  0.5360 -0.7106  0.0913
  123OSM    H6S13031   5.002   1.128   7.285 -0.4255 -0.5409  1.0617
  123OSM    H6T13032   4.940   0.976   7.226  1.2263 -0.5715  0.7020
  123OSM    C7S13033   4.782   1.115   7.261 -0.8262 -0.4002  1.3493
  123OSM    H7S13034   4.712   1.038   7.223  1.2646 -1.4874 -0.5300
  123OSM    H7T13035   4.752   1.213   7.219  0.0375 -0.7551 -0.1816
  123OSM    C8S13036   4.768   1.102   7.412  0.5024  0.8119  0.5666
  123OSM    H8S13037   4.851   1.160   7.459  1.9332 -0.4399 -0.3103
  123OSM    H8T13038   4.772   0.996   7.446  1.9649  0.2440 -1.1806
  123OSM    C9S13039   4.636   1.167   7.465 -0.4419  0.6889  0.2754
  123OSM    H9S13040   4.547   1.125   7.413 -0.4132 -1.1238  1.5797
  123OSM    H9T13041   4.652   1.274   7.442  1.6074  0.1716 -0.9076
  123OSM   C10S13042   4.633   1.139   7.613  0.4019 -0.3585 -0.7009
  123OSM   H10S13043   4.733   1.167   7.651 -1.1101  1.0748  2.6204
  123OSM   H10T13044   4.621   1.030   7.628  0.0042 -0.2395 -0.1105
  123OSM   C11S13045   4.524   1.215   7.682 -0.6735  0.4739 -0.2821
  123OSM   H11S13046   4.433   1.170   7.635 -0.1643 -1.2361  0.2919
  123OSM   H11T13047   4.526   1.322   7.652  0.5495  0.9579  1.4281
  123OSM   C12S13048   4.517   1.182   7.832  0.0698  0.1800 -0.2766
  123OSM   H12S13049   4.616   1.194   7.881  1.2579 -1.6795 -2.0368
  123OSM   H12T13050   4.483   1.078   7.847 -0.7740  0.3263 -1.0457
  123OSM   C13S13051   4.418   1.280   7.900 -0.1537 -0.8834  0.6075
  123OSM   H13S13052   4.368   1.242   7.992 -1.7589 -2.2910 -0.7842
  123OSM   H13T13053   4.336   1.301   7.829 -1.0703  0.5704  2.0480
  123OSM   C14S13054   4.486   1.411   7.941 -0.5741  0.2438  0.5765
  123OSM   H14S13055   4.497   1.469   7.847  0.7093 -2.2538 -0.9271
  123OSM   H14T13056   4.588   1.392   7.980  0.3152 -1.0466 -2.1098
  123OSM   C15S13057   4.405   1.495   8.043 -0.0954  0.6025  0.4410
  123OSM   H15S13058   4.391   1.447   8.142 -1.9915  1.0914  0.4565
  123OSM   H15T13059   4.305   1.510   7.996  0.2888  1.8320 -0.0420
  123OSM   C16S13060   4.462   1.644   8.070 -0.3906  0.2103  0.8914
  123OSM   H16S13061   4.390   1.714   8.116 -0.3414  0.2513  0.9072
  123OSM   H16T13062   4.491   1.686   7.970 -0.8262  0.5595  0.9099
  123OSM   C17S13063   4.582   1.644   8.171 -0.3580 -0.4632  0.0020
  123OSM   H17S13064   4.673   1.607   8.120  0.1575 -0.0022  0.5653
  123OSM   H17T13065   4.552   1.579   8.256 -0.8558 -0.8065 -0.4290
  123OSM   C18S13066   4.624   1.783   8.224 -0.2561  0.3226 -0.1748
  123OSM   H18S13067   4.553   1.827   8.297  0.2946 -0.1692  0.6798
  123OSM   H18T13068   4.661   1.845   8.139  1.6995  0.1142  0.4578
  123OSM   H18U13069   4.717   1.758   8.281  1.8884  0.3810 -3.3778
  123OSM    C1F13070   4.785   0.819   6.733 -0.5518  1.1647 -0.4724
  123OSM     OF13071   4.884   0.751   6.708  0.1238  0.5983  0.7879
  123OSM    C2F13072   4.646   0.760   6.736 -0.1761  0.1582  0.9544
  123OSM    H2F13073   4.624   0.693   6.649 -0.6777  0.7455  0.6165
  123OSM    H2G13074   4.572   0.843   6.738 -0.4372 -0.0771  2.7222
  123OSM    C3F13075   4.627   0.688   6.867  0.6601  0.4837 -0.5737
  123OSM    H3F13076   4.655   0.757   6.950  0.2806  0.3436 -0.3262
  123OSM    H3G13077   4.693   0.599   6.878  0.1999  0.0195 -1.5071
  123OSM    C4F13078   4.482   0.641   6.909  0.1837  0.1846 -0.7017
  123OSM    H4F13079   4.460   0.560   6.837  1.1856 -0.9931  0.2751
  123OSM    H4G13080   4.402   0.716   6.890 -3.1225 -2.4364  1.6179
  123OSM    C5F13081   4.479   0.577   7.048  0.4302  0.3054 -0.7074
  123OSM    H5F13082   4.470   0.654   7.128 -0.1824 -1.4418  0.9866
  123OSM    H5G13083   4.571   0.520   7.072  0.3857  0.1900 -0.8126
  123OSM    C6F13084   4.358   0.479   7.057 -0.5287 -1.2780  0.2803
  123OSM    H6F13085   4.384   0.396   6.987  1.7441  0.9951 -1.8128
  123OSM    H6G13086   4.261   0.526   7.030  0.6628  0.6607 -0.8298
  123OSM    C7F13087   4.346   0.423   7.204  0.1894  0.4192 -0.5331
  123OSM    H7F13088   4.328   0.509   7.273 -2.0338 -1.0726  0.8514
  123OSM    H7G13089   4.442   0.377   7.236 -0.2320 -0.1380 -0.0593
  123OSM    C8F13090   4.227   0.321   7.217  0.0536 -0.5203 -0.0745
  123OSM    H8F13091   4.248   0.250   7.134 -0.0545  1.4118 -1.8241
  123OSM    H8G13092   4.130   0.372   7.200  0.5045  0.6153  0.6403
  123OSM    C9F13093   4.249   0.245   7.345  0.4459 -0.0999  0.1854
  123OSM    H9F13094   4.291   0.144   7.334  2.1066  0.4679  1.0678
  123OSM   C10F13095   4.235   0.293   7.471  0.3391 -0.1496  0.2515
  123OSM   H10F13096   4.244   0.225   7.557  1.0418 -0.0306  0.2835
  123OSM   C11F13097   4.171   0.424   7.513 -0.2071  0.7105  1.0425
  123OSM   H11F13098   4.104   0.463   7.434  1.0865  3.9092  1.3918
  123OSM   H11G13099   4.249   0.502   7.525  0.2290  0.4281  0.0504
  123OSM   C12F13100   4.078   0.416   7.641  0.1179  0.4746  0.2286
  123OSM   H12F13101   3.991   0.346   7.633  1.1391 -1.0247  1.4905
  123OSM   H12G13102   4.037   0.519   7.646 -0.3485  0.3251 -0.3301
  123OSM   C13F13103   4.142   0.389   7.782 -0.4541  0.9021  0.3184
  123OSM   H13F13104   4.151   0.280   7.800 -3.5622  0.4146 -0.5216
  123OSM   H13G13105   4.074   0.414   7.866 -0.5377  0.7332  0.3020
  123OSM   C14F13106   4.277   0.457   7.795 -0.9852  0.2968  0.1776
  123OSM   H14F13107   4.259   0.565   7.776 -0.4712  0.5337  0.9601
  123OSM   H14G13108   4.342   0.408   7.720 -2.1590  1.2389 -1.5257
  123OSM   C15F13109   4.339   0.429   7.931  0.7377 -0.0249 -0.0789
  123OSM   H15F13110   4.448   0.450   7.932  0.5939  0.9442 -1.4007
  123OSM   H15G13111   4.315   0.324   7.957 -0.2894 -0.4372 -2.4178
  123OSM   C16F13112   4.274   0.538   8.030 -0.3349 -0.3331 -0.1701
  123OSM   H16F13113   4.164   0.526   8.041 -1.2478  5.0500 -0.3962
  123OSM   H16G13114   4.300   0.633   7.979  1.9532 -1.0768 -0.5107
  123OSM   C17F13115   4.345   0.537   8.166 -0.0316  0.1841  0.3224
  123OSM   H17F13116   4.455   0.540   8.149  0.7485 -1.0465  4.1070
  123OSM   H17G13117   4.317   0.444   8.220  1.3998  0.2950  1.3050
  123OSM   C18F13118   4.295   0.654   8.253  0.0070 -0.5781 -0.5138
  123OSM   H18F13119   4.359   0.653   8.343 -1.4713 -2.3712  0.5956
  123OSM   H18G13120   4.187   0.640   8.276  0.0043 -0.6254 -0.5537
  123OSM   H18H13121   4.303   0.754   8.205 -1.6329  0.3680  1.0665
  124OSM      N13122   6.667   3.880   6.168 -0.3112 -0.6154 -0.3447
  124OSM    C1513123   6.759   3.868   6.049 -0.1876  0.0331 -0.1737
  124OSM   H15A13124   6.783   3.767   6.022 -1.8125 -0.7232  1.0513
  124OSM   H15B13125   6.849   3.928   6.050 -0.6690  0.8338 -1.4349
  124OSM   H15C13126   6.712   3.911   5.962 -1.5463  0.6421  0.8243
  124OSM    C1413127   6.532   3.803   6.140 -0.3866 -0.1299 -0.0617
  124OSM   H14A13128   6.548   3.699   6.115 -1.9844 -0.1894 -1.0117
  124OSM   H14B13129   6.482   3.844   6.053 -0.0893  0.7207  0.1592
  124OSM   H14C13130   6.469   3.826   6.224  1.1535  3.5466  0.2822
  124OSM    C1313131   6.719   3.813   6.290  0.5624 -0.3299  1.0562
  124OSM   H13A13132   6.758   3.716   6.264 -1.3999 -0.6158 -1.1634
  124OSM   H13B13133   6.639   3.807   6.362 -0.7051  2.6702  0.0593
  124OSM   H13C13134   6.793   3.875   6.338  2.2588 -0.4585 -1.2107
  124OSM    C1213135   6.634   4.024   6.197  0.1635 -0.5980 -0.4572
  124OSM   H12A13136   6.595   4.076   6.111  0.5077  0.9289  0.2846
  124OSM   H12B13137   6.726   4.076   6.216 -0.7038  0.9544 -0.3499
  124OSM    C1113138   6.548   4.057   6.325  0.0252 -0.2526 -0.4229
  124OSM   H11A13139   6.544   4.165   6.354 -0.3189 -0.3033 -0.2864
  124OSM   H11B13140   6.608   4.015   6.409 -0.0385  0.9567  0.2607
  124OSM      P13141   6.298   4.043   6.242  0.2399  0.1080  0.1409
  124OSM    O1313142   6.347   4.099   6.118  0.5008  0.2874 -0.1722
  124OSM    O1413143   6.200   3.931   6.233  0.2151  0.1785 -0.7422
  124OSM    O1113144   6.252   4.155   6.335 -0.8018 -0.5948 -0.1012
  124OSM    O1213145   6.423   3.990   6.325 -0.1400 -0.0542 -0.8423
  124OSM    C1S13146   6.192   4.117   6.458  0.0197 -0.3932 -0.4804
  124OSM    H1S13147   6.170   4.010   6.476 -0.2944 -0.0761  1.2839
  124OSM    H1T13148   6.089   4.160   6.456 -0.7710 -2.0844  0.9215
  124OSM     NF13149   6.187   4.116   6.701 -0.4606  0.1823  0.0223
  124OSM    HNF13150   6.111   4.176   6.725 -1.0590 -0.1099 -1.0637
  124OSM    C2S13151   6.260   4.171   6.589  0.2733  0.0905  0.6882
  124OSM    H2S13152   6.363   4.128   6.583 -0.2857 -1.5169  1.9918
  124OSM    C3S13153   6.278   4.330   6.586 -0.4317 -0.0894 -0.4030
  124OSM    H3S13154   6.184   4.376   6.550 -0.4651 -0.3247 -0.6162
  124OSM     O313155   6.383   4.359   6.505 -0.1452  0.2139  0.0274
  124OSM    HO313156   6.379   4.284   6.446  0.6945 -2.1160  2.7158
  124OSM    C4S13157   6.316   4.400   6.716  0.3890 -0.1177  0.4086
  124OSM    H4S13158   6.411   4.364   6.759  0.4213 -2.0364 -1.0972
  124OSM    C5S13159   6.250   4.501   6.768  0.8544 -0.0499  0.0843
  124OSM    H5S13160   6.159   4.530   6.713  0.2302 -0.6232  0.7918
  124OSM    C6S13161   6.276   4.574   6.899  0.1304  0.3510  0.3968
  124OSM    H6S13162   6.329   4.667   6.870 -3.0884  2.0162 -0.5708
  124OSM    H6T13163   6.346   4.509   6.956 -0.4290 -1.2503 -0.6640
  124OSM    C7S13164   6.156   4.612   6.985 -0.4425 -0.5266 -0.0501
  124OSM    H7S13165   6.086   4.526   6.992 -1.4598  0.2847 -0.0326
  124OSM    H7T13166   6.095   4.679   6.921 -0.5031 -0.6260 -0.0984
  124OSM    C8S13167   6.189   4.689   7.117 -0.0123 -0.1714  0.5560
  124OSM    H8S13168   6.246   4.779   7.085 -1.7257  0.7582 -0.0010
  124OSM    H8T13169   6.266   4.629   7.169  1.8966 -0.6943 -2.6176
  124OSM    C9S13170   6.065   4.721   7.194 -0.0270 -0.1568  0.0173
  124OSM    H9S13171   5.997   4.634   7.209 -1.2778  0.5187 -1.4399
  124OSM    H9T13172   6.005   4.798   7.141  0.1380 -1.5865 -2.4175
  124OSM   C10S13173   6.105   4.762   7.340 -0.5211 -0.0024 -0.2512
  124OSM   H10S13174   6.181   4.697   7.388  1.4043  1.6341 -0.9345
  124OSM   H10T13175   6.009   4.747   7.395 -1.5533  0.6037 -1.7994
  124OSM   C11S13176   6.159   4.904   7.356  0.3230  0.0582  0.7137
  124OSM   H11S13177   6.079   4.966   7.311  1.6827  0.7409 -0.8710
  124OSM   H11T13178   6.259   4.929   7.315 -0.1952 -0.7257 -1.1561
  124OSM   C12S13179   6.154   4.954   7.501  0.0834  0.4923  0.0291
  124OSM   H12S13180   6.057   4.938   7.552 -0.7033 -0.4756 -1.6807
  124OSM   H12T13181   6.173   5.063   7.504  1.6793  0.2381 -0.0486
  124OSM   C13S13182   6.262   4.904   7.592 -0.9989  0.1492  0.0554
  124OSM   H13S13183   6.358   4.925   7.539 -1.6425  5.0112  0.3336
  124OSM   H13T13184   6.243   4.798   7.619  0.5558  0.2026  1.5638
  124OSM   C14S13185   6.258   4.979   7.721 -1.0490  0.2536  0.6924
  124OSM   H14S13186   6.157   4.972   7.768 -0.0363  1.1267  3.1882
  124OSM   H14T13187   6.279   5.085   7.696  1.6482 -0.1241  1.0941
  124OSM   C15S13188   6.359   4.938   7.835  0.3427 -0.0149 -0.4298
  124OSM   H15S13189   6.370   5.030   7.897 -0.6008  1.6021 -2.5170
  124OSM   H15T13190   6.453   4.911   7.782  0.4508 -0.3102 -0.0894
  124OSM   C16S13191   6.305   4.821   7.915  0.6736 -0.7450 -0.2817
  124OSM   H16S13192   6.395   4.765   7.947 -0.6689 -3.6646 -1.2805
  124OSM   H16T13193   6.239   4.758   7.851  0.2196 -1.4080  0.8079
  124OSM   C17S13194   6.218   4.858   8.037 -0.0401  0.3209 -0.0266
  124OSM   H17S13195   6.136   4.927   8.006  0.0488  0.4403 -0.0002
  124OSM   H17T13196   6.275   4.919   8.111 -1.3211  0.9167  0.5193
  124OSM   C18S13197   6.163   4.731   8.114  0.7169  0.2890  0.2168
  124OSM   H18S13198   6.102   4.672   8.042 -1.6417  0.5315  1.9045
  124OSM   H18T13199   6.088   4.765   8.188 -0.7793 -0.3701 -0.9396
  124OSM   H18U13200   6.248   4.672   8.153  0.4356  1.0397  2.0941
  124OSM    C1F13201   6.198   3.990   6.740  0.2858  0.0208 -0.5891
  124OSM     OF13202   6.273   3.912   6.677 -0.1154  0.3415  0.0477
  124OSM    C2F13203   6.120   3.939   6.859  0.6329  0.3194  0.5945
  124OSM    H2F13204   6.032   3.879   6.829  0.4821 -0.0083  1.6429
  124OSM    H2G13205   6.099   4.019   6.932  1.0947 -0.7511  1.9479
  124OSM    C3F13206   6.200   3.832   6.937 -0.2996 -0.1999  0.0130
  124OSM    H3F13207   6.302   3.869   6.963 -0.2047  1.3253 -2.2566
  124OSM    H3G13208   6.205   3.737   6.880 -0.7772  0.5969 -1.4069
  124OSM    C4F13209   6.130   3.788   7.064  0.3372 -0.3093 -0.0427
  124OSM    H4F13210   6.031   3.737   7.057  0.4151 -1.2370  3.4775
  124OSM    H4G13211   6.110   3.884   7.116  0.7143 -0.1430 -0.2039
  124OSM    C5F13212   6.217   3.703   7.153 -0.4088 -0.2208  0.0617
  124OSM    H5F13213   6.324   3.734   7.155 -0.9504  1.7306  0.0429
  124OSM    H5G13214   6.230   3.607   7.098  1.2489  2.0146 -3.8046
  124OSM    C6F13215   6.163   3.673   7.297 -0.2325 -0.6272 -0.5040
  124OSM    H6F13216   6.228   3.597   7.343 -0.4378 -0.2375  0.4473
  124OSM    H6G13217   6.059   3.636   7.284 -0.6303  0.7169 -1.4248
  124OSM    C7F13218   6.151   3.803   7.385 -0.3182  0.2790 -0.2760
  124OSM    H7F13219   6.084   3.874   7.332 -2.7893 -1.3036  0.5451
  124OSM    H7G13220   6.249   3.851   7.400  0.0697  0.2367 -2.3424
  124OSM    C8F13221   6.091   3.784   7.520  0.3435  0.0611 -0.6427
  124OSM    H8F13222   6.156   3.714   7.577 -0.7439  0.4901  1.2254
  124OSM    H8G13223   5.991   3.735   7.514 -1.7140  3.4701  1.8132
  124OSM    C9F13224   6.077   3.913   7.604 -0.0182  0.3282  1.0904
  124OSM    H9F13225   6.021   3.994   7.555 -1.5834 -0.7368  1.0506
  124OSM   C10F13226   6.135   3.935   7.725  1.1598  0.3382 -0.0345
  124OSM   H10F13227   6.127   4.038   7.764 -0.3669 -0.4371  1.8134
  124OSM   C11F13228   6.208   3.831   7.809 -1.0492 -0.9272  0.4550
  124OSM   H11F13229   6.299   3.793   7.757 -0.3344  2.7260 -1.2989
  124OSM   H11G13230   6.147   3.741   7.830 -1.1086 -0.8832  0.4714
  124OSM   C12F13231   6.264   3.897   7.933  0.2862  0.7378 -0.3015
  124OSM   H12F13232   6.292   3.820   8.008 -0.8851  0.3694 -0.2341
  124OSM   H12G13233   6.176   3.944   7.980  1.1161 -1.3141  3.6813
  124OSM   C13F13234   6.383   4.000   7.903 -0.0903 -0.4311 -0.3643
  124OSM   H13F13235   6.353   4.095   7.853  1.3129  1.9045  2.8419
  124OSM   H13G13236   6.453   3.948   7.835  0.2094  0.2206 -0.5628
  124OSM   C14F13237   6.461   4.026   8.028 -0.4859  0.2105 -0.3950
  124OSM   H14F13238   6.554   4.082   8.003 -1.3893  1.3941 -1.2370
  124OSM   H14G13239   6.501   3.934   8.075  1.9153  2.6734  2.8906
  124OSM   C15F13240   6.373   4.096   8.130 -0.1438 -0.1901 -0.4394
  124OSM   H15F13241   6.313   4.014   8.175 -2.0823  0.0699 -2.4061
  124OSM   H15G13242   6.298   4.156   8.073  0.1972  0.9057  0.2343
  124OSM   C16F13243   6.440   4.188   8.232 -0.3934 -0.8488 -0.3780
  124OSM   H16F13244   6.515   4.255   8.186  0.3131 -0.5352  1.1397
  124OSM   H16G13245   6.489   4.129   8.313  1.2257  0.0374 -0.6675
  124OSM   C17F13246   6.342   4.285   8.301  0.5668 -0.2684  0.1289
  124OSM   H17F13247   6.312   4.366   8.231  0.4283  0.6649  1.2404
  124OSM   H17G13248   6.399   4.349   8.371  1.7759  1.1009 -1.9849
  124OSM   C18F13249   6.219   4.215   8.369 -0.7004  0.1468 -0.3896
  124OSM   H18F13250   6.148   4.184   8.289 -0.8519  2.5197 -1.2389
  124OSM   H18G13251   6.166   4.287   8.435 -2.8529 -1.7430  0.0673
  124OSM   H18H13252   6.251   4.136   8.441 -1.8102 -1.3889 -1.4964
  125OSM      N13253   3.740   5.218   6.361 -0.2172  0.6538 -0.3558
  125OSM    C1513254   3.844   5.322   6.392 -0.0950  0.0020 -0.3792
  125OSM   H15A13255   3.881   5.301   6.491 -1.5163 -1.4028 -0.0947
  125OSM   H15B13256   3.802   5.420   6.405 -0.6691 -0.1376 -1.0605
  125OSM   H15C13257   3.924   5.329   6.320  0.4669  2.4084  0.4141
  125OSM    C1413258   3.628   5.221   6.460  0.3817 -0.6798  0.1200
  125OSM   H14A13259   3.658   5.227   6.563 -0.5957  0.5784  0.3663
  125OSM   H14B13260   3.562   5.136   6.451  0.2090 -0.6123  0.7052
  125OSM   H14C13261   3.567   5.310   6.448 -1.0292 -1.2857  2.2094
  125OSM    C1313262   3.696   5.240   6.221 -0.2023  0.6903  0.1184
  125OSM   H13A13263   3.627   5.323   6.219 -0.8178  0.2543 -3.4081
  125OSM   H13B13264   3.656   5.145   6.188 -1.7578  1.4297 -0.2400
  125OSM   H13C13265   3.784   5.263   6.163  0.3266 -1.3268  0.0575
  125OSM    C1213266   3.808   5.087   6.373  0.4604 -0.4824  0.4713
  125OSM   H12A13267   3.739   5.008   6.395 -1.5675  1.3210  0.8863
  125OSM   H12B13268   3.869   5.083   6.462 -0.0594 -5.0449  0.8528
  125OSM    C1113269   3.903   5.046   6.256 -0.1426  0.5138  0.1740
  125OSM   H11A13270   3.951   4.956   6.301 -0.8771 -0.6911 -1.3738
  125OSM   H11B13271   3.992   5.110   6.244  1.6563 -1.8391  0.2993
  125OSM      P13272   3.779   4.874   6.102  0.5825 -0.0455 -0.1029
  125OSM    O1313273   3.644   4.891   6.042 -0.0419 -0.4611 -0.5043
  125OSM    O1413274   3.877   4.789   6.030 -0.5125  0.0063  0.6292
  125OSM    O1113275   3.750   4.819   6.242 -0.5058  0.5381 -0.0349
  125OSM    O1213276   3.843   5.016   6.127  0.1000  0.2355 -0.5192
  125OSM    C1S13277   3.839   4.720   6.299  0.7313 -0.2458 -0.2029
  125OSM    H1S13278   3.944   4.754   6.291  1.3136 -0.9778  2.9318
  125OSM    H1T13279   3.829   4.623   6.246 -1.4130 -0.2882  0.1697
  125OSM     NF13280   3.898   4.577   6.495  0.0544 -0.6403  0.8249
  125OSM    HNF13281   3.846   4.494   6.517  0.1761 -0.1391  3.1534
  125OSM    C2S13282   3.812   4.684   6.450 -0.4344 -0.1898 -0.2511
  125OSM    H2S13283   3.840   4.778   6.502  1.1674 -0.2010 -1.0201
  125OSM    C3S13284   3.660   4.660   6.484 -0.9143 -0.1530  0.5517
  125OSM    H3S13285   3.635   4.559   6.444  0.6200 -0.4991  0.3906
  125OSM     O313286   3.575   4.741   6.410  0.5088  0.0202 -0.2860
  125OSM    HO313287   3.631   4.760   6.335  0.4070 -0.5876 -0.5253
  125OSM    C4S13288   3.627   4.683   6.628 -0.1091 -0.3886  0.2005
  125OSM    H4S13289   3.632   4.788   6.661 -2.3224 -0.2018  0.1332
  125OSM    C5S13290   3.607   4.585   6.722 -0.2800  0.3138  0.2863
  125OSM    H5S13291   3.605   4.479   6.691 -1.6418  0.4730 -0.2340
  125OSM    C6S13292   3.579   4.619   6.866  0.0713 -0.7890 -0.2806
  125OSM    H6S13293   3.541   4.722   6.882 -0.5470 -0.6538 -2.3308
  125OSM    H6T13294   3.673   4.612   6.925 -0.3642  1.3212  0.7731
  125OSM    C7S13295   3.481   4.524   6.937  0.1806  0.3510  0.0144
  125OSM    H7S13296   3.514   4.418   6.927 -1.2718 -0.3298  1.8055
  125OSM    H7T13297   3.381   4.527   6.888 -1.6953 -0.5370  3.5010
  125OSM    C8S13298   3.474   4.560   7.083 -0.2107 -0.1771  0.2508
  125OSM    H8S13299   3.462   4.669   7.096  0.2879 -0.1960  0.8818
  125OSM    H8T13300   3.576   4.538   7.120 -0.5746 -1.5876  0.4722
  125OSM    C9S13301   3.375   4.481   7.161  0.0530  0.3906  0.5918
  125OSM    H9S13302   3.383   4.372   7.141 -0.7009  0.4781 -0.2213
  125OSM    H9T13303   3.276   4.516   7.124  0.9322 -0.7190 -3.2867
  125OSM   C10S13304   3.395   4.503   7.306  0.0217  0.1769 -0.3296
  125OSM   H10S13305   3.358   4.605   7.328  0.4349 -0.1038  1.8913
  125OSM   H10T13306   3.500   4.485   7.338  0.0535 -1.2886 -1.1887
  125OSM   C11S13307   3.320   4.399   7.389 -0.1579 -0.3754  0.4910
  125OSM   H11S13308   3.366   4.301   7.363 -1.7568 -0.8785 -0.5883
  125OSM   H11T13309   3.216   4.395   7.353 -0.4689  0.9293  1.1741
  125OSM   C12S13310   3.329   4.417   7.539 -0.0115 -0.6273  0.0637
  125OSM   H12S13311   3.345   4.526   7.546  0.8934 -0.6739 -0.9602
  125OSM   H12T13312   3.417   4.357   7.571  0.6589  1.3005  2.0105
  125OSM   C13S13313   3.205   4.367   7.607  0.0236  0.0915 -0.4504
  125OSM   H13S13314   3.178   4.270   7.561  3.0586 -1.6458  1.0454
  125OSM   H13T13315   3.124   4.441   7.601  2.7426  3.4209  0.7235
  125OSM   C14S13316   3.224   4.336   7.757 -0.0927  0.1335 -0.3004
  125OSM   H14S13317   3.268   4.430   7.798 -0.2419  0.8229 -1.6403
  125OSM   H14T13318   3.296   4.255   7.779  0.4285  0.8021  0.5533
  125OSM   C15S13319   3.090   4.321   7.835 -0.2955  0.0642  0.3873
  125OSM   H15S13320   3.052   4.223   7.798  3.4968 -1.5054  0.2668
  125OSM   H15T13321   3.018   4.402   7.811 -1.9227 -2.0594 -2.5923
  125OSM   C16S13322   3.107   4.305   7.982 -0.0677  0.1284 -0.2606
  125OSM   H16S13323   3.127   4.399   8.039 -1.4687  0.0753  0.3812
  125OSM   H16T13324   3.176   4.222   8.008 -0.9355 -0.3418  0.6155
  125OSM   C17S13325   2.974   4.270   8.046 -0.0075  0.1472  0.0480
  125OSM   H17S13326   2.944   4.170   8.007 -0.0399 -1.1189  3.0059
  125OSM   H17T13327   2.898   4.345   8.017 -0.9362 -1.0700 -0.7561
  125OSM   C18S13328   2.988   4.258   8.199  1.0137 -0.6019 -0.0716
  125OSM   H18S13329   3.081   4.201   8.218  1.3496 -0.0505 -0.0331
  125OSM   H18T13330   2.906   4.195   8.241  0.3764  1.0920  1.3535
  125OSM   H18U13331   2.982   4.357   8.250 -0.1084 -0.6900 -0.0096
  125OSM    C1F13332   4.025   4.596   6.519 -0.3607 -0.2710  0.2530
  125OSM     OF13333   4.083   4.702   6.503 -0.4791 -0.4696  0.0553
  125OSM    C2F13334   4.099   4.477   6.560 -0.5415  0.0595 -0.5950
  125OSM    H2F13335   4.189   4.473   6.495  0.3917 -0.1209  0.6744
  125OSM    H2G13336   4.037   4.388   6.536  0.0291 -0.6063  0.3500
  125OSM    C3F13337   4.136   4.482   6.710  0.2091  0.2560  0.0314
  125OSM    H3F13338   4.166   4.579   6.754 -1.8760  0.4477  1.1454
  125OSM    H3G13339   4.206   4.399   6.732  0.8126  0.3776 -1.3073
  125OSM    C4F13340   4.014   4.417   6.791 -0.2072 -0.5223  0.5240
  125OSM    H4F13341   4.024   4.311   6.759  1.4521  0.4572 -2.7002
  125OSM    H4G13342   3.918   4.452   6.748  0.8166 -1.3369 -2.7514
  125OSM    C5F13343   4.018   4.452   6.942 -0.1911  0.1667  0.7142
  125OSM    H5F13344   4.003   4.562   6.951  2.1479  0.7248 -1.2150
  125OSM    H5G13345   4.123   4.430   6.971 -0.3015 -0.0910  0.9192
  125OSM    C6F13346   3.943   4.364   7.038  0.0717  0.3672 -0.4106
  125OSM    H6F13347   3.978   4.260   7.016 -1.2724 -0.2372  0.1737
  125OSM    H6G13348   3.833   4.378   7.030 -0.1071  0.9633  2.2674
  125OSM    C7F13349   3.966   4.407   7.190 -0.2944 -0.3750  0.5293
  125OSM    H7F13350   3.941   4.514   7.209  0.4653  0.0916 -0.8829
  125OSM    H7G13351   4.074   4.395   7.213 -0.3627  0.1078  1.1332
  125OSM    C8F13352   3.904   4.316   7.292 -0.1922  0.5133  0.0880
  125OSM    H8F13353   3.948   4.216   7.274 -0.6296  0.4662 -0.7690
  125OSM    H8G13354   3.796   4.305   7.268  0.0322  0.7497 -1.0833
  125OSM    C9F13355   3.939   4.370   7.432  0.3362  0.2828 -0.0158
  125OSM    H9F13356   4.040   4.414   7.440  0.0887  1.0543 -0.9769
  125OSM   C10F13357   3.847   4.379   7.533 -1.0148  0.0104  0.2675
  125OSM   H10F13358   3.898   4.419   7.622  0.7884 -0.9843 -0.2803
  125OSM   C11F13359   3.709   4.331   7.553 -0.2356 -0.6296  0.6298
  125OSM   H11F13360   3.686   4.246   7.485 -0.9242 -2.4547  3.0083
  125OSM   H11G13361   3.630   4.406   7.533  0.3534 -0.3344 -0.7703
  125OSM   C12F13362   3.704   4.280   7.698  0.6017  0.2944  0.4254
  125OSM   H12F13363   3.804   4.241   7.727  0.7857  0.9937  0.7333
  125OSM   H12G13364   3.619   4.209   7.708  0.4863  0.4043  0.2108
  125OSM   C13F13365   3.654   4.400   7.787  0.2356  0.2298  0.3266
  125OSM   H13F13366   3.594   4.472   7.727 -0.5232 -0.7757 -0.1424
  125OSM   H13G13367   3.737   4.467   7.819  1.2792 -1.8013  2.1954
  125OSM   C14F13368   3.566   4.368   7.903 -0.4562 -0.2309 -0.0975
  125OSM   H14F13369   3.472   4.317   7.877 -0.5460  0.6703 -1.6843
  125OSM   H14G13370   3.538   4.467   7.946 -0.3305 -0.3510  0.2619
  125OSM   C15F13371   3.620   4.270   8.015 -0.0383  0.1728 -0.1592
  125OSM   H15F13372   3.714   4.320   8.045  0.2669 -0.6409  0.2708
  125OSM   H15G13373   3.658   4.174   7.974  0.9845  0.2075  0.6791
  125OSM   C16F13374   3.526   4.242   8.129 -0.3080  0.0178 -0.7455
  125OSM   H16F13375   3.562   4.155   8.189  0.0341 -0.8538 -2.1596
  125OSM   H16G13376   3.420   4.219   8.107 -0.3057  0.4063 -1.1769
  125OSM   C17F13377   3.519   4.362   8.226 -0.1777  0.0992  0.3674
  125OSM   H17F13378   3.500   4.463   8.185  0.6917  0.9147  1.8889
  125OSM   H17G13379   3.626   4.372   8.255  0.4931  2.0498 -2.4062
  125OSM   C18F13380   3.422   4.331   8.344 -0.6125  0.0589  0.2640
  125OSM   H18F13381   3.450   4.237   8.395 -2.5966 -1.4404 -1.2446
  125OSM   H18G13382   3.312   4.332   8.324 -0.4575  0.4777 -0.5997
  125OSM   H18H13383   3.433   4.411   8.420 -1.4238 -0.8420  1.3687
  126OSM      N13384   6.392   6.378   6.101 -0.0183 -0.3042 -0.1527
  126OSM    C1513385   6.356   6.518   6.086 -0.0898  0.5382 -0.6510
  126OSM   H15A13386   6.375   6.568   6.180  2.4761 -0.9873 -0.2903
  126OSM   H15B13387   6.251   6.536   6.068 -0.0046  2.4099  0.4382
  126OSM   H15C13388   6.414   6.569   6.011  1.1983  1.3591  0.8674
  126OSM    C1413389   6.341   6.302   5.990 -0.3414  0.1100  0.9354
  126OSM   H14A13390   6.361   6.196   5.994 -0.0891 -0.0036 -1.6596
  126OSM   H14B13391   6.394   6.325   5.898  1.7211 -4.4555  0.7109
  126OSM   H14C13392   6.237   6.326   5.978 -0.6258 -0.7464  1.6254
  126OSM    C1313393   6.539   6.376   6.108  0.4904 -0.4417  0.3389
  126OSM   H13A13394   6.587   6.419   6.195 -1.0609  0.0766  0.9719
  126OSM   H13B13395   6.587   6.422   6.023 -0.9178 -1.6545 -1.1625
  126OSM   H13C13396   6.580   6.276   6.110  2.0519  0.1750  1.0222
  126OSM    C1213397   6.345   6.313   6.234  0.1768 -0.2256  0.5536
  126OSM   H12A13398   6.393   6.217   6.246  4.1465  1.3961 -0.7329
  126OSM   H12B13399   6.238   6.300   6.228  0.0587 -1.4171  3.3906
  126OSM    C1113400   6.355   6.389   6.367  0.1123 -0.5037 -0.1748
  126OSM   H11A13401   6.463   6.414   6.358  0.5124 -2.6291 -2.7578
  126OSM   H11B13402   6.324   6.322   6.450  0.7842 -1.1798 -0.4588
  126OSM      P13403   6.124   6.508   6.389 -0.4455 -0.0469  0.1303
  126OSM    O1313404   6.068   6.621   6.316 -0.0488 -0.1570 -0.5708
  126OSM    O1413405   6.070   6.374   6.351  0.5798 -0.3662 -0.2386
  126OSM    O1113406   6.100   6.528   6.548  0.0035 -0.0220  0.2198
  126OSM    O1213407   6.282   6.511   6.369  0.4265 -0.3971 -0.3269
  126OSM    C1S13408   6.212   6.539   6.632 -0.0759 -0.0876  0.3209
  126OSM    H1S13409   6.308   6.571   6.586 -0.3697  1.3091  0.6217
  126OSM    H1T13410   6.224   6.436   6.670 -0.5685 -0.3223 -0.1411
  126OSM     NF13411   6.312   6.594   6.847  0.5739 -0.0645 -0.8651
  126OSM    HNF13412   6.302   6.546   6.934  0.1226  0.2623 -0.7341
  126OSM    C2S13413   6.197   6.618   6.760  0.5970  0.2372 -0.0801
  126OSM    H2S13414   6.175   6.722   6.731 -1.8473 -0.3283 -0.5417
  126OSM    C3S13415   6.063   6.581   6.835  0.0272 -0.3435  0.7420
  126OSM    H3S13416   6.074   6.473   6.859  0.7693 -0.9591 -2.0407
  126OSM     O313417   5.944   6.584   6.745 -0.3381  0.0824 -0.3999
  126OSM    HO313418   5.983   6.609   6.661  1.8629  1.5904  0.9306
  126OSM    C4S13419   6.042   6.652   6.957 -0.7165  0.3406 -0.8273
  126OSM    H4S13420   6.061   6.585   7.042  2.2149  1.4354 -0.4619
  126OSM    C5S13421   5.990   6.778   6.973 -0.3804 -0.0042  0.3489
  126OSM    H5S13422   5.968   6.838   6.883  0.9172  1.2572  0.8440
  126OSM    C6S13423   5.964   6.852   7.099  0.3101 -0.5505 -0.3425
  126OSM    H6S13424   5.933   6.781   7.179 -3.1415  0.5127 -0.6147
  126OSM    H6T13425   5.887   6.929   7.079  2.8362  1.8127 -1.7763
  126OSM    C7S13426   6.087   6.932   7.145 -0.2992 -0.3356 -0.8431
  126OSM    H7S13427   6.113   7.005   7.065 -0.1995  0.8385  0.2292
  126OSM    H7T13428   6.173   6.864   7.164 -0.7844 -0.4460  1.1471
  126OSM    C8S13429   6.065   7.014   7.277 -0.5295 -0.0582  0.5566
  126OSM    H8S13430   5.974   7.076   7.261  0.1340  0.5810 -0.9344
  126OSM    H8T13431   6.152   7.083   7.285 -0.9183  0.6044 -0.6050
  126OSM    C9S13432   6.040   6.934   7.399 -0.2792 -0.3766 -0.2277
  126OSM    H9S13433   6.129   6.870   7.418  0.2778  0.7071  0.9533
  126OSM    H9T13434   5.953   6.872   7.370 -1.3610  1.3967 -0.9176
  126OSM   C10S13435   6.024   7.024   7.521  0.3770 -0.0407  0.2433
  126OSM   H10S13436   5.948   7.103   7.499 -0.9472 -1.8181 -2.0298
  126OSM   H10T13437   6.126   7.065   7.539  0.4437  0.3144 -0.8613
  126OSM   C11S13438   5.982   6.944   7.650  0.6185 -0.2569 -0.4405
  126OSM   H11S13439   6.028   6.844   7.640 -1.8126 -1.2052 -3.4131
  126OSM   H11T13440   5.873   6.924   7.655  0.4808  0.1385 -1.6875
  126OSM   C12S13441   6.025   7.009   7.782  0.0336 -0.0779 -0.3972
  126OSM   H12S13442   5.955   7.094   7.792 -1.7311 -1.7325  3.2732
  126OSM   H12T13443   6.132   7.039   7.785  0.5467 -1.7929  0.0680
  126OSM   C13S13444   6.003   6.910   7.899  0.9586  0.2242  0.1449
  126OSM   H13S13445   6.074   6.826   7.886  0.9789  0.2414  0.1465
  126OSM   H13T13446   5.899   6.872   7.898  0.7352  0.6983 -2.2551
  126OSM   C14S13447   6.033   6.970   8.036  0.2802  0.1514  0.5593
  126OSM   H14S13448   5.965   7.056   8.051 -2.9513 -2.2427  0.4893
  126OSM   H14T13449   6.140   7.001   8.033  0.1230  0.6792  0.1777
  126OSM   C15S13450   6.017   6.875   8.152 -0.6069  0.0976 -0.2598
  126OSM   H15S13451   6.092   6.795   8.133 -3.2883 -2.5294 -0.5231
  126OSM   H15T13452   5.924   6.815   8.150 -0.6568  0.1340 -2.7911
  126OSM   C16S13453   6.028   6.944   8.288  0.2189 -0.7679  0.4749
  126OSM   H16S13454   5.943   7.015   8.279  1.4065  0.4547 -4.2382
  126OSM   H16T13455   6.124   6.999   8.299  0.6866 -1.0127 -1.8604
  126OSM   C17S13456   6.016   6.840   8.401 -0.3373  0.0167 -0.4661
  126OSM   H17S13457   6.117   6.803   8.429 -0.9720 -1.1851  0.3439
  126OSM   H17T13458   5.970   6.743   8.371  1.5430 -1.3928  1.0023
  126OSM   C18S13459   5.948   6.894   8.526 -0.6620  0.3840 -0.4253
  126OSM   H18S13460   5.914   6.810   8.591  1.4954 -0.2982 -0.1239
  126OSM   H18T13461   5.859   6.947   8.483 -1.2669 -0.4750 -0.2608
  126OSM   H18U13462   6.013   6.962   8.585  0.7794 -1.3252  0.0285
  126OSM    C1F13463   6.432   6.653   6.817  0.0832  0.5571  0.3253
  126OSM     OF13464   6.441   6.724   6.710 -0.6295  0.5067 -0.3986
  126OSM    C2F13465   6.550   6.616   6.895 -0.0636  0.5838  0.2146
  126OSM    H2F13466   6.611   6.553   6.827 -0.5162  1.3999 -0.9867
  126OSM    H2G13467   6.525   6.554   6.983 -1.4149  0.6143 -0.1302
  126OSM    C3F13468   6.638   6.740   6.931 -0.1881  0.5868 -0.0625
  126OSM    H3F13469   6.680   6.801   6.848 -1.3678  2.0139  0.3527
  126OSM    H3G13470   6.734   6.694   6.962  0.1911  2.4202  1.6820
  126OSM    C4F13471   6.587   6.824   7.046  0.6694  0.2201 -1.2445
  126OSM    H4F13472   6.486   6.862   7.019  1.1661  0.5379 -2.7715
  126OSM    H4G13473   6.655   6.912   7.048  1.6657 -0.4533  2.1711
  126OSM    C5F13474   6.596   6.748   7.175  0.2595  0.3890 -0.7052
  126OSM    H5F13475   6.701   6.716   7.185 -0.4784 -2.2008 -0.5120
  126OSM    H5G13476   6.523   6.665   7.181 -0.2157  0.8667  0.4503
  126OSM    C6F13477   6.554   6.836   7.298  0.0896 -0.3837 -0.5702
  126OSM    H6F13478   6.446   6.859   7.299 -0.2223 -1.7930 -0.2283
  126OSM    H6G13479   6.610   6.932   7.298  0.4814 -0.5562  2.1453
  126OSM    C7F13480   6.590   6.764   7.425 -0.5424  0.6336  1.2010
  126OSM    H7F13481   6.701   6.763   7.431 -0.4514 -0.4428 -0.2805
  126OSM    H7G13482   6.573   6.654   7.415  0.6811  0.6268 -1.8804
  126OSM    C8F13483   6.529   6.828   7.550  0.0016 -0.6845 -0.3575
  126OSM    H8F13484   6.570   6.931   7.543  0.3638 -0.7620  0.4540
  126OSM    H8G13485   6.588   6.775   7.627  1.8690 -0.7754 -1.8035
  126OSM    C9F13486   6.380   6.826   7.594 -0.1122 -0.8153 -0.0154
  126OSM    H9F13487   6.311   6.862   7.516 -2.3039  0.4870  2.3694
  126OSM   C10F13488   6.336   6.787   7.715 -0.1922 -0.0937  0.2669
  126OSM   H10F13489   6.227   6.782   7.731 -0.6196 -1.5519 -2.4400
  126OSM   C11F13490   6.417   6.735   7.831  0.5694 -0.4644 -0.5914
  126OSM   H11F13491   6.526   6.756   7.824  0.3603  1.0951  0.3151
  126OSM   H11G13492   6.392   6.628   7.843 -0.4718 -0.4447 -2.2952
  126OSM   C12F13493   6.369   6.797   7.968 -0.1875 -0.1528  0.3571
  126OSM   H12F13494   6.258   6.795   7.978 -0.2837  1.4483 -0.0520
  126OSM   H12G13495   6.400   6.903   7.971 -1.3799  0.1885  1.6401
  126OSM   C13F13496   6.430   6.716   8.092 -0.6371 -0.4694  0.6701
  126OSM   H13F13497   6.540   6.731   8.090 -0.7399  0.3246 -0.1948
  126OSM   H13G13498   6.405   6.610   8.073 -1.2787  0.1989 -3.1161
  126OSM   C14F13499   6.389   6.748   8.238 -0.1445  0.9950  0.1106
  126OSM   H14F13500   6.290   6.703   8.258  1.0537 -1.1972  1.4232
  126OSM   H14G13501   6.371   6.857   8.249 -2.6222  0.4861  1.8176
  126OSM   C15F13502   6.482   6.684   8.344 -0.1936 -0.0051  0.2986
  126OSM   H15F13503   6.578   6.737   8.330 -0.3809  0.2237 -0.1269
  126OSM   H15G13504   6.487   6.573   8.332 -1.1304 -0.0109 -0.1486
  126OSM   C16F13505   6.425   6.710   8.481 -1.0031 -0.1691 -0.7642
  126OSM   H16F13506   6.333   6.649   8.495 -0.0194 -1.4256  0.4517
  126OSM   H16G13507   6.388   6.815   8.481 -1.3411 -0.2845 -1.0213
  126OSM   C17F13508   6.509   6.672   8.599  0.6503  0.1290 -0.1880
  126OSM   H17F13509   6.608   6.723   8.605 -0.1143  1.6738 -0.2417
  126OSM   H17G13510   6.531   6.564   8.590  1.4758  0.3137 -0.4632
  126OSM   C18F13511   6.425   6.680   8.735 -0.4248  0.5554  0.0465
  126OSM   H18F13512   6.489   6.647   8.819  0.3177  3.1294  0.5994
  126OSM   H18G13513   6.336   6.616   8.721  0.7039 -0.9361 -0.4949
  126OSM   H18H13514   6.383   6.780   8.763 -0.6834  0.8811 -1.4094
  127OSM      N13515   4.429   2.373   6.076 -0.5571  0.0382 -0.0053
  127OSM    C1513516   4.329   2.297   5.993  0.4331 -0.2947  0.0057
  127OSM   H15A13517   4.230   2.296   6.036 -0.0462  1.0251 -1.0203
  127OSM   H15B13518   4.371   2.199   5.972 -0.8227 -0.5759 -1.3429
  127OSM   H15C13519   4.306   2.343   5.898  0.9024  2.1087  0.9860
  127OSM    C1413520   4.551   2.392   6.002  0.1755 -0.5911  0.1593
  127OSM   H14A13521   4.541   2.455   5.915  1.6287 -1.9787 -1.0869
  127OSM   H14B13522   4.599   2.298   5.977  1.1782 -0.4023  1.2966
  127OSM   H14C13523   4.620   2.456   6.056 -1.9619  1.9416  0.0568
  127OSM    C1313524   4.365   2.500   6.108  0.4967 -0.4002  0.3272
  127OSM   H13A13525   4.277   2.487   6.168 -1.0530  4.3669 -0.5365
  127OSM   H13B13526   4.340   2.553   6.017  0.6332  1.4127  1.3142
  127OSM   H13C13527   4.437   2.567   6.151  0.3660  0.5037 -0.8006
  127OSM    C1213528   4.458   2.298   6.202 -0.3566  0.3332  0.0466
  127OSM   H12A13529   4.520   2.211   6.188  1.8172  1.8512 -0.2841
  127OSM   H12B13530   4.362   2.278   6.247  1.4760 -0.8110  3.8519
  127OSM    C1113531   4.530   2.377   6.324  0.4080  0.1337  0.3306
  127OSM   H11A13532   4.527   2.318   6.418  1.0079 -2.2204 -1.0396
  127OSM   H11B13533   4.474   2.469   6.350  0.3785  0.1030  0.3753
  127OSM      P13534   4.783   2.314   6.297  0.5541  0.0664 -0.3369
  127OSM    O1313535   4.723   2.183   6.269 -0.3080 -0.9475 -0.4491
  127OSM    O1413536   4.894   2.357   6.212 -0.0749 -0.3020 -0.8533
  127OSM    O1113537   4.820   2.314   6.449  0.2560  0.5273  0.1570
  127OSM    O1213538   4.665   2.424   6.282  0.5687 -0.3729  0.1221
  127OSM    C1S13539   4.953   2.293   6.487 -0.6797 -0.0326  0.3153
  127OSM    H1S13540   5.023   2.360   6.433  0.6156  1.0419  3.1396
  127OSM    H1T13541   4.998   2.197   6.453  2.0269  0.9904  0.7128
  127OSM     NF13542   5.111   2.284   6.674  0.0557 -0.0575  0.4660
  127OSM    HNF13543   5.130   2.193   6.711  2.2040 -0.4933 -1.4573
  127OSM    C2S13544   4.972   2.304   6.643  0.7771  0.0885 -0.5733
  127OSM    H2S13545   4.944   2.407   6.673 -1.5759 -0.7016  0.1888
  127OSM    C3S13546   4.886   2.203   6.723  0.6976  0.8854  0.1319
  127OSM    H3S13547   4.909   2.099   6.690  1.2781  1.0578 -0.0254
  127OSM     O313548   4.744   2.216   6.697  0.1378  0.2799  0.7016
  127OSM    HO313549   4.736   2.284   6.630  1.1665 -0.5661 -0.3133
  127OSM    C4S13550   4.907   2.209   6.875 -0.8135  0.1506  0.5403
  127OSM    H4S13551   4.964   2.123   6.914  2.5388  2.6478  1.5939
  127OSM    C5S13552   4.860   2.305   6.956 -0.3177 -0.2723 -0.1950
  127OSM    H5S13553   4.811   2.395   6.917  1.6391  1.2295  0.6538
  127OSM    C6S13554   4.871   2.303   7.110 -0.2706  0.3710  0.0029
  127OSM    H6S13555   4.821   2.398   7.139  1.4370  1.2923  0.1002
  127OSM    H6T13556   4.976   2.301   7.148 -0.4298 -3.2209  0.5190
  127OSM    C7S13557   4.775   2.199   7.184 -0.8252  0.6989 -0.1049
  127OSM    H7S13558   4.818   2.104   7.146 -2.7163 -0.2352 -0.0158
  127OSM    H7T13559   4.673   2.211   7.143 -1.6492 -3.9750  0.1011
  127OSM    C8S13560   4.771   2.220   7.331  0.5795 -0.6078 -0.1490
  127OSM    H8S13561   4.720   2.316   7.354 -0.5216 -0.7040 -1.9867
  127OSM    H8T13562   4.870   2.207   7.379  0.6089 -1.9975 -0.5252
  127OSM    C9S13563   4.689   2.099   7.392  0.2698  0.4054 -0.1950
  127OSM    H9S13564   4.733   1.999   7.374 -3.2279 -0.9425 -2.1134
  127OSM    H9T13565   4.594   2.093   7.335  1.1557  2.7771 -2.0661
  127OSM   C10S13566   4.671   2.108   7.549  0.4859 -0.2015  0.1583
  127OSM   H10S13567   4.764   2.131   7.605  0.8932  0.2352 -0.6872
  127OSM   H10T13568   4.630   2.010   7.581 -0.7149 -0.0964 -1.0102
  127OSM   C11S13569   4.566   2.217   7.580 -0.6722 -0.2283 -0.3955
  127OSM   H11S13570   4.477   2.192   7.518 -0.8289  0.1800 -0.3347
  127OSM   H11T13571   4.607   2.317   7.558  0.5426 -0.9848 -1.7445
  127OSM   C12S13572   4.516   2.210   7.726  0.0603 -0.1235 -0.0692
  127OSM   H12S13573   4.465   2.112   7.742 -1.9522  0.7709 -0.6445
  127OSM   H12T13574   4.435   2.284   7.745  0.1546  0.1567 -0.7404
  127OSM   C13S13575   4.622   2.233   7.833 -0.0049  0.1985 -0.1091
  127OSM   H13S13576   4.681   2.319   7.792 -1.9486  0.7833 -1.8636
  127OSM   H13T13577   4.689   2.147   7.853  0.3299  0.0449 -1.6940
  127OSM   C14S13578   4.576   2.276   7.975  0.1458 -0.1923  0.4013
  127OSM   H14S13579   4.542   2.381   7.965  0.9697  0.0662  0.2652
  127OSM   H14T13580   4.667   2.268   8.038 -0.8616 -0.5304  1.8899
  127OSM   C15S13581   4.460   2.181   8.026 -0.4415 -0.1790 -0.4934
  127OSM   H15S13582   4.486   2.076   7.999  0.0846 -0.3760  0.7281
  127OSM   H15T13583   4.362   2.202   7.980 -1.1997 -1.1456  0.6216
  127OSM   C16S13584   4.443   2.163   8.174  0.3806  0.0155 -0.1212
  127OSM   H16S13585   4.402   2.255   8.222 -1.3739 -1.3448  1.1413
  127OSM   H16T13586   4.543   2.149   8.220  1.6862  3.3264 -1.6407
  127OSM   C17S13587   4.353   2.040   8.204  0.1665 -0.2267  0.2085
  127OSM   H17S13588   4.386   1.993   8.299 -0.6004 -0.5189  0.3350
  127OSM   H17T13589   4.374   1.956   8.135 -0.1120 -0.9321  0.9675
  127OSM   C18S13590   4.203   2.069   8.206  0.5747 -0.1775  0.6217
  127OSM   H18S13591   4.186   2.138   8.291 -0.8481 -0.4532  0.5856
  127OSM   H18T13592   4.133   1.984   8.224 -1.5471  0.9726 -1.5190
  127OSM   H18U13593   4.163   2.127   8.120 -0.4739  0.4186  1.4874
  127OSM    C1F13594   5.213   2.359   6.640 -0.0797 -0.7425 -0.4653
  127OSM     OF13595   5.196   2.463   6.578 -0.0147 -0.0194  0.1063
  127OSM    C2F13596   5.341   2.321   6.703 -0.1907 -0.0302  0.5549
  127OSM    H2F13597   5.420   2.388   6.663 -1.5485  0.2010 -1.9634
  127OSM    H2G13598   5.370   2.225   6.655  1.0541  0.9063 -0.6412
  127OSM    C3F13599   5.340   2.302   6.855  0.0334 -0.3718 -0.5552
  127OSM    H3F13600   5.445   2.296   6.889  0.2482  0.4887 -1.0490
  127OSM    H3G13601   5.298   2.201   6.879  1.0873 -0.5418  0.6637
  127OSM    C4F13602   5.267   2.412   6.937 -0.0946 -0.5407  0.2239
  127OSM    H4F13603   5.159   2.407   6.911 -0.0058  1.3423 -0.6370
  127OSM    H4G13604   5.300   2.512   6.902  1.3474 -1.2953 -0.6804
  127OSM    C5F13605   5.285   2.391   7.087  0.9216 -0.1943 -0.5182
  127OSM    H5F13606   5.387   2.422   7.120 -0.2940  2.1851  1.3373
  127OSM    H5G13607   5.271   2.288   7.126 -0.3804 -0.2294 -1.0344
  127OSM    C6F13608   5.201   2.497   7.163  0.2075  0.1192 -0.1041
  127OSM    H6F13609   5.091   2.491   7.148 -0.0181 -0.1794  1.4219
  127OSM    H6G13610   5.231   2.602   7.139  0.9364  0.3967  1.8368
  127OSM    C7F13611   5.222   2.473   7.317  0.1616  0.0209 -0.1709
  127OSM    H7F13612   5.331   2.474   7.339  0.3602 -0.1088 -1.0829
  127OSM    H7G13613   5.183   2.374   7.347 -0.1569 -0.3326 -1.6456
  127OSM    C8F13614   5.142   2.565   7.411 -0.0368 -0.3559 -0.3437
  127OSM    H8F13615   5.037   2.547   7.381 -0.9330  2.0312  1.0643
  127OSM    H8G13616   5.188   2.665   7.391  4.2015 -1.9351  0.4731
  127OSM    C9F13617   5.171   2.532   7.558  0.0786  0.6464 -0.1460
  127OSM    H9F13618   5.265   2.575   7.594  0.6997 -0.4872 -0.3606
  127OSM   C10F13619   5.080   2.475   7.643  0.0086  0.2311  0.6127
  127OSM   H10F13620   5.107   2.459   7.749  3.8778  0.2630 -0.2422
  127OSM   C11F13621   4.946   2.412   7.604 -0.2955  0.2455 -0.3607
  127OSM   H11F13622   4.930   2.317   7.659 -1.8687  0.6428 -0.0645
  127OSM   H11G13623   4.943   2.396   7.494  1.0338  0.5680 -0.4541
  127OSM   C12F13624   4.843   2.520   7.644  0.5736  0.0494 -0.1408
  127OSM   H12F13625   4.746   2.472   7.617  1.2268 -2.9390  2.3052
  127OSM   H12G13626   4.855   2.606   7.575  1.9865  0.4499  0.5837
  127OSM   C13F13627   4.834   2.579   7.788  0.2148  0.2028 -0.1138
  127OSM   H13F13628   4.916   2.645   7.824  0.3403 -0.2270  0.4189
  127OSM   H13G13629   4.836   2.487   7.852 -2.9443 -0.4086 -0.7600
  127OSM   C14F13630   4.704   2.657   7.809  0.2707 -0.6958  0.4316
  127OSM   H14F13631   4.618   2.587   7.798  0.0916 -0.5533  0.8954
  127OSM   H14G13632   4.683   2.714   7.716  0.2583 -0.1827  0.7457
  127OSM   C15F13633   4.700   2.741   7.933  0.6011  0.8512 -0.8279
  127OSM   H15F13634   4.604   2.797   7.937  0.7122  1.0429 -0.8659
  127OSM   H15G13635   4.784   2.813   7.941  0.6278  0.8942 -1.4881
  127OSM   C16F13636   4.698   2.653   8.061 -0.5558 -0.5194 -0.1448
  127OSM   H16F13637   4.797   2.611   8.087 -0.7051 -1.6441 -1.2999
  127OSM   H16G13638   4.625   2.571   8.044 -2.4861  1.3408 -1.4472
  127OSM   C17F13639   4.656   2.728   8.189  0.0938 -0.3459  0.5351
  127OSM   H17F13640   4.546   2.739   8.184  0.0013 -1.1349  0.6586
  127OSM   H17G13641   4.705   2.827   8.187 -2.2835  0.8908 -0.4186
  127OSM   C18F13642   4.671   2.642   8.310 -0.6637  0.3530 -0.7145
  127OSM   H18F13643   4.639   2.707   8.394 -2.0645 -0.0686 -0.9049
  127OSM   H18G13644   4.770   2.594   8.327 -2.2938 -2.3372  2.1095
  127OSM   H18H13645   4.599   2.558   8.315 -0.8607  0.5904  1.5640
  128OSM      N13646   4.567   5.922   5.794  0.2989  0.2968  0.6523
  128OSM    C1513647   4.589   5.794   5.721 -0.1225  0.1791 -0.1541
  128OSM   H15A13648   4.495   5.756   5.685  0.2099 -0.9149  0.1007
  128OSM   H15B13649   4.612   5.713   5.789  0.8517 -0.4911 -1.2401
  128OSM   H15C13650   4.651   5.799   5.632 -1.6012  1.2929 -1.1660
  128OSM    C1413651   4.528   6.028   5.703  0.7314 -1.1750 -0.1988
  128OSM   H14A13652   4.424   6.017   5.677  0.6574  2.0393 -1.7496
  128OSM   H14B13653   4.576   6.020   5.607  1.8774 -0.4251  0.2818
  128OSM   H14C13654   4.540   6.124   5.752  0.6346 -0.9524 -0.6099
  128OSM    C1313655   4.460   5.902   5.902  0.2706  0.0635 -0.5390
  128OSM   H13A13656   4.364   5.906   5.854  0.2615 -1.4361 -0.7032
  128OSM   H13B13657   4.461   5.988   5.968  1.9200  1.5009 -2.3369
  128OSM   H13C13658   4.472   5.807   5.952  2.1224 -0.0288 -1.0774
  128OSM    C1213659   4.694   5.954   5.867 -0.5223 -0.1333 -0.1070
  128OSM   H12A13660   4.774   5.959   5.795  1.3399  0.5577  1.9030
  128OSM   H12B13661   4.713   5.875   5.939 -0.1208  1.6488  1.8301
  128OSM    C1113662   4.709   6.089   5.940  0.5883 -1.3028  0.4015
  128OSM   H11A13663   4.617   6.115   5.996  0.4158  3.4946 -1.6298
  128OSM   H11B13664   4.713   6.168   5.862  1.2532 -1.5285  0.1981
  128OSM      P13665   4.875   6.217   6.099 -0.2923  0.2322 -0.9919
  128OSM    O1313666   5.004   6.187   6.165 -1.0005  0.0685  0.1365
  128OSM    O1413667   4.891   6.329   6.004  0.6884 -0.0402  0.3773
  128OSM    O1113668   4.761   6.267   6.205 -0.6381  0.5924  0.0851
  128OSM    O1213669   4.825   6.089   6.027  0.3949 -0.5158  0.1222
  128OSM    C1S13670   4.649   6.202   6.264 -0.0700 -0.3361  0.0470
  128OSM    H1S13671   4.638   6.100   6.221 -2.6246 -0.3489  0.6254
  128OSM    H1T13672   4.558   6.256   6.231  0.4068  0.3943 -0.0952
  128OSM     NF13673   4.553   6.122   6.477  0.6487 -0.4800  0.0227
  128OSM    HNF13674   4.489   6.166   6.539 -0.8552 -0.0175 -1.7466
  128OSM    C2S13675   4.658   6.203   6.421 -0.3456  0.3123 -0.0679
  128OSM    H2S13676   4.753   6.150   6.444 -0.5835  0.3517  1.0751
  128OSM    C3S13677   4.664   6.349   6.465 -0.5570 -0.0432 -1.2401
  128OSM    H3S13678   4.567   6.392   6.431 -0.5453  2.4988  1.5157
  128OSM     O313679   4.772   6.434   6.413 -0.5359  0.3869 -0.1602
  128OSM    HO313680   4.813   6.373   6.352 -1.5316 -0.4758  0.0145
  128OSM    C4S13681   4.658   6.372   6.615 -0.6127  0.4365  0.3035
  128OSM    H4S13682   4.562   6.377   6.668 -0.0537  3.5513  1.2105
  128OSM    C5S13683   4.766   6.380   6.696 -0.8474  0.2826 -0.2577
  128OSM    H5S13684   4.865   6.353   6.656  0.5014  1.5317  2.0491
  128OSM    C6S13685   4.759   6.393   6.850  0.4241 -0.4555  0.0200
  128OSM    H6S13686   4.713   6.488   6.885 -0.5087 -1.2874  1.1372
  128OSM    H6T13687   4.862   6.392   6.892  0.0261  0.8102  1.0734
  128OSM    C7S13688   4.674   6.275   6.911 -0.1451  0.3137 -0.1972
  128OSM    H7S13689   4.704   6.184   6.855  1.7195  0.6798  0.1331
  128OSM    H7T13690   4.564   6.292   6.907 -0.3490 -0.6965  0.7183
  128OSM    C8S13691   4.703   6.275   7.059 -0.0104  0.6363 -0.3144
  128OSM    H8S13692   4.810   6.292   7.084 -0.5121 -0.3032  2.8938
  128OSM    H8T13693   4.686   6.181   7.115  3.0578 -0.4704 -1.0586
  128OSM    C9S13694   4.636   6.398   7.141  0.0169  0.8385 -0.2226
  128OSM    H9S13695   4.527   6.375   7.149  0.3808 -2.5504 -2.6873
  128OSM    H9T13696   4.654   6.482   7.070  1.7042  0.3828 -0.3657
  128OSM   C10S13697   4.689   6.438   7.284  0.2324  0.5764 -0.4176
  128OSM   H10S13698   4.705   6.548   7.286 -0.7263  0.7258  1.1486
  128OSM   H10T13699   4.781   6.375   7.293 -0.0366  0.3725  1.3106
  128OSM   C11S13700   4.601   6.385   7.400  0.1915 -0.5326  0.0501
  128OSM   H11S13701   4.583   6.276   7.389 -2.4195 -0.1059 -0.6091
  128OSM   H11T13702   4.499   6.426   7.383  0.3859  0.4103  1.0643
  128OSM   C12S13703   4.641   6.441   7.538  0.5134 -0.4399  0.4420
  128OSM   H12S13704   4.636   6.552   7.534 -1.2982 -0.5194 -2.0380
  128OSM   H12T13705   4.750   6.431   7.555  0.6587  1.2635  0.7497
  128OSM   C13S13706   4.567   6.371   7.645  0.7097 -0.0691 -0.1291
  128OSM   H13S13707   4.570   6.264   7.613  2.0275  0.0897 -0.5934
  128OSM   H13T13708   4.461   6.403   7.639  0.9161  0.9857  1.3391
  128OSM   C14S13709   4.627   6.389   7.782  0.1014 -0.3830 -0.1161
  128OSM   H14S13710   4.630   6.498   7.802 -0.8838 -0.5187  0.8450
  128OSM   H14T13711   4.730   6.346   7.783  0.2286 -0.0712  0.5505
  128OSM   C15S13712   4.551   6.311   7.889 -0.1863  0.0508 -0.3729
  128OSM   H15S13713   4.561   6.201   7.874 -0.2576  0.0411 -0.3472
  128OSM   H15T13714   4.447   6.345   7.874 -1.0327 -0.3925  3.3471
  128OSM   C16S13715   4.592   6.343   8.032 -1.0421  0.6220  0.3574
  128OSM   H16S13716   4.600   6.453   8.046 -4.6772  0.9903  0.5151
  128OSM   H16T13717   4.689   6.290   8.050 -0.6794  1.1902  0.0817
  128OSM   C17S13718   4.487   6.306   8.142 -0.4211 -0.4422 -0.2394
  128OSM   H17S13719   4.436   6.211   8.115 -0.8169 -0.4496  0.4972
  128OSM   H17T13720   4.410   6.386   8.138  2.1204  2.1081 -1.1876
  128OSM   C18S13721   4.554   6.302   8.279 -0.4140  0.6744 -0.2919
  128OSM   H18S13722   4.567   6.408   8.311  2.0289 -0.0580  1.4881
  128OSM   H18T13723   4.653   6.251   8.279 -1.1552 -0.9615 -2.5058
  128OSM   H18U13724   4.496   6.246   8.355 -0.0769  1.3482  0.4746
  128OSM    C1F13725   4.557   5.994   6.462  0.6875 -0.3633 -0.8937
  128OSM     OF13726   4.655   5.949   6.403 -0.2146 -0.3342 -0.1086
  128OSM    C2F13727   4.437   5.916   6.516  0.1653 -0.4335  0.2037
  128OSM    H2F13728   4.420   5.819   6.463  1.8806  0.1691 -1.5731
  128OSM    H2G13729   4.345   5.977   6.503 -0.3443 -0.8272  1.7698
  128OSM    C3F13730   4.450   5.877   6.661  0.6469  0.2592  0.6267
  128OSM    H3F13731   4.349   5.850   6.698 -0.0222  0.8477 -0.7093
  128OSM    H3G13732   4.470   5.972   6.716  0.3949  1.2178 -0.8627
  128OSM    C4F13733   4.558   5.768   6.681 -0.8784 -0.5403  0.9350
  128OSM    H4F13734   4.619   5.743   6.591 -0.6199 -0.9236  1.2131
  128OSM    H4G13735   4.498   5.675   6.695 -1.4351 -0.2478  0.5595
  128OSM    C5F13736   4.660   5.782   6.791  0.3326 -0.3662  0.0229
  128OSM    H5F13737   4.727   5.868   6.768 -2.2095  2.2145  1.6262
  128OSM    H5G13738   4.723   5.691   6.786  2.4680  1.0150  0.0729
  128OSM    C6F13739   4.609   5.811   6.934 -0.1397 -0.8044 -0.7653
  128OSM    H6F13740   4.557   5.716   6.957 -0.0554 -0.8966 -0.9481
  128OSM    H6G13741   4.533   5.891   6.923  0.5144 -0.1063 -0.2980
  128OSM    C7F13742   4.704   5.864   7.036  0.1991 -0.5455  0.3674
  128OSM    H7F13743   4.742   5.953   6.981 -0.7306 -1.1504 -1.3320
  128OSM    H7G13744   4.781   5.789   7.063 -0.6205 -1.3800  0.4387
  128OSM    C8F13745   4.633   5.912   7.170 -0.0719 -0.0415  0.4559
  128OSM    H8F13746   4.550   5.981   7.143  0.0981 -0.3311 -0.9109
  128OSM    H8G13747   4.716   5.960   7.227 -0.6219 -0.3006  1.4826
  128OSM    C9F13748   4.574   5.808   7.261  0.6510  0.0307 -0.1311
  128OSM    H9F13749   4.504   5.733   7.221 -2.4371  3.2949 -1.4823
  128OSM   C10F13750   4.575   5.827   7.393 -0.0578 -0.0217 -0.5859
  128OSM   H10F13751   4.518   5.758   7.457 -2.3423  1.3615 -1.0130
  128OSM   C11F13752   4.638   5.944   7.471  0.2435  0.1940  0.0165
  128OSM   H11F13753   4.560   6.021   7.486 -0.6145 -0.1120 -2.4681
  128OSM   H11G13754   4.718   5.993   7.411 -0.8419  1.7408 -0.2096
  128OSM   C12F13755   4.695   5.911   7.611  0.4439  0.3573 -0.2089
  128OSM   H12F13756   4.750   5.999   7.652  0.2807  1.1483 -1.6210
  128OSM   H12G13757   4.764   5.826   7.596  1.6460  1.2504  0.0649
  128OSM   C13F13758   4.596   5.864   7.723 -0.4886 -0.2270  0.1183
  128OSM   H13F13759   4.512   5.802   7.684 -0.8427  0.5624 -0.4059
  128OSM   H13G13760   4.560   5.956   7.774 -0.9724  1.5731 -3.1995
  128OSM   C14F13761   4.666   5.794   7.843 -0.5315  0.0968  0.0325
  128OSM   H14F13762   4.729   5.868   7.897  0.9677 -0.8489 -0.3689
  128OSM   H14G13763   4.711   5.698   7.811 -1.9422 -0.5872  0.0400
  128OSM   C15F13764   4.581   5.758   7.963  0.0538  0.4230 -0.9531
  128OSM   H15F13765   4.653   5.700   8.025 -0.5982 -1.8250 -2.1740
  128OSM   H15G13766   4.490   5.698   7.942  0.4513 -0.2885 -0.6782
  128OSM   C16F13767   4.537   5.879   8.049 -0.0559  0.3222  0.0410
  128OSM   H16F13768   4.486   5.949   7.979 -3.0117 -1.4182  0.2981
  128OSM   H16G13769   4.626   5.928   8.093 -1.3839  1.0923  2.0170
  128OSM   C17F13770   4.440   5.832   8.152  0.8666 -0.3677  0.1744
  128OSM   H17F13771   4.491   5.752   8.210 -1.9335 -2.2228  0.2930
  128OSM   H17G13772   4.352   5.782   8.105  0.4248  0.6070 -0.0533
  128OSM   C18F13773   4.375   5.934   8.235 -0.2042 -0.5782  0.3245
  128OSM   H18F13774   4.302   5.908   8.314  0.5733  0.8933  1.5841
  128OSM   H18G13775   4.329   6.011   8.169 -0.1663 -2.4945 -2.1237
  128OSM   H18H13776   4.454   5.989   8.289  1.5409 -1.7790 -0.8859
  129OSM      N13777   2.210   2.542   6.022 -0.2116  0.5644 -0.0430
  129OSM    C1513778   2.180   2.400   5.984 -0.5957 -0.3083 -0.1822
  129OSM   H15A13779   2.237   2.330   6.045 -1.8067  1.2594  3.0016
  129OSM   H15B13780   2.202   2.393   5.879  2.3786  1.6632  0.1686
  129OSM   H15C13781   2.077   2.371   5.999 -0.0531 -2.9974 -1.0459
  129OSM    C1413782   2.352   2.570   5.964  0.4223  0.2761 -0.7861
  129OSM   H14A13783   2.353   2.579   5.856  0.9997  1.9170 -0.6753
  129OSM   H14B13784   2.417   2.484   5.970  0.7848  0.6416  1.3760
  129OSM   H14C13785   2.392   2.657   6.014  1.4610 -0.2313 -0.7130
  129OSM    C1313786   2.111   2.623   5.950 -0.5247  0.2564 -0.8573
  129OSM   H13A13787   2.145   2.725   5.956 -2.9461  1.0437  1.3876
  129OSM   H13B13788   2.011   2.627   5.990 -0.6253  0.7483 -1.1485
  129OSM   H13C13789   2.102   2.596   5.846 -1.7962  0.0077 -0.6975
  129OSM    C1213790   2.216   2.553   6.171 -0.2212  0.0499 -0.1956
  129OSM   H12A13791   2.316   2.538   6.209  0.7964  0.3573 -2.5791
  129OSM   H12B13792   2.157   2.472   6.212  0.2591  0.0146  0.4402
  129OSM    C1113793   2.173   2.683   6.241 -0.3758  0.4622 -0.1057
  129OSM   H11A13794   2.225   2.774   6.203  0.0233  1.1398  1.9267
  129OSM   H11B13795   2.196   2.682   6.350  2.5878 -1.7441 -0.6153
  129OSM      P13796   1.931   2.624   6.299  0.4174 -0.0777 -0.0263
  129OSM    O1313797   1.806   2.621   6.217 -0.7993 -0.2662  0.0687
  129OSM    O1413798   1.982   2.488   6.340 -0.2606  0.4462  0.0569
  129OSM    O1113799   1.908   2.709   6.430  0.6454  0.2899  0.0218
  129OSM    O1213800   2.037   2.706   6.213  0.3533  0.0964  0.2481
  129OSM    C1S13801   1.833   2.676   6.535 -0.1491  0.5197  0.1744
  129OSM    H1S13802   1.789   2.575   6.518 -1.3901  1.4785 -3.2093
  129OSM    H1T13803   1.761   2.758   6.556 -0.5620  0.4387 -0.8778
  129OSM     NF13804   1.843   2.634   6.784 -0.0191  0.4392 -0.4326
  129OSM    HNF13805   1.802   2.713   6.829 -2.3661  0.4396 -2.3646
  129OSM    C2S13806   1.920   2.674   6.662 -0.8275  0.0069 -1.1809
  129OSM    H2S13807   1.993   2.592   6.646 -0.2264  0.1896  0.3682
  129OSM    C3S13808   1.992   2.808   6.678 -0.6752 -0.1183  0.2474
  129OSM    H3S13809   1.927   2.897   6.665  1.4712  1.6749  1.0309
  129OSM     O313810   2.093   2.829   6.581  0.3973  0.2491 -0.4223
  129OSM    HO313811   2.067   2.767   6.512  1.0889  0.9218 -1.3271
  129OSM    C4S13812   2.061   2.821   6.813  0.5816 -0.9088 -0.1893
  129OSM    H4S13813   1.997   2.868   6.888  2.1213 -1.5779  1.6440
  129OSM    C5S13814   2.171   2.767   6.859  0.3380 -0.6397 -0.9585
  129OSM    H5S13815   2.230   2.707   6.788 -2.0235 -2.4513 -1.5118
  129OSM    C6S13816   2.218   2.774   7.006 -0.1219  0.2387 -0.1390
  129OSM    H6S13817   2.271   2.871   7.020  0.9841 -0.0805 -1.8522
  129OSM    H6T13818   2.299   2.701   7.028 -1.2480 -0.8446  0.5448
  129OSM    C7S13819   2.124   2.748   7.123 -0.0284  0.3867 -0.3450
  129OSM    H7S13820   2.090   2.643   7.117  2.0238 -0.3731  0.5511
  129OSM    H7T13821   2.042   2.823   7.117  1.3908  1.8995 -2.7919
  129OSM    C8S13822   2.210   2.774   7.255 -0.6148  0.3881  0.2024
  129OSM    H8S13823   2.235   2.881   7.264  0.7760 -0.0788  3.2922
  129OSM    H8T13824   2.299   2.710   7.239 -1.7155 -0.7513 -1.8406
  129OSM    C9S13825   2.147   2.725   7.387  0.0595 -0.7178  0.2412
  129OSM    H9S13826   2.130   2.615   7.393  0.6518 -0.9202 -1.4260
  129OSM    H9T13827   2.044   2.767   7.393 -0.2192 -1.4675  1.0762
  129OSM   C10S13828   2.228   2.767   7.511  0.0113 -0.4154  0.3123
  129OSM   H10S13829   2.243   2.877   7.502 -1.1119 -0.2913 -0.1635
  129OSM   H10T13830   2.324   2.711   7.503 -0.9545 -1.9701 -1.0803
  129OSM   C11S13831   2.169   2.717   7.645  0.4283  0.0924  0.2819
  129OSM   H11S13832   2.143   2.609   7.645  0.5060  0.0738  0.2432
  129OSM   H11T13833   2.073   2.771   7.664  1.1093  0.5664  2.6598
  129OSM   C12S13834   2.253   2.754   7.770  0.3158  0.7604  0.1978
  129OSM   H12S13835   2.276   2.863   7.770 -0.6984  0.9827  0.4679
  129OSM   H12T13836   2.349   2.702   7.751 -0.4318 -1.3443  1.7913
  129OSM   C13S13837   2.193   2.714   7.906 -0.0055  0.1471  0.4132
  129OSM   H13S13838   2.083   2.728   7.903 -0.0786 -0.5380 -1.2832
  129OSM   H13T13839   2.241   2.772   7.988 -0.8348 -1.4269  2.0637
  129OSM   C14S13840   2.227   2.568   7.929 -0.1689  0.8219 -0.0987
  129OSM   H14S13841   2.338   2.564   7.924 -0.0582 -1.0273  2.0052
  129OSM   H14T13842   2.187   2.514   7.841 -1.0679  1.2471  0.0400
  129OSM   C15S13843   2.183   2.512   8.069 -0.6384 -0.7009 -0.5678
  129OSM   H15S13844   2.083   2.464   8.063 -1.2157  0.1521  1.5218
  129OSM   H15T13845   2.169   2.596   8.140 -4.2626 -1.1479 -0.5482
  129OSM   C16S13846   2.282   2.403   8.134  0.4080  0.7862 -0.1418
  129OSM   H16S13847   2.384   2.446   8.122  0.0237  1.8472  0.3119
  129OSM   H16T13848   2.285   2.304   8.085  1.7658  1.3742 -1.3462
  129OSM   C17S13849   2.277   2.365   8.285  0.4148  0.1145  0.2500
  129OSM   H17S13850   2.349   2.290   8.325  1.6924  0.1872 -1.8015
  129OSM   H17T13851   2.173   2.326   8.295 -0.2574  1.2892 -1.6612
  129OSM   C18S13852   2.275   2.479   8.389 -0.0580 -0.5115  1.0646
  129OSM   H18S13853   2.303   2.440   8.489  2.1507 -1.2930  0.1911
  129OSM   H18T13854   2.178   2.533   8.380  0.2487 -0.2875 -2.5873
  129OSM   H18U13855   2.349   2.556   8.360 -0.5735 -0.8227 -1.2664
  129OSM    C1F13856   1.806   2.507   6.806 -0.0663  0.0851  0.0199
  129OSM     OF13857   1.846   2.412   6.740 -0.2485  0.0079  0.2966
  129OSM    C2F13858   1.705   2.492   6.922  0.0984  0.3978 -0.2783
  129OSM    H2F13859   1.653   2.395   6.908  0.8968 -0.0807 -0.0015
  129OSM    H2G13860   1.639   2.581   6.921  0.9889  1.0770 -2.1902
  129OSM    C3F13861   1.775   2.470   7.064  0.7161  0.0146  0.5790
  129OSM    H3F13862   1.839   2.554   7.099 -0.4429  0.7144  1.0661
  129OSM    H3G13863   1.838   2.379   7.053  1.3216  0.3050  1.4965
  129OSM    C4F13864   1.667   2.452   7.174  0.4454  0.4596 -0.3539
  129OSM    H4F13865   1.621   2.353   7.154  1.1806 -0.5145  2.2978
  129OSM    H4G13866   1.585   2.527   7.167 -0.6272 -0.3683  2.2178
  129OSM    C5F13867   1.722   2.451   7.318  0.5463  0.4074 -0.0301
  129OSM    H5F13868   1.644   2.452   7.398  2.4877  3.7452  2.0655
  129OSM    H5G13869   1.784   2.542   7.334  0.7821  0.0721  1.0205
  129OSM    C6F13870   1.811   2.330   7.346  0.5114 -0.0413  0.3547
  129OSM    H6F13871   1.891   2.331   7.270  1.0781  0.2321  0.9378
  129OSM    H6G13872   1.754   2.235   7.340 -0.5621  0.6946 -1.6788
  129OSM    C7F13873   1.882   2.351   7.476 -0.4075 -0.4561  0.0797
  129OSM    H7F13874   1.935   2.449   7.472  1.0118 -1.2198 -1.7415
  129OSM    H7G13875   1.961   2.272   7.480 -0.5710 -0.6803 -0.9119
  129OSM    C8F13876   1.801   2.356   7.610  0.2612  0.6917 -0.3999
  129OSM    H8F13877   1.753   2.256   7.615  2.6901 -0.5868 -1.2932
  129OSM    H8G13878   1.722   2.432   7.587  0.7639  1.1778 -0.5449
  129OSM    C9F13879   1.882   2.393   7.730 -0.1283 -0.1625  0.3826
  129OSM    H9F13880   1.905   2.501   7.737 -0.5049 -0.1667  2.3222
  129OSM   C10F13881   1.930   2.313   7.826 -0.0781 -0.2354 -0.4482
  129OSM   H10F13882   1.994   2.340   7.912  0.4601 -1.9479 -0.2729
  129OSM   C11F13883   1.902   2.163   7.840 -0.5742  0.1737  0.3860
  129OSM   H11F13884   1.924   2.112   7.744  1.3978 -0.0892  0.9439
  129OSM   H11G13885   1.794   2.148   7.861 -0.2862 -2.4775  0.3463
  129OSM   C12F13886   1.965   2.089   7.961  0.0612  0.0235 -0.0517
  129OSM   H12F13887   1.927   1.984   7.960 -1.4386  0.5333 -1.2018
  129OSM   H12G13888   1.930   2.143   8.051  1.9698 -0.9297  1.3272
  129OSM   C13F13889   2.118   2.089   7.964  0.0541  0.3813  0.7956
  129OSM   H13F13890   2.151   2.195   7.965  2.1260 -0.2073  0.9072
  129OSM   H13G13891   2.159   2.042   7.872  0.3440  0.8666  0.6716
  129OSM   C14F13892   2.179   2.021   8.089 -0.5536  0.7851  0.2158
  129OSM   H14F13893   2.136   2.064   8.182 -0.3999  1.7171 -0.1314
  129OSM   H14G13894   2.287   2.045   8.078 -0.9698  2.6615 -0.0369
  129OSM   C15F13895   2.162   1.864   8.096 -0.2182  0.3057  0.0636
  129OSM   H15F13896   2.198   1.816   8.003 -1.7392  0.0221 -0.4024
  129OSM   H15G13897   2.058   1.832   8.115  0.3800 -0.3646  2.6566
  129OSM   C16F13898   2.236   1.802   8.219 -0.1464  0.3763  0.0313
  129OSM   H16F13899   2.231   1.875   8.302  0.0948  0.7751 -0.3022
  129OSM   H16G13900   2.343   1.800   8.189 -0.0677 -0.3999  0.3382
  129OSM   C17F13901   2.183   1.669   8.254  0.3606  0.1546 -0.2319
  129OSM   H17F13902   2.180   1.599   8.167  1.0577 -0.4853  0.2398
  129OSM   H17G13903   2.077   1.683   8.282  0.4641  2.5115 -0.7808
  129OSM   C18F13904   2.252   1.610   8.375 -0.5543  0.4599 -0.3510
  129OSM   H18F13905   2.267   1.680   8.459  1.0626 -0.0335 -0.2054
  129OSM   H18G13906   2.349   1.571   8.337 -1.8548 -1.5814 -1.8254
  129OSM   H18H13907   2.194   1.527   8.421  0.6262 -1.0392 -1.4680
  130OSM      N13908   4.653   6.808   6.280 -0.0981 -0.3880 -0.5104
  130OSM    C1513909   4.565   6.892   6.191  0.1544 -0.0604 -0.1556
  130OSM   H15A13910   4.600   6.993   6.204  2.5385 -1.0387  1.9297
  130OSM   H15B13911   4.462   6.883   6.221  0.3403 -0.3371  0.4229
  130OSM   H15C13912   4.567   6.862   6.088 -1.9682 -0.9977  0.0184
  130OSM    C1413913   4.800   6.811   6.235  0.3537  0.6417 -0.9817
  130OSM   H14A13914   4.855   6.722   6.262 -0.1114  1.1464  2.0377
  130OSM   H14B13915   4.853   6.897   6.274 -0.0081  0.7015 -0.6190
  130OSM   H14C13916   4.802   6.814   6.127 -0.8738  0.9982 -1.0040
  130OSM    C1313917   4.650   6.865   6.416 -0.1034  0.2134 -0.1060
  130OSM   H13A13918   4.710   6.808   6.486 -1.6281 -1.3153  0.0214
  130OSM   H13B13919   4.547   6.866   6.449 -0.3319  1.3078 -0.8131
  130OSM   H13C13920   4.683   6.968   6.417  0.5785  0.0034  0.9250
  130OSM    C1213921   4.609   6.666   6.293  0.6784  0.6415 -0.8208
  130OSM   H12A13922   4.529   6.654   6.364  0.1110  1.5662 -1.2844
  130OSM   H12B13923   4.684   6.611   6.348  1.1796  0.8047 -1.3299
  130OSM    C1113924   4.590   6.581   6.167 -0.0568 -0.0079  0.0421
  130OSM   H11A13925   4.603   6.471   6.180  1.0009  0.2959  2.0659
  130OSM   H11B13926   4.679   6.612   6.110 -0.5134  1.2758 -0.0033
  130OSM      P13927   4.349   6.533   6.161  0.3673 -0.3674  0.0195
  130OSM    O1313928   4.231   6.607   6.110 -0.2719 -0.4146  0.0360
  130OSM    O1413929   4.356   6.389   6.142  0.2447  0.5558 -0.2474
  130OSM    O1113930   4.359   6.559   6.317  0.1691  0.6049 -0.3339
  130OSM    O1213931   4.471   6.609   6.098 -0.5068  1.0725  0.0070
  130OSM    C1S13932   4.273   6.475   6.394  0.2420 -0.5930 -1.0435
  130OSM    H1S13933   4.316   6.373   6.385  1.5597 -0.1011 -0.6107
  130OSM    H1T13934   4.167   6.479   6.360 -0.1167  0.3317  0.1408
  130OSM     NF13935   4.188   6.410   6.621  0.4579  0.7167  0.5284
  130OSM    HNF13936   4.095   6.428   6.652 -0.4765  0.4803 -1.8631
  130OSM    C2S13937   4.262   6.512   6.543  1.5402 -0.4627 -0.2614
  130OSM    H2S13938   4.364   6.522   6.587  0.3197 -1.6435  3.1527
  130OSM    C3S13939   4.200   6.661   6.558  0.2676  0.8014 -0.2310
  130OSM    H3S13940   4.090   6.653   6.546  0.4007 -1.4523 -0.2975
  130OSM     O313941   4.233   6.754   6.453 -0.8352  0.5339 -0.4234
  130OSM    HO313942   4.250   6.697   6.378 -2.4159 -0.5467 -0.0005
  130OSM    C4S13943   4.231   6.706   6.701  1.3038  0.2230 -0.3084
  130OSM    H4S13944   4.332   6.748   6.715  0.7600  1.1440  1.1414
  130OSM    C5S13945   4.155   6.682   6.812  0.3955 -0.4904  0.4026
  130OSM    H5S13946   4.053   6.642   6.803  0.7096 -1.3349  0.4241
  130OSM    C6S13947   4.201   6.735   6.944 -0.1963 -0.0341 -0.3517
  130OSM    H6S13948   4.116   6.739   7.016  1.1274 -1.5263  1.3964
  130OSM    H6T13949   4.257   6.831   6.941  0.7653 -0.5455  0.5067
  130OSM    C7S13950   4.301   6.631   6.998 -0.2495 -0.6735 -0.2087
  130OSM    H7S13951   4.391   6.618   6.934  0.5510 -0.0196  0.7595
  130OSM    H7T13952   4.250   6.533   7.011 -1.1546 -0.3600 -1.1861
  130OSM    C8S13953   4.350   6.681   7.135 -0.3459  0.5417  0.0400
  130OSM    H8S13954   4.382   6.787   7.124  1.9508 -0.0081  0.8105
  130OSM    H8T13955   4.440   6.623   7.164  0.8090  0.8470 -2.5549
  130OSM    C9S13956   4.232   6.652   7.236 -0.2619 -0.4297 -0.1295
  130OSM    H9S13957   4.185   6.553   7.216 -3.0507  0.8158 -0.2757
  130OSM    H9T13958   4.146   6.721   7.222 -0.6586 -1.3497 -2.9578
  130OSM   C10S13959   4.284   6.671   7.376 -0.8445 -0.3960  0.0250
  130OSM   H10S13960   4.331   6.770   7.395 -0.4782 -0.6839  0.6443
  130OSM   H10T13961   4.370   6.606   7.402 -1.1636 -0.7897  0.1118
  130OSM   C11S13962   4.182   6.633   7.484  0.1378  0.9990  0.5610
  130OSM   H11S13963   4.145   6.530   7.463  1.4418 -0.1835  3.5221
  130OSM   H11T13964   4.102   6.709   7.475  0.5903  1.6286  1.7569
  130OSM   C12S13965   4.248   6.651   7.615 -0.0425  0.0110 -0.2361
  130OSM   H12S13966   4.283   6.756   7.627 -0.5642  0.2025 -0.3795
  130OSM   H12T13967   4.332   6.581   7.633 -0.4544  0.2105  3.0098
  130OSM   C13S13968   4.156   6.623   7.734 -0.1972 -0.0448  0.0010
  130OSM   H13S13969   4.115   6.519   7.732  0.2743 -0.4032  3.0621
  130OSM   H13T13970   4.067   6.688   7.732  0.1612  0.4772  0.5472
  130OSM   C14S13971   4.229   6.644   7.867  0.6982 -0.1966 -0.3313
  130OSM   H14S13972   4.282   6.742   7.868 -0.5979  0.5171  0.4650
  130OSM   H14T13973   4.300   6.561   7.888 -0.1391 -0.1045  3.4696
  130OSM   C15S13974   4.135   6.653   7.984 -0.1109  0.7370 -0.6501
  130OSM   H15S13975   4.076   6.559   7.984  1.8007 -0.5252 -0.0360
  130OSM   H15T13976   4.063   6.734   7.959 -2.0979 -0.4876  0.8262
  130OSM   C16S13977   4.201   6.682   8.118 -0.1752  0.4066  0.4801
  130OSM   H16S13978   4.291   6.747   8.116  0.6999 -0.7397  1.2709
  130OSM   H16T13979   4.244   6.588   8.157  0.9133  1.4579  1.9201
  130OSM   C17S13980   4.089   6.738   8.220  0.6671 -0.3313 -0.3456
  130OSM   H17S13981   4.064   6.841   8.185 -0.4803 -0.4072  0.1842
  130OSM   H17T13982   4.133   6.749   8.321 -2.0218  0.0997  0.8901
  130OSM   C18S13983   3.962   6.660   8.231  0.7854 -0.4892  0.0489
  130OSM   H18S13984   3.971   6.556   8.271  0.1930 -0.5667 -0.0026
  130OSM   H18T13985   3.909   6.648   8.134 -0.5207  0.9447  0.5627
  130OSM   H18U13986   3.886   6.694   8.305  1.9385 -0.7448  1.3901
  130OSM    C1F13987   4.231   6.278   6.644  0.1572  0.1661  0.6100
  130OSM     OF13988   4.344   6.246   6.607 -0.3774 -0.0577  0.2203
  130OSM    C2F13989   4.132   6.184   6.701 -0.1682  0.1528  0.1984
  130OSM    H2F13990   4.116   6.097   6.634 -1.5901  0.2688  0.3609
  130OSM    H2G13991   4.034   6.235   6.710 -1.1927 -1.5396 -0.8054
  130OSM    C3F13992   4.176   6.116   6.839 -0.0146 -0.3122 -0.1222
  130OSM    H3F13993   4.259   6.046   6.821 -0.3411 -0.2873 -1.9142
  130OSM    H3G13994   4.100   6.055   6.893  1.7857 -2.2041  0.3993
  130OSM    C4F13995   4.207   6.216   6.952 -0.4423 -0.0247  0.1766
  130OSM    H4F13996   4.108   6.256   6.981  0.5887  1.3294  2.1076
  130OSM    H4G13997   4.285   6.291   6.928 -0.8988  0.4373  0.1159
  130OSM    C5F13998   4.259   6.132   7.075 -0.7303  0.5945  0.4457
  130OSM    H5F13999   4.369   6.144   7.070 -0.5260  0.8748  3.4579
  130OSM    H5G14000   4.246   6.022   7.079  1.0469  0.3824  1.4240
  130OSM    C6F14001   4.225   6.200   7.214  0.5575  0.2066 -0.1312
  130OSM    H6F14002   4.124   6.172   7.252  1.0044  0.5959  1.4011
  130OSM    H6G14003   4.225   6.310   7.202  0.2903  0.1772 -0.4286
  130OSM    C7F14004   4.316   6.167   7.333  0.5189  0.2541  0.2744
  130OSM    H7F14005   4.426   6.167   7.315  0.4481  1.5434 -0.2400
  130OSM    H7G14006   4.292   6.060   7.354  1.5648  0.1963  1.2664
  130OSM    C8F14007   4.293   6.246   7.470  0.2614  0.5768 -0.0007
  130OSM    H8F14008   4.314   6.351   7.441  2.0565  0.4248  0.6199
  130OSM    H8G14009   4.371   6.201   7.535 -1.2787 -1.2516  0.6901
  130OSM    C9F14010   4.157   6.232   7.521  0.0022 -0.5322 -0.7312
  130OSM    H9F14011   4.084   6.253   7.441  2.3411  1.9177 -2.3807
  130OSM   C10F14012   4.123   6.227   7.650  0.7437 -0.6114  0.3533
  130OSM   H10F14013   4.018   6.238   7.681  0.8228  2.2920 -0.1063
  130OSM   C11F14014   4.221   6.220   7.765  0.0817 -0.2284  0.3978
  130OSM   H11F14015   4.198   6.303   7.834 -1.2689  1.7038 -2.2053
  130OSM   H11G14016   4.329   6.240   7.746 -0.3484  2.2275  0.2795
  130OSM   C12F14017   4.196   6.090   7.841  0.5928 -0.0590  0.1476
  130OSM   H12F14018   4.277   6.087   7.917  0.6140 -1.7713  0.0936
  130OSM   H12G14019   4.208   6.002   7.774 -1.9998  0.3233 -0.9516
  130OSM   C13F14020   4.058   6.074   7.909  0.0583 -0.0217  0.3061
  130OSM   H13F14021   3.976   6.092   7.835 -3.7007 -0.1078  4.0316
  130OSM   H13G14022   4.037   6.154   7.984  2.2592  1.7467 -0.8280
  130OSM   C14F14023   4.048   5.945   7.988 -0.0384 -0.5871 -0.3298
  130OSM   H14F14024   4.114   5.950   8.078  0.5627 -1.4984 -0.6984
  130OSM   H14G14025   4.098   5.872   7.921  1.2250  0.1314 -0.1944
  130OSM   C15F14026   3.905   5.905   8.023  0.2567 -0.1222 -0.0517
  130OSM   H15F14027   3.888   5.796   8.041 -5.4480  0.1506 -1.6805
  130OSM   H15G14028   3.849   5.923   7.929  0.2174  0.2497  0.0441
  130OSM   C16F14029   3.841   5.966   8.147  0.2708 -0.3360  0.1197
  130OSM   H16F14030   3.853   6.076   8.156  0.6031 -0.5400  3.3529
  130OSM   H16G14031   3.906   5.927   8.229 -1.2901 -1.7109  0.7497
  130OSM   C17F14032   3.698   5.932   8.180  0.3987 -0.3404  0.0484
  130OSM   H17F14033   3.631   5.971   8.101  0.3845  0.1037  0.2755
  130OSM   H17G14034   3.674   5.982   8.276  0.7437 -1.1750  0.5815
  130OSM   C18F14035   3.669   5.786   8.214 -0.7685 -0.5546 -0.0646
  130OSM   H18F14036   3.568   5.770   8.257 -0.8305  0.1628  0.0663
  130OSM   H18G14037   3.741   5.743   8.288 -1.2881 -0.5813  0.4308
  130OSM   H18H14038   3.687   5.717   8.129  2.3536  0.8021 -0.6680
  131OSM      N14039   5.231   3.726   6.035 -0.5577 -0.3109 -0.5151
  131OSM    C1514040   5.185   3.593   6.093  0.0426 -0.3165  0.2024
  131OSM   H15A14041   5.266   3.535   6.135 -0.2915 -2.1477 -1.5345
  131OSM   H15B14042   5.130   3.541   6.016  0.8401  1.3498 -1.5463
  131OSM   H15C14043   5.117   3.603   6.177 -0.1191 -1.8569  0.2855
  131OSM    C1414044   5.339   3.707   5.931 -0.9186 -0.0287 -0.4019
  131OSM   H14A14045   5.353   3.795   5.871 -0.3760  0.0869 -0.1074
  131OSM   H14B14046   5.307   3.629   5.864 -1.7555  1.5537 -1.9105
  131OSM   H14C14047   5.438   3.691   5.970 -0.9821 -1.2565 -0.7080
  131OSM    C1314048   5.127   3.793   5.955  0.1816 -0.1546 -0.3876
  131OSM   H13A14049   5.110   3.732   5.867  1.2254 -1.5357  0.3163
  131OSM   H13B14050   5.153   3.892   5.922  1.5208 -0.4549 -0.2761
  131OSM   H13C14051   5.028   3.793   5.998 -0.5797 -1.1886 -1.9971
  131OSM    C1214052   5.278   3.826   6.136  0.2845 -0.0891  0.3580
  131OSM   H12A14053   5.304   3.920   6.090  1.0404 -0.4722 -0.0028
  131OSM   H12B14054   5.373   3.790   6.173 -0.0854 -1.8494 -0.3252
  131OSM    C1114055   5.188   3.844   6.255  0.3345 -0.9613 -0.1143
  131OSM   H11A14056   5.233   3.915   6.328 -3.6376  0.1550  1.4829
  131OSM   H11B14057   5.171   3.752   6.315  1.2950 -0.1232  1.5352
  131OSM      P14058   4.916   3.847   6.244  0.1418 -0.3591  0.1614
  131OSM    O1314059   4.823   3.961   6.254  0.9299 -0.3609 -0.3615
  131OSM    O1414060   4.886   3.748   6.133 -0.0767 -0.4492 -0.0050
  131OSM    O1114061   4.931   3.771   6.380 -0.0074  0.3073 -0.0041
  131OSM    O1214062   5.063   3.907   6.218  0.4366 -0.0113 -0.7275
  131OSM    C1S14063   4.947   3.837   6.507  0.0804  0.1224  0.0722
  131OSM    H1S14064   4.871   3.918   6.518 -0.0821  0.0599 -0.5243
  131OSM    H1T14065   5.051   3.874   6.520  0.6088 -1.5207  0.7417
  131OSM     NF14066   4.948   3.810   6.754 -0.1244  0.0943 -0.0849
  131OSM    HNF14067   5.042   3.808   6.787 -0.5237 -0.9305  1.0837
  131OSM    C2S14068   4.929   3.735   6.621 -0.7405  0.0342  0.3682
  131OSM    H2S14069   4.832   3.681   6.626 -1.7050  1.7924  1.6148
  131OSM    C3S14070   5.020   3.608   6.605  0.2681 -0.1190 -0.0912
  131OSM    H3S14071   5.122   3.647   6.583  0.6143 -0.3236  1.0623
  131OSM     O314072   4.973   3.516   6.503 -0.3142 -0.1658 -0.1807
  131OSM    HO314073   4.908   3.564   6.451 -0.2244  1.0500  0.8048
  131OSM    C4S14074   5.025   3.530   6.731 -0.1546  0.9126 -0.4455
  131OSM    H4S14075   4.925   3.490   6.753  0.7529 -0.8641  0.6758
  131OSM    C5S14076   5.126   3.497   6.818 -0.1764  0.0883  0.1512
  131OSM    H5S14077   5.228   3.531   6.795 -0.2529 -0.2038 -0.6758
  131OSM    C6S14078   5.110   3.404   6.934 -0.0783 -0.2836  0.2579
  131OSM    H6S14079   5.170   3.311   6.922  0.9310  0.5008 -1.0423
  131OSM    H6T14080   5.008   3.362   6.947  0.6543 -2.2256  0.0573
  131OSM    C7S14081   5.158   3.466   7.067  0.7322 -0.4789 -0.9292
  131OSM    H7S14082   5.120   3.568   7.090  1.4776  0.3206 -2.9831
  131OSM    H7T14083   5.267   3.489   7.060  0.8947 -0.6968  0.6580
  131OSM    C8S14084   5.121   3.373   7.190  0.0693 -0.4502 -0.3723
  131OSM    H8S14085   5.169   3.274   7.173  1.0766  0.1423 -1.0682
  131OSM    H8T14086   5.011   3.365   7.204  0.1431 -0.0466  0.5388
  131OSM    C9S14087   5.182   3.421   7.328 -0.1753  0.2278  0.7109
  131OSM    H9S14088   5.160   3.528   7.345  1.4452  1.0451 -1.8210
  131OSM    H9T14089   5.288   3.433   7.299 -1.3581  1.4179 -3.8302
  131OSM   C10S14090   5.148   3.317   7.436 -0.3245 -0.6009 -0.0009
  131OSM   H10S14091   5.208   3.225   7.420  3.0360  1.0049  2.2079
  131OSM   H10T14092   5.040   3.291   7.426  0.2560 -2.9594 -0.8002
  131OSM   C11S14093   5.194   3.379   7.564  0.3543 -0.7278 -0.7216
  131OSM   H11S14094   5.147   3.480   7.569 -0.0743 -0.9789  1.7486
  131OSM   H11T14095   5.302   3.406   7.565 -0.0766  1.1202 -0.3857
  131OSM   C12S14096   5.169   3.296   7.694  0.0002  0.2950  0.1759
  131OSM   H12S14097   5.206   3.193   7.679 -1.9143 -0.2998 -0.8282
  131OSM   H12T14098   5.059   3.282   7.707  0.0736  0.3515  0.9077
  131OSM   C13S14099   5.223   3.346   7.829  0.5356 -0.1231 -0.4089
  131OSM   H13S14100   5.180   3.445   7.856  1.5586  0.4707 -0.8613
  131OSM   H13T14101   5.333   3.361   7.823  0.7623 -1.1818  0.7170
  131OSM   C14S14102   5.211   3.256   7.951 -0.2522  0.5662  0.0688
  131OSM   H14S14103   5.244   3.156   7.915 -0.0515  0.3051  0.9516
  131OSM   H14T14104   5.103   3.238   7.974 -0.6905 -0.3712 -2.3644
  131OSM   C15S14105   5.309   3.301   8.059 -0.2123 -0.0506  0.4689
  131OSM   H15S14106   5.303   3.412   8.053 -2.3138 -0.0872  1.2120
  131OSM   H15T14107   5.409   3.278   8.015  0.9788  3.0190  1.3049
  131OSM   C16S14108   5.292   3.230   8.190  0.3263 -0.0855 -0.1646
  131OSM   H16S14109   5.294   3.119   8.183  2.6863 -0.0353 -1.7240
  131OSM   H16T14110   5.191   3.260   8.225  0.2786  0.6255 -0.8849
  131OSM   C17S14111   5.403   3.260   8.289 -0.2539 -0.6965 -0.0018
  131OSM   H17S14112   5.418   3.369   8.276 -1.1280 -0.8262 -2.6619
  131OSM   H17T14113   5.500   3.217   8.255  1.4179  2.0608  0.9284
  131OSM   C18S14114   5.370   3.209   8.425  0.0234 -0.0238  0.0010
  131OSM   H18S14115   5.426   3.116   8.448 -2.6099 -0.9012  3.7821
  131OSM   H18T14116   5.263   3.183   8.443  0.3595 -0.2178  1.9147
  131OSM   H18U14117   5.402   3.280   8.504 -1.2299  0.1443  0.3857
  131OSM    C1F14118   4.866   3.905   6.797 -0.3064  0.1603 -0.2759
  131OSM     OF14119   4.755   3.930   6.747  0.1093 -0.2647 -0.2020
  131OSM    C2F14120   4.907   3.976   6.925  0.1382  0.1436  0.2924
  131OSM    H2F14121   4.978   4.046   6.876  1.4355 -0.8185  0.7170
  131OSM    H2G14122   4.954   3.905   6.997 -0.7800 -0.5289  0.2387
  131OSM    C3F14123   4.789   4.044   7.007  0.1698 -0.1560  0.4059
  131OSM    H3F14124   4.724   3.962   7.043  1.0493 -0.9878  0.1474
  131OSM    H3G14125   4.736   4.118   6.944  0.3502  0.6499  1.1775
  131OSM    C4F14126   4.841   4.124   7.127  0.4044  0.2426  0.3715
  131OSM    H4F14127   4.744   4.176   7.141  0.3995  1.5258 -3.2216
  131OSM    H4G14128   4.906   4.210   7.099 -1.6890  2.0110  0.6590
  131OSM    C5F14129   4.891   4.037   7.234  0.5504  0.7481 -0.2074
  131OSM    H5F14130   5.002   4.024   7.230  0.3400 -0.9716 -1.1728
  131OSM    H5G14131   4.851   3.935   7.224 -0.6849  0.6847  3.6865
  131OSM    C6F14132   4.848   4.094   7.368 -0.7106 -0.0601  0.1375
  131OSM    H6F14133   4.737   4.095   7.370 -0.7597  0.1986 -1.6602
  131OSM    H6G14134   4.893   4.196   7.371 -1.0738  0.1887 -1.7563
  131OSM    C7F14135   4.903   4.019   7.488 -0.4928  0.2978 -0.1591
  131OSM    H7F14136   5.013   4.003   7.480 -0.4728  1.1717 -2.5673
  131OSM    H7G14137   4.839   3.928   7.484 -0.0610  0.0296 -1.9017
  131OSM    C8F14138   4.873   4.097   7.620  0.8945  0.3286  0.5462
  131OSM    H8F14139   4.783   4.159   7.604 -0.0911 -1.5079 -1.5431
  131OSM    H8G14140   4.958   4.168   7.617  1.8102 -0.7107  0.9833
  131OSM    C9F14141   4.858   4.021   7.747  0.3481 -0.1447 -0.5516
  131OSM    H9F14142   4.780   3.943   7.737  0.0834  0.2070 -1.3592
  131OSM   C10F14143   4.943   4.017   7.855 -0.1511 -0.8052 -0.3911
  131OSM   H10F14144   4.910   3.949   7.935  1.5736 -0.5811  0.5638
  131OSM   C11F14145   5.067   4.104   7.870 -0.1075 -0.5745  0.1405
  131OSM   H11F14146   5.057   4.201   7.817 -1.2352 -1.2917 -1.0356
  131OSM   H11G14147   5.148   4.061   7.807  1.8679 -0.6321  2.5856
  131OSM   C12F14148   5.124   4.111   8.011 -0.6760  0.0920  0.3032
  131OSM   H12F14149   5.228   4.149   8.003 -1.1524  2.4212  3.4210
  131OSM   H12G14150   5.129   4.016   8.069 -0.4712  0.8638  1.5807
  131OSM   C13F14151   5.052   4.212   8.100  0.4283 -0.4314 -0.5558
  131OSM   H13F14152   4.947   4.183   8.123  1.4795 -3.8013  0.6811
  131OSM   H13G14153   5.060   4.308   8.046  0.5311  0.1661  0.5043
  131OSM   C14F14154   5.129   4.240   8.230 -0.2436 -0.3127 -1.0026
  131OSM   H14F14155   5.237   4.265   8.228 -0.3837  0.8088  1.5011
  131OSM   H14G14156   5.125   4.152   8.298 -2.0993  1.9015  2.0275
  131OSM   C15F14157   5.072   4.361   8.303 -0.2670 -0.4194 -0.1311
  131OSM   H15F14158   4.978   4.332   8.354 -1.2677  1.5334 -0.7804
  131OSM   H15G14159   5.062   4.435   8.221  1.9976  1.5825  1.2604
  131OSM   C16F14160   5.173   4.410   8.405  0.3968 -1.1416  0.1210
  131OSM   H16F14161   5.254   4.467   8.354 -0.4229  0.0530  0.0954
  131OSM   H16G14162   5.210   4.327   8.468  2.9076  0.0404  0.3311
  131OSM   C17F14163   5.098   4.520   8.494  0.3383  0.4824 -0.5385
  131OSM   H17F14164   4.992   4.494   8.516 -0.0027  1.1532 -1.3408
  131OSM   H17G14165   5.094   4.609   8.428 -5.5303  1.4213  0.5447
  131OSM   C18F14166   5.179   4.554   8.622 -0.3619  0.1763 -0.1541
  131OSM   H18F14167   5.288   4.556   8.599 -0.4383  1.8471 -0.5219
  131OSM   H18G14168   5.160   4.473   8.696 -0.7794  0.0374 -0.4082
  131OSM   H18H14169   5.146   4.647   8.672  1.4159 -0.5892  2.6574
  132OSM      N14170   6.608   5.591   6.172 -0.6011  0.6992 -0.6269
  132OSM    C1514171   6.578   5.454   6.222 -0.4440 -0.7456 -0.9146
  132OSM   H15A14172   6.656   5.381   6.207  0.0501 -0.3426 -0.3448
  132OSM   H15B14173   6.487   5.421   6.175  0.1223  0.8502 -3.2656
  132OSM   H15C14174   6.558   5.452   6.328  0.1204  0.8102 -0.7593
  132OSM    C1414175   6.647   5.580   6.030  0.3957  0.1935  0.1522
  132OSM   H14A14176   6.683   5.673   5.989 -1.1035  0.5981 -0.3060
  132OSM   H14B14177   6.569   5.550   5.962  1.2604 -1.1178 -0.2932
  132OSM   H14C14178   6.730   5.512   6.019 -0.4851 -0.4837 -3.7956
  132OSM    C1314179   6.483   5.672   6.182 -0.5394  0.5109 -0.2268
  132OSM   H13A14180   6.463   5.694   6.286  1.8537  0.3875  0.3305
  132OSM   H13B14181   6.405   5.621   6.127 -0.6778  1.1442 -0.6197
  132OSM   H13C14182   6.500   5.769   6.137  0.8350 -1.0054 -3.2650
  132OSM    C1214183   6.713   5.659   6.250  0.3855 -0.0200 -0.2910
  132OSM   H12A14184   6.782   5.584   6.286 -0.1447 -0.2072  0.3571
  132OSM   H12B14185   6.665   5.703   6.336 -0.1665 -0.4771 -0.3653
  132OSM    C1114186   6.787   5.780   6.182 -0.2449 -0.0138 -0.3707
  132OSM   H11A14187   6.854   5.749   6.099  0.7113  1.7646 -0.2967
  132OSM   H11B14188   6.860   5.833   6.247  0.9870 -0.8655 -1.0214
  132OSM      P14189   6.663   6.013   6.221  0.0205  0.2994 -0.2122
  132OSM    O1314190   6.737   6.118   6.160  0.3556 -0.0606 -0.5539
  132OSM    O1414191   6.517   6.027   6.216 -0.5035 -0.1993 -0.8425
  132OSM    O1114192   6.710   5.988   6.371  0.6345 -0.2318  0.0677
  132OSM    O1214193   6.692   5.878   6.134  0.4538 -0.1053 -0.9209
  132OSM    C1S14194   6.680   6.095   6.459 -0.5261  0.3722 -0.2025
  132OSM    H1S14195   6.578   6.140   6.463 -1.2521 -1.2518  1.2148
  132OSM    H1T14196   6.756   6.174   6.442 -0.4849  0.0853 -1.4302
  132OSM     NF14197   6.670   6.135   6.698 -0.1524  0.2185 -0.0887
  132OSM    HNF14198   6.721   6.215   6.729  1.0587 -1.2478  1.9240
  132OSM    C2S14199   6.725   6.049   6.601  0.5624 -0.3322  0.1678
  132OSM    H2S14200   6.677   5.950   6.615  0.7192 -0.3365  0.6889
  132OSM    C3S14201   6.879   6.034   6.610 -0.1376  0.5397 -0.7675
  132OSM    H3S14202   6.924   6.134   6.593 -0.7204  0.4477 -3.1879
  132OSM     O314203   6.938   5.949   6.509  0.0173 -0.5176  0.0511
  132OSM    HO314204   6.863   5.959   6.449 -0.0326  1.4769  0.3674
  132OSM    C4S14205   6.921   5.983   6.748 -0.0580 -0.5249  0.2364
  132OSM    H4S14206   6.937   6.068   6.816 -1.2883  0.0274 -0.1358
  132OSM    C5S14207   6.920   5.862   6.803  0.2154  0.5386  0.3743
  132OSM    H5S14208   6.887   5.774   6.744  3.4271 -0.0415 -0.7624
  132OSM    C6S14209   6.962   5.828   6.944 -0.4901  0.7023 -0.0733
  132OSM    H6S14210   7.045   5.755   6.947 -2.2109 -1.3195  2.6177
  132OSM    H6T14211   6.877   5.771   6.987  1.0940 -1.3468  0.5172
  132OSM    C7S14212   6.998   5.948   7.038  0.0439  0.6191  0.0390
  132OSM    H7S14213   6.909   6.015   7.048 -0.2462  0.4677 -1.3130
  132OSM    H7T14214   7.085   6.003   6.997 -1.5493  0.8135 -3.4527
  132OSM    C8S14215   7.045   5.893   7.175  0.1702  0.5562  0.1342
  132OSM    H8S14216   7.114   5.809   7.151 -0.1861  0.8995 -2.3803
  132OSM    H8T14217   6.953   5.855   7.224 -1.8986 -0.6762 -4.2316
  132OSM    C9S14218   7.117   5.990   7.265  0.1886  0.9514  0.4880
  132OSM    H9S14219   7.049   6.076   7.282  0.7753  1.3791  0.6960
  132OSM    H9T14220   7.201   6.046   7.218 -0.2069  1.8897  0.8784
  132OSM   C10S14221   7.182   5.941   7.390 -0.4419  0.0845  0.2789
  132OSM   H10S14222   7.265   5.866   7.389  0.0681  0.4673  3.5372
  132OSM   H10T14223   7.105   5.894   7.455 -0.0208 -0.9218  0.0736
  132OSM   C11S14224   7.250   6.051   7.469 -0.6093  0.6212 -0.6679
  132OSM   H11S14225   7.183   6.140   7.475  1.9909  2.5922  1.7506
  132OSM   H11T14226   7.348   6.091   7.435  0.0139  0.3438  0.7267
  132OSM   C12S14227   7.270   6.011   7.616 -0.2989  0.1483  0.2717
  132OSM   H12S14228   7.355   5.940   7.619 -1.2845 -1.0454  0.9380
  132OSM   H12T14229   7.177   5.960   7.649  0.8300 -0.7693  2.2190
  132OSM   C13S14230   7.297   6.136   7.708  0.2470  0.1587 -0.3437
  132OSM   H13S14231   7.202   6.192   7.702 -0.9089 -1.5362  1.0746
  132OSM   H13T14232   7.371   6.209   7.668  1.1572 -0.3509  0.3777
  132OSM   C14S14233   7.326   6.096   7.854  0.8312 -0.2075 -0.0122
  132OSM   H14S14234   7.416   6.032   7.868 -0.2948 -1.3040  3.3509
  132OSM   H14T14235   7.244   6.031   7.893  0.3398  0.2409 -0.2923
  132OSM   C15S14236   7.342   6.214   7.946  0.4380 -0.2733 -0.0300
  132OSM   H15S14237   7.263   6.289   7.924 -0.2110 -1.4298 -1.8949
  132OSM   H15T14238   7.444   6.255   7.931  0.0943  1.5755  2.0796
  132OSM   C16S14239   7.337   6.172   8.088 -0.0166  0.1825 -0.1970
  132OSM   H16S14240   7.421   6.102   8.102  0.4039  0.5917 -0.6363
  132OSM   H16T14241   7.241   6.127   8.123  0.5126  0.1503  1.2711
  132OSM   C17S14242   7.358   6.290   8.178 -0.1353  0.3391  0.3713
  132OSM   H17S14243   7.274   6.363   8.168 -0.8668 -0.5953 -0.6490
  132OSM   H17T14244   7.445   6.348   8.140  0.4900 -1.8204 -1.7734
  132OSM   C18S14245   7.388   6.262   8.323  0.1328 -0.3591  0.7860
  132OSM   H18S14246   7.451   6.348   8.357  2.9134 -2.3294  1.0001
  132OSM   H18T14247   7.459   6.177   8.338  0.3278 -0.2096  0.7202
  132OSM   H18U14248   7.303   6.240   8.391  0.1151 -3.4198 -0.0904
  132OSM    C1F14249   6.540   6.127   6.735 -0.4226 -0.2066  0.5412
  132OSM     OF14250   6.472   6.032   6.706  0.3248  0.2142  0.7529
  132OSM    C2F14251   6.480   6.242   6.810  0.3762  0.0334  0.2204
  132OSM    H2F14252   6.415   6.294   6.737 -0.0618 -0.4853  0.2358
  132OSM    H2G14253   6.571   6.301   6.834 -0.2876  0.5313  1.6002
  132OSM    C3F14254   6.397   6.206   6.938  0.5780 -0.5767  0.5328
  132OSM    H3F14255   6.315   6.131   6.927 -0.7834  0.9650 -0.3222
  132OSM    H3G14256   6.337   6.296   6.964 -0.2829 -1.3271  1.2122
  132OSM    C4F14257   6.483   6.181   7.061  0.3933  0.3786  0.2499
  132OSM    H4F14258   6.416   6.152   7.144  0.7368  0.8186  0.6889
  132OSM    H4G14259   6.534   6.276   7.089  0.1787  0.5434  0.0897
  132OSM    C5F14260   6.574   6.061   7.051  0.3608  1.0053  0.1013
  132OSM    H5F14261   6.661   6.080   6.985  0.3697 -1.2790 -0.6201
  132OSM    H5G14262   6.515   5.988   6.991  0.0270 -0.9683  2.6702
  132OSM    C6F14263   6.612   6.002   7.190  0.2577 -0.4966  0.3944
  132OSM    H6F14264   6.682   5.919   7.161 -0.2845 -0.1764 -2.0698
  132OSM    H6G14265   6.523   5.963   7.243 -0.6960  0.0413 -0.7637
  132OSM    C7F14266   6.679   6.100   7.291  0.3215 -0.6455  0.0625
  132OSM    H7F14267   6.608   6.184   7.310  2.3267  1.4932 -1.3140
  132OSM    H7G14268   6.756   6.149   7.228 -1.6153  0.3158 -1.6750
  132OSM    C8F14269   6.740   6.040   7.418  0.3572  0.9288 -1.1071
  132OSM    H8F14270   6.834   6.095   7.440 -0.2707  0.5366  3.3946
  132OSM    H8G14271   6.773   5.936   7.401  1.6204  1.1724 -0.3167
  132OSM    C9F14272   6.648   6.047   7.539 -0.8511 -0.4852  0.5660
  132OSM    H9F14273   6.555   5.988   7.537  0.1553 -2.1376 -1.5163
  132OSM   C10F14274   6.684   6.113   7.651 -0.0175 -0.0829  0.0417
  132OSM   H10F14275   6.625   6.096   7.743  0.6207  0.1326  0.4987
  132OSM   C11F14276   6.803   6.194   7.686  0.0272  0.6577  0.0743
  132OSM   H11F14277   6.868   6.215   7.598 -0.9164  0.1671 -0.7687
  132OSM   H11G14278   6.869   6.138   7.755  1.0672  2.5226  0.6708
  132OSM   C12F14279   6.767   6.327   7.760  0.3788 -0.0324 -0.4249
  132OSM   H12F14280   6.694   6.399   7.718  0.2955 -0.4178 -0.9535
  132OSM   H12G14281   6.869   6.371   7.766  0.7371 -0.9931  1.1839
  132OSM   C13F14282   6.727   6.293   7.903 -0.7232 -0.3093  0.0969
  132OSM   H13F14283   6.807   6.234   7.951  0.9921  1.9097  0.0911
  132OSM   H13G14284   6.637   6.227   7.906  0.0572 -1.5460 -1.6871
  132OSM   C14F14285   6.698   6.413   7.995  0.5679 -0.3582 -0.3032
  132OSM   H14F14286   6.635   6.490   7.947 -0.2850 -0.7109  0.2346
  132OSM   H14G14287   6.800   6.454   8.014 -0.7990  3.7259 -0.8726
  132OSM   C15F14288   6.635   6.379   8.131  0.3113 -0.3666 -0.4083
  132OSM   H15F14289   6.535   6.332   8.118  0.2177 -1.0089  2.0560
  132OSM   H15G14290   6.622   6.475   8.186 -1.5356  0.4943 -2.2349
  132OSM   C16F14291   6.727   6.286   8.214  0.0390 -0.5015 -0.4095
  132OSM   H16F14292   6.824   6.336   8.236 -1.3871  1.8103  1.0795
  132OSM   H16G14293   6.727   6.185   8.167 -0.2477 -0.9001  0.4350
  132OSM   C17F14294   6.658   6.278   8.352 -0.0645  0.2893 -0.0497
  132OSM   H17F14295   6.555   6.237   8.343  0.6604 -1.8742  0.8155
  132OSM   H17G14296   6.654   6.377   8.403  0.1700 -0.1601  0.8628
  132OSM   C18F14297   6.727   6.188   8.456  0.3658 -0.3195 -0.3373
  132OSM   H18F14298   6.807   6.245   8.507 -1.0689  2.3832 -0.9078
  132OSM   H18G14299   6.776   6.095   8.421  2.8468  1.2751 -1.3663
  132OSM   H18H14300   6.651   6.162   8.532  0.0103  2.3060  0.3073
  133SAPE     N14301   3.373   2.267  10.679  0.6520 -0.4248  0.1871
  133SAPE   HN114302   3.355   2.369  10.680  0.5297 -0.3676 -2.5156
  133SAPE   HN214303   3.326   2.230  10.594 -0.5038 -0.6911  0.9196
  133SAPE   HN314304   3.317   2.224  10.756 -0.6690 -1.3380 -1.2143
  133SAPE   C1214305   3.508   2.221  10.695 -0.2173  0.4665  0.3364
  133SAPE  H12A14306   3.550   2.253  10.792  1.5273  0.1738 -0.2712
  133SAPE  H12B14307   3.576   2.248  10.611 -2.2194 -0.5280 -1.7221
  133SAPE   C1114308   3.500   2.068  10.709 -0.0284 -0.4371  0.4717
  133SAPE  H11A14309   3.453   2.040  10.806 -1.3367  1.9597  0.5976
  133SAPE  H11B14310   3.607   2.039  10.716  0.1153  0.3981  3.3717
  133SAPE     P14311   3.424   1.852  10.578  0.1700 -0.0220 -0.1197
  133SAPE   O1314312   3.522   1.784  10.664 -0.1574 -0.4416 -0.3957
  133SAPE   O1414313   3.280   1.810  10.575 -0.1594 -0.7500  0.0955
  133SAPE   O1214314   3.431   2.009  10.602 -0.2321  0.0440  0.1226
  133SAPE   O1114315   3.475   1.846  10.426 -0.3304 -0.0317  0.3250
  133SAPE    C114316   3.563   1.944  10.369 -0.3828 -0.3115 -0.2216
  133SAPE    HA14317   3.501   2.025  10.327 -0.5919  0.0972  0.8501
  133SAPE    HB14318   3.630   1.994  10.443 -1.5573  1.1047 -0.0780
  133SAPE    C214319   3.658   1.899  10.246 -0.1761 -0.0108 -0.1066
  133SAPE    HS14320   3.725   1.983  10.221  1.8332 -1.3700  0.4679
  133SAPE   O2114321   3.581   1.850  10.135 -0.1675  0.1161  0.0952
  133SAPE   C2114322   3.526   1.950  10.063  0.1704 -0.0907 -0.4060
  133SAPE   O2214323   3.550   2.065  10.079  0.6172 -0.1154 -0.4345
  133SAPE   C2214324   3.420   1.896   9.972 -0.5455 -0.8551  1.0504
  133SAPE   H2R14325   3.340   1.865  10.042 -1.3688 -1.4213 -0.1199
  133SAPE   H2S14326   3.391   1.976   9.901  4.5124  2.0283  1.6957
  133SAPE    C314327   3.763   1.782  10.291  0.7136 -0.1742 -0.0846
  133SAPE    HX14328   3.695   1.722  10.355  0.5331  0.8936  0.7693
  133SAPE    HY14329   3.840   1.832  10.355  1.3443  1.0357 -1.7161
  133SAPE   O3114330   3.831   1.711  10.188  0.2696 -0.0382 -0.8395
  133SAPE   C3114331   3.896   1.780  10.097  0.4360  0.1017 -0.3337
  133SAPE   O3214332   3.929   1.901  10.105 -0.0771 -0.3560 -0.4073
  133SAPE   C3214333   3.929   1.690   9.971  0.1121 -0.3059  0.5216
  133SAPE   H2X14334   3.836   1.636   9.946  1.1874 -0.4587 -4.0320
  133SAPE   H2Y14335   4.011   1.619   9.997 -0.5576 -0.5902  1.9697
  133SAPE   C2314336   3.463   1.783   9.881 -0.3296  0.4141 -0.1664
  133SAPE   H3R14337   3.368   1.734   9.853 -0.9264  0.0538  2.2579
  133SAPE   H3S14338   3.510   1.702   9.940 -0.3987 -2.0484 -3.2625
  133SAPE   C2414339   3.556   1.813   9.761 -0.8860  0.0852  0.0646
  133SAPE   H4R14340   3.659   1.835   9.796 -0.6864  0.0846 -0.5081
  133SAPE   H4S14341   3.517   1.905   9.711 -0.0629  0.5937  0.3360
  133SAPE   C2514342   3.565   1.693   9.668  0.3626  0.8923 -0.3121
  133SAPE   H5R14343   3.590   1.602   9.725 -0.6934  0.1379 -1.0089
  133SAPE   C2614344   3.527   1.673   9.539  0.7145 -0.5878  0.2296
  133SAPE   H6R14345   3.528   1.573   9.494 -1.1639 -0.2839 -0.5831
  133SAPE   C2714346   3.470   1.777   9.441  0.2191 -0.6220 -0.3319
  133SAPE   H7R14347   3.429   1.869   9.487  1.3006 -1.4201  2.3965
  133SAPE   H7S14348   3.375   1.739   9.398 -0.3436  1.0038 -0.5805
  133SAPE   C2814349   3.572   1.820   9.344  0.3659 -0.2063 -0.2965
  133SAPE   H8R14350   3.671   1.826   9.392  0.6828 -1.3125 -0.7821
  133SAPE   C2914351   3.565   1.836   9.212  0.2043  0.1126 -0.4360
  133SAPE   H9R14352   3.662   1.853   9.164  0.3854  0.8781  0.1735
  133SAPE  C21014353   3.445   1.814   9.126  0.0727  0.4658 -0.1310
  133SAPE  H10R14354   3.346   1.807   9.176 -0.0382  0.2413 -0.3787
  133SAPE  H10S14355   3.458   1.715   9.077 -2.1079  0.1361 -0.1728
  133SAPE  C21114356   3.447   1.925   9.036  0.2332 -0.2826  0.0961
  133SAPE  H11R14357   3.428   2.025   9.078  1.2296 -0.0887  0.1165
  133SAPE  C21214358   3.443   1.926   8.900 -0.6547  0.2636  0.0349
  133SAPE  H12R14359   3.416   2.021   8.852 -0.7765 -0.9489 -2.4471
  133SAPE  C21314360   3.433   1.800   8.820  0.6384  0.9825 -0.2979
  133SAPE  H13R14361   3.361   1.812   8.737 -0.6265 -1.4126  0.3708
  133SAPE  H13S14362   3.385   1.718   8.878  3.4851 -0.8145 -0.2508
  133SAPE  C21414363   3.568   1.751   8.776 -0.6755  0.3887 -0.0212
  133SAPE  H14R14364   3.635   1.724   8.858 -1.2080 -3.4755 -0.6874
  133SAPE  C21514365   3.609   1.727   8.650  0.3308 -1.0468  0.1818
  133SAPE  H15R14366   3.708   1.682   8.633  0.5107 -0.4579 -0.3667
  133SAPE  C21614367   3.538   1.759   8.522 -0.2147  0.5429 -0.1544
  133SAPE  H16R14368   3.438   1.793   8.557  0.4281 -0.8122  3.5008
  133SAPE  H16S14369   3.527   1.661   8.470 -0.3562 -1.2162  2.8978
  133SAPE  C21714370   3.623   1.861   8.446 -0.2212 -0.3953  0.1635
  133SAPE  H17R14371   3.651   1.951   8.506  0.7948  0.8773 -2.0987
  133SAPE  H17S14372   3.567   1.909   8.363 -0.3800 -0.5549  0.1791
  133SAPE  C21814373   3.750   1.804   8.384 -0.8548 -0.0138 -0.5500
  133SAPE  H18R14374   3.726   1.730   8.305 -1.2995 -0.7768  0.2812
  133SAPE  H18S14375   3.823   1.754   8.450  0.1511  4.1422  1.8652
  133SAPE  C21914376   3.854   1.908   8.323  0.8099 -0.0817 -0.4439
  133SAPE  H19R14377   3.805   1.954   8.235 -0.3968  1.2510  0.8723
  133SAPE  H19S14378   3.935   1.846   8.279  0.5145 -2.9376  2.6676
  133SAPE  C22014379   3.912   2.016   8.425  0.2916 -0.3518  0.1209
  133SAPE  H20R14380   4.019   1.991   8.441  0.2353 -1.0280 -0.5074
  133SAPE  H20S14381   3.848   2.013   8.516  0.9362  0.0707  0.5994
  133SAPE  H20T14382   3.897   2.118   8.383 -1.6593 -1.8161 -3.1327
  133SAPE   C3314383   3.969   1.770   9.846 -0.1513  0.1259  0.1467
  133SAPE   H3X14384   4.077   1.793   9.853 -0.3276  0.3877  2.5284
  133SAPE   H3Y14385   3.898   1.855   9.837 -0.5506 -0.3858 -2.6637
  133SAPE   C3414386   3.949   1.683   9.718 -0.2657  0.4124  0.2755
  133SAPE   H4X14387   3.849   1.636   9.708 -0.5428  1.4738 -3.0276
  133SAPE   H4Y14388   4.029   1.606   9.713 -1.1812 -0.5411 -0.2513
  133SAPE   C3514389   3.968   1.780   9.598  0.1436 -0.0810 -0.1212
  133SAPE   H5X14390   4.069   1.827   9.605 -1.1169  2.6461  1.2497
  133SAPE   H5Y14391   3.902   1.868   9.610  2.0658  1.5442 -0.8427
  133SAPE   C3614392   3.950   1.709   9.460 -0.2187  0.6078 -0.4032
  133SAPE   H6X14393   3.851   1.658   9.464  0.6251 -1.0749  0.8411
  133SAPE   H6Y14394   4.027   1.629   9.446  1.3026  1.8380  0.5813
  133SAPE   C3714395   3.957   1.811   9.345  0.4709  0.7310  0.1371
  133SAPE   H7X14396   4.036   1.886   9.368  0.0025  1.0850  0.6300
  133SAPE   H7Y14397   3.864   1.870   9.336  0.5891  0.8829 -0.0855
  133SAPE   C3814398   3.981   1.740   9.203 -0.2276 -0.3047 -0.3426
  133SAPE   H8X14399   3.903   1.662   9.197 -0.9903  0.4924 -1.1405
  133SAPE   H8Y14400   4.085   1.700   9.207  0.9944  2.6785  0.5335
  133SAPE   C3914401   3.967   1.837   9.081  0.0933 -1.4512 -0.0614
  133SAPE   H9X14402   4.040   1.921   9.080 -1.5557  0.1203 -3.1589
  133SAPE   H9Y14403   3.866   1.882   9.081  0.4865 -0.4290  2.2151
  133SAPE  C31014404   3.985   1.754   8.957  0.7742  0.3751  1.5394
  133SAPE  H10X14405   3.924   1.662   8.969  1.6572 -0.3913  0.3648
  133SAPE  H10Y14406   4.090   1.720   8.950  0.3062 -0.8265 -0.6623
  133SAPE  C31114407   3.944   1.819   8.821  0.0822 -0.2246 -0.2320
  133SAPE  H11X14408   3.841   1.859   8.828 -0.2991 -1.2681  0.2865
  133SAPE  H11Y14409   3.939   1.749   8.735  2.6560 -0.3807 -0.3304
  133SAPE  C31214410   4.025   1.942   8.781  0.0393  0.0888  0.5172
  133SAPE  H12X14411   4.025   2.003   8.874 -1.3886  0.2688  0.4240
  133SAPE  H12Y14412   3.989   2.003   8.696  1.1315  0.1395  0.0799
  133SAPE  C31314413   4.165   1.899   8.743 -0.7357 -0.1537  0.1957
  133SAPE  H13X14414   4.157   1.807   8.681  1.8738  0.5828 -1.3662
  133SAPE  H13Y14415   4.221   1.877   8.836 -1.4300  0.1042  0.6844
  133SAPE  C31414416   4.234   2.007   8.666 -0.3122 -0.5117  0.3483
  133SAPE  H14X14417   4.211   2.104   8.714 -1.3001 -1.2634  1.4180
  133SAPE  H14Y14418   4.179   2.023   8.571  2.7727  1.4137 -1.3004
  133SAPE  C31514419   4.380   1.981   8.644 -0.7124 -0.1233  0.4145
  133SAPE  H15X14420   4.389   1.912   8.557  0.2025  0.3788  0.0923
  133SAPE  H15Y14421   4.430   1.947   8.737 -2.5345  0.8430  1.8180
  133SAPE  C31614422   4.458   2.104   8.581 -0.2121  0.2408 -0.9363
  133SAPE  H16X14423   4.456   2.196   8.644  2.3602  0.2146 -0.7330
  133SAPE  H16Y14424   4.420   2.133   8.481 -0.0734 -0.9885 -1.3634
  133SAPE  C31714425   4.597   2.053   8.558 -0.2998 -0.1620 -0.1390
  133SAPE  H17X14426   4.591   1.976   8.478 -3.0923  0.2707 -0.4729
  133SAPE  H17Y14427   4.609   2.010   8.660 -1.0866  0.5042  0.2485
  133SAPE  C31814428   4.693   2.163   8.520  0.4984  0.1787 -0.0698
  133SAPE  H18X14429   4.793   2.121   8.495  0.2113 -2.1775  2.2501
  133SAPE  H18Y14430   4.698   2.238   8.603  2.4545 -0.7387  0.7117
  133SAPE  H18Z14431   4.656   2.230   8.440  3.0730  1.7580 -0.0379
  134SAPE     N14432   5.256   3.972  10.766  0.2716  0.5183 -0.0801
  134SAPE   HN114433   5.219   3.965  10.863 -0.8613 -0.1033 -0.5383
  134SAPE   HN214434   5.259   3.878  10.721  0.0823  1.1128 -1.3774
  134SAPE   HN314435   5.355   4.005  10.775  0.4643  0.4937 -1.7481
  134SAPE   C1214436   5.185   4.084  10.710 -0.1276  0.5118 -0.4350
  134SAPE  H12A14437   5.207   4.179  10.761 -0.4236 -0.5421  1.7578
  134SAPE  H12B14438   5.076   4.063  10.719  0.1392 -0.9832 -0.3398
  134SAPE   C1114439   5.228   4.100  10.561  0.4498  0.6736  0.0716
  134SAPE  H11A14440   5.182   4.188  10.512  0.2683  0.0362 -0.9337
  134SAPE  H11B14441   5.186   4.009  10.512 -0.3103  0.3094  1.3424
  134SAPE     P14442   5.442   4.216  10.477  0.0363  0.1187 -0.1836
  134SAPE   O1314443   5.392   4.345  10.529  0.1435 -0.4828 -0.1412
  134SAPE   O1414444   5.580   4.193  10.500 -0.4275 -0.3305  0.1523
  134SAPE   O1214445   5.366   4.103  10.548 -0.0893 -0.3015  0.2366
  134SAPE   O1114446   5.398   4.198  10.325 -0.3640 -0.3087 -0.1150
  134SAPE    C114447   5.473   4.127  10.221 -0.5052  0.6428 -0.6351
  134SAPE    HA14448   5.488   4.197  10.136 -0.3630 -0.7598 -1.8030
  134SAPE    HB14449   5.575   4.088  10.240 -0.8630 -0.9623 -1.8287
  134SAPE    C214450   5.375   4.011  10.171 -0.4285  0.4665  0.5736
  134SAPE    HS14451   5.404   3.957  10.078  0.4366  0.6968  0.6929
  134SAPE   O2114452   5.234   4.047  10.186 -0.7887  0.1153 -0.0394
  134SAPE   C2114453   5.197   4.134  10.099  0.0697  0.1048 -0.0783
  134SAPE   O2214454   5.268   4.193  10.022 -0.5817 -0.0769  0.1693
  134SAPE   C2214455   5.048   4.159  10.127  1.0298  0.0099  0.4365
  134SAPE   H2R14456   5.009   4.069  10.180  1.4172  0.4061  1.4258
  134SAPE   H2S14457   5.053   4.232  10.211  0.6762 -2.4710  2.7933
  134SAPE    C314458   5.384   3.903  10.279 -0.3569 -0.3103  0.1616
  134SAPE    HX14459   5.321   3.818  10.245  0.3824 -0.5607 -0.6305
  134SAPE    HY14460   5.355   3.945  10.378  1.0143  0.8049  0.1269
  134SAPE   O3114461   5.514   3.854  10.292  0.5451 -0.6382 -0.1508
  134SAPE   C3114462   5.522   3.756  10.384 -0.0923  0.4210  0.4594
  134SAPE   O3214463   5.427   3.683  10.417 -0.1564 -0.1802 -0.6071
  134SAPE   C3214464   5.670   3.721  10.400 -0.4123 -0.3872  0.2511
  134SAPE   H2X14465   5.701   3.750  10.502 -1.9440  0.3403  0.5337
  134SAPE   H2Y14466   5.731   3.790  10.338  1.0002 -1.1721  0.7383
  134SAPE   C2314467   4.971   4.204  10.002 -0.0520 -0.8475 -0.0162
  134SAPE   H3R14468   5.023   4.292   9.957 -0.1310 -0.9234 -0.2541
  134SAPE   H3S14469   4.875   4.234  10.049  1.0679  0.5158  1.5234
  134SAPE   C2414470   4.938   4.100   9.885  0.3427 -0.2101  0.2210
  134SAPE   H4R14471   5.027   4.095   9.820  0.4622  1.0035  0.2630
  134SAPE   H4S14472   4.857   4.141   9.821  0.3261 -1.5509 -0.6531
  134SAPE   C2514473   4.900   3.965   9.942 -0.2071  0.2984 -0.2253
  134SAPE   H5R14474   4.805   3.957   9.997 -0.8504 -0.0437 -1.3700
  134SAPE   C2614475   4.976   3.858   9.921 -0.5301  0.0050  0.4675
  134SAPE   H6R14476   4.944   3.770   9.978 -1.7363  0.5974  0.7279
  134SAPE   C2714477   5.108   3.847   9.843  0.8895 -0.8684  0.3702
  134SAPE   H7R14478   5.174   3.925   9.885  0.2342 -1.3057  2.3471
  134SAPE   H7S14479   5.094   3.869   9.735  0.6306 -1.6273  0.2381
  134SAPE   C2814480   5.177   3.718   9.850  0.3419  0.1361  0.4669
  134SAPE   H8R14481   5.241   3.696   9.937 -0.9732  1.5556  1.8640
  134SAPE   C2914482   5.157   3.614   9.758  0.5906 -0.7905  0.1633
  134SAPE   H9R14483   5.219   3.524   9.763  1.3601 -0.3156 -0.6018
  134SAPE  C21014484   5.055   3.624   9.643  0.1847 -0.1856 -0.0187
  134SAPE  H10R14485   5.001   3.721   9.636  0.6404  0.2034  1.5368
  134SAPE  H10S14486   4.975   3.555   9.679  1.0361 -1.1880 -0.0095
  134SAPE  C21114487   5.103   3.596   9.508 -0.3531  0.0432  0.0827
  134SAPE  H11R14488   5.181   3.666   9.473  0.7568 -0.4299  1.5015
  134SAPE  C21214489   5.044   3.511   9.421  0.2922  0.4125  0.2528
  134SAPE  H12R14490   5.090   3.499   9.321 -0.6711  1.5306 -0.3545
  134SAPE  C21314491   4.921   3.424   9.440  0.1690  0.6194 -0.3471
  134SAPE  H13R14492   4.874   3.439   9.540 -2.4745  0.0568 -1.4420
  134SAPE  H13S14493   4.948   3.317   9.450 -0.6248  0.3470 -0.9795
  134SAPE  C21414494   4.820   3.446   9.330  0.0208 -0.0497 -0.2392
  134SAPE  H14R14495   4.743   3.523   9.346 -0.0924 -0.1882 -0.1134
  134SAPE  C21514496   4.828   3.390   9.209  0.3992  0.4472  0.0400
  134SAPE  H15R14497   4.748   3.412   9.138  0.9304  2.4615  0.0076
  134SAPE  C21614498   4.930   3.296   9.155 -0.0273  0.4188 -0.5595
  134SAPE  H16R14499   4.952   3.202   9.210 -2.9274 -1.2272 -1.9761
  134SAPE  H16S14500   5.027   3.350   9.147 -0.5169  1.2869 -0.7743
  134SAPE  C21714501   4.890   3.250   9.009  0.8119 -0.2259 -0.4228
  134SAPE  H17R14502   4.880   3.340   8.944 -2.2244  0.8714  1.3541
  134SAPE  H17S14503   4.792   3.198   9.004  0.4354  0.3755  0.5020
  134SAPE  C21814504   4.990   3.142   8.966 -0.0461  0.0441  0.0774
  134SAPE  H18R14505   4.987   3.073   9.053  1.6177  1.1456  1.0663
  134SAPE  H18S14506   5.098   3.165   8.957  0.1267 -0.7822 -0.0757
  134SAPE  C21914507   4.963   3.070   8.832  0.0430 -0.2272  0.0772
  134SAPE  H19R14508   4.857   3.054   8.804 -0.0827  1.5738 -0.6218
  134SAPE  H19S14509   5.020   2.975   8.829  3.4921  1.5372  2.5881
  134SAPE  C22014510   5.025   3.159   8.711  0.2199 -0.2239 -0.2855
  134SAPE  H20R14511   5.136   3.152   8.709  0.4578  0.7610  3.3791
  134SAPE  H20S14512   5.000   3.266   8.727  4.0240  0.4998  1.9568
  134SAPE  H20T14513   4.980   3.131   8.613 -1.8436  1.9081 -0.0226
  134SAPE   C3314514   5.713   3.573  10.381  0.6156 -0.9657  0.3324
  134SAPE   H3X14515   5.636   3.502  10.418 -0.7494  0.8440  1.1208
  134SAPE   H3Y14516   5.797   3.562  10.453  0.3953 -4.0161  0.2554
  134SAPE   C3414517   5.737   3.524  10.234 -0.7080  0.4652  0.3881
  134SAPE   H4X14518   5.784   3.423  10.228 -3.3740 -0.7921 -1.0019
  134SAPE   H4Y14519   5.794   3.597  10.172 -1.7556 -0.1203 -1.3553
  134SAPE   C3514520   5.600   3.512  10.153  0.7982  0.3344  0.6006
  134SAPE   H5X14521   5.539   3.604  10.160 -0.4153 -0.4202  0.2474
  134SAPE   H5Y14522   5.542   3.421  10.179  1.0975  0.1661  0.6795
  134SAPE   C3614523   5.630   3.492  10.001 -0.4573 -0.0569 -0.0002
  134SAPE   H6X14524   5.695   3.402   9.987 -0.4276  0.2083 -1.8204
  134SAPE   H6Y14525   5.689   3.579   9.966 -3.1166  1.1667 -1.7514
  134SAPE   C3714526   5.506   3.488   9.923 -0.2040  0.0784  0.0967
  134SAPE   H7X14527   5.453   3.579   9.956  2.1923  2.2655 -1.6781
  134SAPE   H7Y14528   5.439   3.400   9.934 -0.5134  0.3543  0.4590
  134SAPE   C3814529   5.531   3.514   9.774 -0.2528 -0.4928 -0.6633
  134SAPE   H8X14530   5.576   3.616   9.769  1.6206 -1.3179 -1.5247
  134SAPE   H8Y14531   5.434   3.520   9.721 -0.0435  2.9364 -0.8595
  134SAPE   C3914532   5.626   3.420   9.707 -0.3484 -0.4007 -0.0492
  134SAPE   H9X14533   5.596   3.316   9.730 -2.0967 -0.2071 -1.2517
  134SAPE   H9Y14534   5.726   3.451   9.745 -0.9853  2.2554 -0.3098
  134SAPE  C31014535   5.624   3.450   9.559  0.5303  0.4513 -0.2823
  134SAPE  H10X14536   5.628   3.560   9.542  0.3185  0.8556  2.0322
  134SAPE  H10Y14537   5.523   3.423   9.520  0.0502 -0.9146  1.7756
  134SAPE  C31114538   5.723   3.369   9.482  0.4797  0.7947 -0.0669
  134SAPE  H11X14539   5.727   3.278   9.545 -0.0318  0.5720 -0.3471
  134SAPE  H11Y14540   5.824   3.416   9.474  1.1952 -0.7890 -0.8187
  134SAPE  C31214541   5.675   3.341   9.336  0.2867  0.3932 -0.7846
  134SAPE  H12X14542   5.653   3.440   9.289  1.5105  0.6573 -0.8393
  134SAPE  H12Y14543   5.580   3.285   9.348  1.1046 -0.4879  2.6803
  134SAPE  C31314544   5.766   3.263   9.236  0.1818 -0.5810 -0.1074
  134SAPE  H13X14545   5.793   3.163   9.277 -3.4849 -1.7827 -0.2562
  134SAPE  H13Y14546   5.863   3.314   9.216  0.4365 -1.0301 -0.0437
  134SAPE  C31414547   5.692   3.244   9.099  0.7453  0.4475  0.2356
  134SAPE  H14X14548   5.596   3.192   9.120  1.2029  0.6318  3.2894
  134SAPE  H14Y14549   5.764   3.183   9.040  0.9975 -0.7585  1.7143
  134SAPE  C31514550   5.660   3.379   9.033  0.4364 -0.5493 -0.0908
  134SAPE  H15X14551   5.758   3.432   9.030 -0.8779  2.1971  1.8630
  134SAPE  H15Y14552   5.580   3.438   9.081  0.0623 -0.2466 -1.0567
  134SAPE  C31614553   5.624   3.368   8.884 -0.4483 -0.1178  0.2662
  134SAPE  H16X14554   5.518   3.345   8.864 -0.7695  2.3082 -1.1558
  134SAPE  H16Y14555   5.688   3.288   8.840  1.7110  1.2696  0.7301
  134SAPE  C31714556   5.653   3.501   8.805 -0.0870 -0.2167 -0.7165
  134SAPE  H17X14557   5.763   3.502   8.811 -0.0431  0.1241 -1.3878
  134SAPE  H17Y14558   5.616   3.588   8.863  0.0664  0.1527 -1.1606
  134SAPE  C31814559   5.625   3.498   8.658  0.8234  0.3847  0.2006
  134SAPE  H18X14560   5.651   3.393   8.632 -2.3475 -1.4731  3.6276
  134SAPE  H18Y14561   5.674   3.581   8.602 -1.2413 -0.3638 -3.0058
  134SAPE  H18Z14562   5.515   3.501   8.643  0.8313  0.4698  0.1628
  135SAPE     N14563   3.358   2.487  11.044 -0.8565  0.2954 -0.7007
  135SAPE   HN114564   3.330   2.521  10.950  2.0179 -0.9197 -2.0904
  135SAPE   HN214565   3.349   2.384  11.056 -2.4557  0.5289  0.5446
  135SAPE   HN314566   3.304   2.541  11.115 -0.2326  1.9274 -1.4169
  135SAPE   C1214567   3.500   2.535  11.051 -0.2912 -0.8713  0.1684
  135SAPE  H12A14568   3.568   2.462  11.101 -1.0717 -1.1712  0.8046
  135SAPE  H12B14569   3.504   2.624  11.116 -0.1201 -0.9687  0.2940
  135SAPE   C1114570   3.545   2.573  10.907  0.2588  0.1364  0.2359
  135SAPE  H11A14571   3.556   2.485  10.840  2.9474  0.5933 -0.0323
  135SAPE  H11B14572   3.654   2.595  10.917  0.3150 -0.8690  2.2268
  135SAPE     P14573   3.391   2.659  10.717  0.1719 -0.2314 -0.0303
  135SAPE   O1314574   3.330   2.524  10.739 -0.3545  0.2463 -0.4232
  135SAPE   O1414575   3.306   2.782  10.697 -0.5912 -0.3399  0.5846
  135SAPE   O1214576   3.461   2.684  10.855 -0.2131  0.0439 -0.1546
  135SAPE   O1114577   3.517   2.651  10.617 -0.6374 -0.4807 -0.7028
  135SAPE    C114578   3.578   2.772  10.571 -0.2406  0.4596  0.1764
  135SAPE    HA14579   3.508   2.859  10.577  0.3524  1.0419 -1.1412
  135SAPE    HB14580   3.658   2.792  10.646 -1.2459 -0.5884  1.5938
  135SAPE    C214581   3.650   2.767  10.431  0.1499 -0.5179 -0.4349
  135SAPE    HS14582   3.680   2.872  10.407 -1.7772 -0.1911 -1.6648
  135SAPE   O2114583   3.564   2.714  10.333  0.9181 -0.0905  1.2688
  135SAPE   C2114584   3.601   2.744  10.204 -0.6483 -0.7694 -0.3761
  135SAPE   O2214585   3.697   2.815  10.174 -1.0064  0.8248  0.0425
  135SAPE   C2214586   3.504   2.677  10.107 -0.3673 -0.4461  0.0585
  135SAPE   H2R14587   3.516   2.567  10.114 -0.9990 -0.5018  0.3625
  135SAPE   H2S14588   3.400   2.692  10.144 -0.5273 -0.5006 -0.3682
  135SAPE    C314589   3.779   2.678  10.451 -0.1592 -0.3168 -0.5112
  135SAPE    HX14590   3.749   2.573  10.472 -2.0052  0.3113  0.2727
  135SAPE    HY14591   3.834   2.712  10.541 -1.0248 -1.1359  0.3562
  135SAPE   O3114592   3.868   2.662  10.339  0.0593  0.4115  0.0815
  135SAPE   C3114593   3.942   2.765  10.320 -0.5932 -0.5864  0.4008
  135SAPE   O3214594   3.944   2.872  10.381  0.4214 -0.2927 -0.3494
  135SAPE   C3214595   4.023   2.751  10.185  0.2987 -0.2983  0.6810
  135SAPE   H2X14596   4.129   2.737  10.214  0.4982 -2.0363 -0.7022
  135SAPE   H2Y14597   4.017   2.853  10.142 -1.0675  0.0587  1.6596
  135SAPE   C2314598   3.511   2.736   9.966 -0.1486  0.0568  0.6674
  135SAPE   H3R14599   3.496   2.651   9.896  2.6164  0.6655 -0.8112
  135SAPE   H3S14600   3.611   2.782   9.948 -1.1621  1.8425 -0.6476
  135SAPE   C2414601   3.397   2.841   9.946  0.2713  0.0101 -0.3011
  135SAPE   H4R14602   3.434   2.905   9.864 -0.0179  0.7197  0.1161
  135SAPE   H4S14603   3.396   2.908  10.034  0.3292  0.3178 -0.5350
  135SAPE   C2514604   3.265   2.775   9.915 -0.4152  0.5163 -0.5013
  135SAPE   H5R14605   3.217   2.738  10.007  0.9158 -2.2753 -0.8392
  135SAPE   C2614606   3.195   2.767   9.800  0.1681 -0.4232 -0.3236
  135SAPE   H6R14607   3.103   2.706   9.804 -1.0891  1.4622  1.4616
  135SAPE   C2714608   3.246   2.800   9.662  0.7952 -0.4362 -0.8650
  135SAPE   H7R14609   3.289   2.903   9.661  1.7581 -0.7342  1.6853
  135SAPE   H7S14610   3.160   2.795   9.592  1.9501 -1.8342 -2.2473
  135SAPE   C2814611   3.358   2.712   9.623 -0.5473 -0.4199  0.3266
  135SAPE   H8R14612   3.435   2.699   9.700 -0.3457  2.8421  0.8321
  135SAPE   C2914613   3.387   2.667   9.496  0.6750  0.1602  1.0568
  135SAPE   H9R14614   3.478   2.608   9.477 -0.1774 -0.5692 -1.0748
  135SAPE  C21014615   3.293   2.691   9.368 -0.6064  0.1922  0.1231
  135SAPE  H10R14616   3.192   2.699   9.413 -0.4750  0.9944  0.2968
  135SAPE  H10S14617   3.288   2.600   9.304  2.2900 -1.9846  2.6566
  135SAPE  C21114618   3.330   2.813   9.296  0.4694 -0.3225  0.0570
  135SAPE  H11R14619   3.334   2.904   9.359 -2.6623 -0.2457  0.2925
  135SAPE  C21214620   3.364   2.824   9.165  0.0265  0.1523 -0.2164
  135SAPE  H12R14621   3.405   2.921   9.136  1.2273  0.2559  1.6437
  135SAPE  C21314622   3.379   2.712   9.064 -0.4047  0.0618 -0.0840
  135SAPE  H13R14623   3.323   2.746   8.974  1.3744 -1.6193 -1.9429
  135SAPE  H13S14624   3.328   2.620   9.102  0.4191 -0.8775 -1.1653
  135SAPE  C21414625   3.527   2.687   9.028  0.7856  0.4651 -0.4070
  135SAPE  H14R14626   3.597   2.726   9.103  0.0690  2.6511 -0.8146
  135SAPE  C21514627   3.573   2.623   8.918 -0.2513  0.6362 -0.4152
  135SAPE  H15R14628   3.680   2.633   8.895 -0.5523  0.7106 -1.8700
  135SAPE  C21614629   3.476   2.561   8.816 -0.1612 -0.6734 -0.5372
  135SAPE  H16R14630   3.481   2.615   8.719  0.8660 -0.1256 -0.1917
  135SAPE  H16S14631   3.375   2.582   8.857  0.6799 -1.3731  2.0950
  135SAPE  C21714632   3.521   2.416   8.794 -0.1247  0.6047 -0.2956
  135SAPE  H17R14633   3.444   2.379   8.722 -0.6324  1.1339 -0.0300
  135SAPE  H17S14634   3.510   2.358   8.888 -1.6828  1.4334  0.0680
  135SAPE  C21814635   3.650   2.390   8.721  0.3779  0.4079 -0.2599
  135SAPE  H18R14636   3.738   2.424   8.779  1.2829 -1.0503 -0.7334
  135SAPE  H18S14637   3.646   2.456   8.632 -1.9207  2.4496  1.2021
  135SAPE  C21914638   3.668   2.246   8.682 -0.0013 -0.3357  0.6981
  135SAPE  H19R14639   3.751   2.241   8.609 -0.3783  0.0481  0.2428
  135SAPE  H19S14640   3.587   2.215   8.613  1.7013 -0.1973 -1.4561
  135SAPE  C22014641   3.696   2.155   8.800 -0.1203  0.2129 -0.1559
  135SAPE  H20R14642   3.668   2.052   8.767 -2.0298  1.2039 -1.8641
  135SAPE  H20S14643   3.640   2.189   8.890  0.0386  0.1932 -0.0500
  135SAPE  H20T14644   3.805   2.167   8.814 -0.1679 -0.7181  1.1502
  135SAPE   C3314645   3.974   2.640  10.093 -0.4718 -0.2701  1.2894
  135SAPE   H3X14646   3.870   2.668  10.065 -0.4513 -0.5335  0.9487
  135SAPE   H3Y14647   3.959   2.544  10.145 -0.5531 -1.9337 -1.6045
  135SAPE   C3414648   4.083   2.625   9.978 -0.0645 -0.7442  0.1634
  135SAPE   H4X14649   4.067   2.520   9.944  0.4614 -0.6098 -0.5230
  135SAPE   H4Y14650   4.184   2.620  10.023 -0.4537  0.2131  1.1956
  135SAPE   C3514651   4.071   2.723   9.861 -0.6242  0.2129 -0.0422
  135SAPE   H5X14652   4.091   2.829   9.887 -1.4549 -0.1744  2.4876
  135SAPE   H5Y14653   3.964   2.729   9.831 -0.3705  0.4270 -0.9284
  135SAPE   C3614654   4.143   2.683   9.730  0.1196  0.4409 -0.2458
  135SAPE   H6X14655   4.092   2.592   9.690  0.9800 -0.0977 -0.1359
  135SAPE   H6Y14656   4.247   2.655   9.758  0.1148  0.8578  0.2146
  135SAPE   C3714657   4.170   2.790   9.628 -0.3603 -0.6080  0.4548
  135SAPE   H7X14658   4.265   2.847   9.640 -0.0282 -1.3989  1.7476
  135SAPE   H7Y14659   4.084   2.860   9.637 -0.5222 -0.7831  0.2797
  135SAPE   C3814660   4.151   2.738   9.482  0.6601  0.3686 -0.4651
  135SAPE   H8X14661   4.055   2.685   9.467  0.0385  1.1097  0.7051
  135SAPE   H8Y14662   4.235   2.668   9.463 -0.8146 -1.4121 -0.6516
  135SAPE   C3914663   4.156   2.850   9.372 -0.6737  0.3295 -0.3480
  135SAPE   H9X14664   4.261   2.886   9.376 -0.1775 -0.9936 -0.9504
  135SAPE   H9Y14665   4.075   2.926   9.375 -1.6365 -0.6481 -0.9589
  135SAPE  C31014666   4.153   2.781   9.227 -0.3558 -0.3588 -0.4225
  135SAPE  H10X14667   4.050   2.741   9.212 -0.1376 -0.6047 -1.3014
  135SAPE  H10Y14668   4.223   2.695   9.219  0.4021  0.2110 -0.0231
  135SAPE  C31114669   4.173   2.889   9.124 -0.7230 -0.0444 -0.7072
  135SAPE  H11X14670   4.277   2.926   9.139 -0.5683 -1.2547  1.6380
  135SAPE  H11Y14671   4.090   2.959   9.150 -0.6905 -0.8219  1.6965
  135SAPE  C31214672   4.155   2.845   8.979 -0.2761  0.7815  0.6177
  135SAPE  H12X14673   4.075   2.769   8.965  1.4362 -1.0051  0.0684
  135SAPE  H12Y14674   4.253   2.796   8.962 -0.9493 -0.1531 -0.6806
  135SAPE  C31314675   4.110   2.959   8.886 -0.4766  1.0152 -0.5318
  135SAPE  H13X14676   4.200   3.023   8.900  0.3858 -0.2422 -0.1921
  135SAPE  H13Y14677   4.017   3.004   8.926 -2.1672  1.9553 -4.9997
  135SAPE  C31414678   4.071   2.921   8.738 -0.0336 -0.0358  0.2452
  135SAPE  H14X14679   4.152   2.859   8.695 -0.2124 -0.9754  1.2356
  135SAPE  H14Y14680   4.057   3.019   8.686  2.0383  1.5567  2.4225
  135SAPE  C31514681   3.946   2.830   8.737  0.3246  0.0155  1.0570
  135SAPE  H15X14682   3.861   2.884   8.784 -0.4335 -1.0539  0.9416
  135SAPE  H15Y14683   3.975   2.741   8.796  0.3380 -1.2054 -0.7113
  135SAPE  C31614684   3.920   2.776   8.596 -0.3159 -0.2586  0.5548
  135SAPE  H16X14685   4.010   2.741   8.541 -1.6192 -1.5380 -0.8676
  135SAPE  H16Y14686   3.886   2.865   8.539  2.8682 -0.2460 -1.5987
  135SAPE  C31714687   3.811   2.674   8.598 -0.3883  0.3987 -0.5431
  135SAPE  H17X14688   3.726   2.727   8.647  2.1388  1.7807  2.7047
  135SAPE  H17Y14689   3.845   2.595   8.668 -1.1783  1.3323  0.9609
  135SAPE  C31814690   3.772   2.626   8.452 -0.8204 -0.2666 -0.4988
  135SAPE  H18X14691   3.667   2.591   8.452 -1.6743  1.9864  1.8797
  135SAPE  H18Y14692   3.847   2.551   8.419  0.0347 -0.3350  1.4619
  135SAPE  H18Z14693   3.790   2.706   8.376 -2.8652  0.4728 -0.2756
  136SAPE     N14694   0.331   3.457  10.998  0.2204 -0.8887  0.5000
  136SAPE   HN114695   0.241   3.475  11.048 -1.6551 -1.9335 -2.2189
  136SAPE   HN214696   0.358   3.359  11.020  0.0675 -0.7330  1.4341
  136SAPE   HN314697   0.403   3.511  11.049  0.5822 -1.8330  1.0019
  136SAPE   C1214698   0.318   3.469  10.846  0.2341 -0.0072  0.3742
  136SAPE  H12A14699   0.421   3.444  10.814  0.7217  3.5961 -1.4270
  136SAPE  H12B14700   0.304   3.575  10.816  1.1401  0.0045 -0.0326
  136SAPE   C1114701   0.213   3.373  10.793 -0.5157 -0.3699  0.2554
  136SAPE  H11A14702   0.251   3.269  10.797  0.1332 -0.1720 -0.4835
  136SAPE  H11B14703   0.214   3.403  10.686 -0.7052  1.0108  0.6203
  136SAPE     P14704  -0.044   3.420  10.778  0.1880 -0.0640  0.3070
  136SAPE   O1314705  -0.165   3.383  10.854 -0.3247 -0.5926 -0.0236
  136SAPE   O1414706  -0.030   3.561  10.734 -0.3377  0.0178 -0.2005
  136SAPE   O1214707   0.089   3.386  10.855 -0.7664  0.0299 -0.1493
  136SAPE   O1114708  -0.031   3.316  10.652  0.4917  0.3505 -0.1983
  136SAPE    C114709  -0.052   3.171  10.668  0.8323  0.5086  0.2609
  136SAPE    HA14710   0.013   3.117  10.740 -0.3952 -2.2773 -0.5738
  136SAPE    HB14711  -0.152   3.162  10.716  0.0166  0.4498 -1.3994
  136SAPE    C214712  -0.058   3.111  10.532  0.2005  0.1304  0.7060
  136SAPE    HS14713  -0.095   3.006  10.534 -0.5903  0.4215  1.8327
  136SAPE   O2114714   0.071   3.104  10.482 -0.2597  0.1756 -0.3798
  136SAPE   C2114715   0.154   3.016  10.534 -0.3642  0.3986 -0.3522
  136SAPE   O2214716   0.118   2.935  10.618  0.7705 -0.2163 -0.3252
  136SAPE   C2214717   0.291   3.028  10.472 -0.5199  0.2549 -0.1431
  136SAPE   H2R14718   0.353   3.100  10.530 -2.5313  0.2358  2.1671
  136SAPE   H2S14719   0.337   2.928  10.491 -0.8129  0.0777 -0.3726
  136SAPE    C314720  -0.166   3.179  10.436 -0.0402  0.3147  0.3191
  136SAPE    HX14721  -0.131   3.285  10.430  0.2262  0.2094 -0.0458
  136SAPE    HY14722  -0.261   3.179  10.493  0.9784 -1.2386  2.1405
  136SAPE   O3114723  -0.175   3.113  10.307 -0.4459 -0.4291 -0.4798
  136SAPE   C3114724  -0.115   3.179  10.214 -0.2301 -0.1270 -0.0829
  136SAPE   O3214725  -0.046   3.280  10.226  0.0466  0.1617 -0.0797
  136SAPE   C3214726  -0.117   3.088  10.088 -0.3677 -0.0088  0.2174
  136SAPE   H2X14727  -0.219   3.081  10.046 -1.4308  1.6101  2.3255
  136SAPE   H2Y14728  -0.083   2.986  10.117  3.4081  1.0566  0.1107
  136SAPE   C2314729   0.283   3.036  10.317  0.0205 -0.6920  0.2198
  136SAPE   H3R14730   0.384   3.054  10.275 -0.5948  0.6584 -0.7946
  136SAPE   H3S14731   0.230   3.131  10.294  1.3486  0.1512  0.5164
  136SAPE   C2414732   0.208   2.930  10.236 -0.0719  0.0753 -0.0495
  136SAPE   H4R14733   0.209   2.959  10.129 -1.0204 -1.1565 -0.4054
  136SAPE   H4S14734   0.104   2.907  10.267  0.6059 -2.6453  0.4106
  136SAPE   C2514735   0.276   2.793  10.247  0.0152 -0.0969  0.0851
  136SAPE   H5R14736   0.257   2.730  10.335 -0.5935 -0.2097 -0.1176
  136SAPE   C2614737   0.359   2.740  10.150  0.5600  0.0348  0.3535
  136SAPE   H6R14738   0.399   2.640  10.171  0.6128  0.0854  0.4930
  136SAPE   C2714739   0.399   2.811  10.020  0.3123 -0.2897 -0.0236
  136SAPE   H7R14740   0.492   2.759   9.989  0.4129 -1.3586  1.9122
  136SAPE   H7S14741   0.417   2.917  10.046  1.9077 -0.2720 -1.0598
  136SAPE   C2814742   0.283   2.810   9.919  0.6696 -0.1080  0.0090
  136SAPE   H8R14743   0.184   2.829   9.963  0.0742 -1.5957 -0.6424
  136SAPE   C2914744   0.302   2.802   9.785  0.4738  0.0575  0.2900
  136SAPE   H9R14745   0.214   2.791   9.721 -0.1764 -1.4009  1.3730
  136SAPE  C21014746   0.437   2.788   9.715  0.4202  0.1690 -0.9722
  136SAPE  H10R14747   0.428   2.690   9.665 -1.0266 -1.1597  1.6605
  136SAPE  H10S14748   0.521   2.790   9.788 -0.2454  1.7979 -0.1986
  136SAPE  C21114749   0.478   2.889   9.617 -0.1734 -0.5267 -0.5912
  136SAPE  H11R14750   0.521   2.979   9.664  0.1228 -1.1641  0.4163
  136SAPE  C21214751   0.448   2.883   9.488 -0.1911  0.3750 -0.1129
  136SAPE  H12R14752   0.484   2.960   9.417 -2.3817  0.1660 -1.5465
  136SAPE  C21314753   0.366   2.768   9.422  0.3970 -0.8328 -0.1569
  136SAPE  H13R14754   0.258   2.771   9.448  0.1029 -1.2336 -1.2371
  136SAPE  H13S14755   0.407   2.667   9.446  1.8618 -0.5254 -1.2292
  136SAPE  C21414756   0.358   2.776   9.274  0.4130  0.2160  0.6794
  136SAPE  H14R14757   0.275   2.838   9.239  0.3407  0.0760  0.5999
  136SAPE  C21514758   0.437   2.710   9.178  0.5656 -0.6168  0.2760
  136SAPE  H15R14759   0.429   2.730   9.070  0.4706 -1.8157  0.0488
  136SAPE  C21614760   0.538   2.609   9.225 -0.1381  0.5698  0.1260
  136SAPE  H16R14761   0.495   2.531   9.292 -2.1383  2.1591  0.7931
  136SAPE  H16S14762   0.605   2.654   9.302  1.2532  0.4578 -0.9754
  136SAPE  C21714763   0.620   2.538   9.116  0.1399  0.2262  0.1478
  136SAPE  H17R14764   0.555   2.541   9.026  0.0394  0.9834  0.2354
  136SAPE  H17S14765   0.633   2.433   9.149 -2.0944 -0.7303 -1.6499
  136SAPE  C21814766   0.760   2.603   9.089  1.2891 -0.2368 -0.4656
  136SAPE  H18R14767   0.822   2.602   9.181  0.3144 -0.5190  0.2053
  136SAPE  H18S14768   0.744   2.711   9.066 -1.2586 -0.7400 -1.4077
  136SAPE  C21914769   0.826   2.533   8.970  0.6942  0.1823 -0.2524
  136SAPE  H19R14770   0.919   2.587   8.940  0.0637  0.8005 -1.1256
  136SAPE  H19S14771   0.761   2.544   8.881  0.7595 -0.5519 -0.3981
  136SAPE  C22014772   0.849   2.378   8.981  0.1358 -0.7331  0.3356
  136SAPE  H20R14773   0.935   2.372   9.051  0.0966 -2.6862  0.2685
  136SAPE  H20S14774   0.885   2.347   8.881  1.4200  1.7051 -0.0421
  136SAPE  H20T14775   0.760   2.319   9.012  1.2312 -3.0415 -0.7033
  136SAPE   C3314776  -0.031   3.146   9.976 -0.0377 -0.0457  0.1427
  136SAPE   H3X14777   0.077   3.142  10.001 -0.2856 -2.6368  1.0433
  136SAPE   H3Y14778  -0.048   3.254   9.955  0.8602 -0.4206 -3.0016
  136SAPE   C3414779  -0.055   3.071   9.845 -0.2133  0.1881  0.0707
  136SAPE   H4X14780  -0.161   3.077   9.810  0.3819  0.6927 -1.7579
  136SAPE   H4Y14781  -0.009   2.970   9.847 -0.3521  0.1124 -0.3883
  136SAPE   C3514782   0.021   3.144   9.740  0.6557 -0.0687  0.0560
  136SAPE   H5X14783   0.126   3.171   9.767  1.7519 -1.4980 -2.4256
  136SAPE   H5Y14784  -0.047   3.230   9.721 -0.5992 -1.4592 -2.0917
  136SAPE   C3614785   0.038   3.070   9.605 -0.3431 -0.0684 -0.1581
  136SAPE   H6X14786  -0.067   3.040   9.581 -1.1643  1.3657  1.3613
  136SAPE   H6Y14787   0.105   2.982   9.612 -1.6645 -1.0926  0.2312
  136SAPE   C3714788   0.112   3.171   9.507 -0.1474  0.2829 -0.4006
  136SAPE   H7X14789   0.218   3.185   9.538  0.0898  1.1290 -1.5681
  136SAPE   H7Y14790   0.065   3.271   9.507 -3.1668 -0.9798 -3.0240
  136SAPE   C3814791   0.112   3.117   9.369 -0.0504 -1.0831 -0.3467
  136SAPE   H8X14792   0.012   3.141   9.325 -0.5113  2.5496  2.1986
  136SAPE   H8Y14793   0.136   3.009   9.377 -0.5164 -1.2103 -0.6365
  136SAPE   C3914794   0.213   3.191   9.282 -0.1701  0.9949  0.1846
  136SAPE   H9X14795   0.316   3.155   9.303 -0.0590  1.3450  0.2428
  136SAPE   H9Y14796   0.213   3.298   9.311  1.0213  1.1877 -0.4503
  136SAPE  C31014797   0.205   3.183   9.128 -0.0059  0.0213 -0.8915
  136SAPE  H10X14798   0.101   3.213   9.107 -0.0375  0.0245 -0.7307
  136SAPE  H10Y14799   0.214   3.077   9.097  1.0185  0.3132 -1.6426
  136SAPE  C31114800   0.303   3.278   9.052  0.5868  0.2118 -0.7612
  136SAPE  H11X14801   0.405   3.266   9.094 -0.5220 -0.9341  1.8069
  136SAPE  H11Y14802   0.269   3.380   9.079  0.6339  0.8019 -2.8132
  136SAPE  C31214803   0.295   3.271   8.900  0.0050 -1.1841  0.3913
  136SAPE  H12X14804   0.190   3.272   8.866  0.2427  1.7440 -0.5066
  136SAPE  H12Y14805   0.343   3.179   8.861  1.1587 -0.0240 -1.0320
  136SAPE  C31314806   0.378   3.382   8.840 -0.3265 -0.7282  0.3298
  136SAPE  H13X14807   0.480   3.340   8.849 -1.0227 -2.0681  3.5223
  136SAPE  H13Y14808   0.364   3.469   8.908 -1.1144  0.3873 -1.1875
  136SAPE  C31414809   0.345   3.399   8.693  0.0360  0.1526 -0.6309
  136SAPE  H14X14810   0.255   3.464   8.698 -0.5097 -0.5682 -0.9603
  136SAPE  H14Y14811   0.308   3.307   8.642  0.7996  0.0482 -1.0062
  136SAPE  C31514812   0.463   3.459   8.616 -0.6190 -0.0101  0.1907
  136SAPE  H15X14813   0.543   3.384   8.597 -1.3114 -0.3928 -1.3199
  136SAPE  H15Y14814   0.513   3.545   8.666  0.1352 -0.0753 -0.4369
  136SAPE  C31614815   0.415   3.515   8.486 -0.4503 -1.0641 -0.5133
  136SAPE  H16X14816   0.338   3.591   8.510  0.7494 -0.1412  0.5695
  136SAPE  H16Y14817   0.368   3.434   8.427  0.6454 -0.1176 -2.8518
  136SAPE  C31714818   0.526   3.575   8.399 -0.1387 -0.3502  0.5559
  136SAPE  H17X14819   0.601   3.494   8.390 -2.1538 -2.0732 -2.0703
  136SAPE  H17Y14820   0.558   3.671   8.444  0.4870 -0.4847  0.4042
  136SAPE  C31814821   0.480   3.623   8.259  0.0063  0.1752  0.1080
  136SAPE  H18X14822   0.566   3.650   8.194  0.9809 -0.3283  1.1518
  136SAPE  H18Y14823   0.410   3.709   8.266 -0.5481 -0.3895  2.4351
  136SAPE  H18Z14824   0.433   3.537   8.205 -1.6513  0.7638  0.5342
  137SAPE     N14825   5.256   4.823  10.525 -0.2155  0.2608  0.1608
  137SAPE   HN114826   5.347   4.861  10.492 -0.1962 -0.5310 -0.7391
  137SAPE   HN214827   5.243   4.733  10.474 -0.3912  1.1678 -1.4819
  137SAPE   HN314828   5.174   4.881  10.496 -2.5409 -2.4148  0.9427
  137SAPE   C1214829   5.267   4.792  10.673  0.0620 -0.6090  0.0792
  137SAPE  H12A14830   5.331   4.701  10.677  1.5260  0.3849  0.3143
  137SAPE  H12B14831   5.162   4.772  10.703  0.2518 -0.1949  1.0724
  137SAPE   C1114832   5.343   4.906  10.748 -0.4014 -0.8687  0.3905
  137SAPE  H11A14833   5.374   4.858  10.843  1.8061  1.9072  1.2338
  137SAPE  H11B14834   5.273   4.989  10.770  0.1794 -0.4473  0.6826
  137SAPE     P14835   5.592   5.005  10.753 -0.2179 -0.1858 -0.3160
  137SAPE   O1314836   5.570   5.134  10.821 -0.0243  0.0827 -0.0212
  137SAPE   O1414837   5.648   4.890  10.824 -0.1066 -0.3551 -0.2826
  137SAPE   O1214838   5.463   4.945  10.682  0.4473  0.4077 -0.0644
  137SAPE   O1114839   5.682   5.029  10.625 -0.0590 -0.2708 -0.3193
  137SAPE    C114840   5.651   5.140  10.540 -0.5820  0.2357 -0.3605
  137SAPE    HA14841   5.609   5.226  10.597 -1.2643  0.6049 -1.3907
  137SAPE    HB14842   5.750   5.168  10.498 -1.3174  0.8496 -1.7588
  137SAPE    C214843   5.564   5.095  10.422 -1.3973  0.0608  0.3870
  137SAPE    HS14844   5.461   5.074  10.457 -1.8342 -1.5764 -1.6912
  137SAPE   O2114845   5.626   4.995  10.349  0.0438  0.6199 -0.2801
  137SAPE   C2114846   5.544   4.901  10.298  0.4113 -0.6434 -0.0547
  137SAPE   O2214847   5.421   4.900  10.311 -0.2814  0.5690 -0.2198
  137SAPE   C2214848   5.629   4.787  10.254 -0.2700  0.2320 -0.7175
  137SAPE   H2R14849   5.731   4.824  10.231  0.2232  0.5098  1.6232
  137SAPE   H2S14850   5.640   4.714  10.338  0.2673  0.5891 -0.4758
  137SAPE    C314851   5.543   5.217  10.330  0.0495 -0.3098  0.1886
  137SAPE    HX14852   5.644   5.232  10.286  0.7421 -2.7250  0.7634
  137SAPE    HY14853   5.523   5.307  10.392  1.9794  0.2454  0.0786
  137SAPE   O3114854   5.451   5.194  10.216 -0.1170 -0.1545 -0.4415
  137SAPE   C3114855   5.330   5.222  10.248 -1.1132  0.0399  1.5346
  137SAPE   O3214856   5.290   5.246  10.360  0.1758 -0.3222  0.1743
  137SAPE   C3214857   5.244   5.172  10.126  0.0406  0.7560 -0.3807
  137SAPE   H2X14858   5.183   5.263  10.104 -1.9792 -0.7075 -1.0937
  137SAPE   H2Y14859   5.178   5.093  10.166  1.5218  0.7934  2.4061
  137SAPE   C2314860   5.563   4.705  10.139 -0.8798  0.3151  0.5803
  137SAPE   H3R14861   5.552   4.777  10.055  0.1336  0.4217  0.5344
  137SAPE   H3S14862   5.466   4.663  10.173 -0.6515 -0.0440  0.7927
  137SAPE   C2414863   5.661   4.591  10.084  0.1316 -0.4556  0.6125
  137SAPE   H4R14864   5.689   4.522  10.167 -0.5264 -1.5508 -0.0505
  137SAPE   H4S14865   5.746   4.648  10.043 -0.8882 -0.2595 -1.3977
  137SAPE   C2514866   5.591   4.509   9.976  0.0648 -0.4955  0.7812
  137SAPE   H5R14867   5.482   4.516   9.983 -0.1556  0.2131 -2.0471
  137SAPE   C2614868   5.647   4.448   9.869  0.3856  0.9178 -0.3322
  137SAPE   H6R14869   5.576   4.393   9.804 -2.1954  1.5544  1.7774
  137SAPE   C2714870   5.793   4.436   9.845  0.1763  0.1757  0.4585
  137SAPE   H7R14871   5.828   4.337   9.808 -2.4495 -0.5639 -0.2507
  137SAPE   H7S14872   5.853   4.454   9.937 -0.2468  1.2478  0.5392
  137SAPE   C2814873   5.818   4.544   9.741  0.0037 -0.4790 -0.7296
  137SAPE   H8R14874   5.863   4.636   9.783 -0.4205 -0.4752 -0.2806
  137SAPE   C2914875   5.802   4.535   9.608 -0.3645  0.1291  0.7626
  137SAPE   H9R14876   5.816   4.623   9.543 -2.3282  1.0637  1.5455
  137SAPE  C21014877   5.753   4.409   9.526  0.5011  0.1313  0.6706
  137SAPE  H10R14878   5.643   4.401   9.538  0.2556  2.0829  0.1359
  137SAPE  H10S14879   5.801   4.323   9.576  0.1340 -1.3872 -1.4750
  137SAPE  C21114880   5.782   4.421   9.378 -0.4341  0.0638  0.2971
  137SAPE  H11R14881   5.761   4.520   9.334  1.7949  0.7364  0.6119
  137SAPE  C21214882   5.844   4.330   9.307  0.2976  0.3921  0.6318
  137SAPE  H12R14883   5.842   4.353   9.199 -1.8348 -1.5952  0.1602
  137SAPE  C21314884   5.882   4.198   9.351  0.1228 -0.3576  0.1903
  137SAPE  H13R14885   5.873   4.121   9.271  2.5107  0.5466 -1.0469
  137SAPE  H13S14886   5.803   4.163   9.421 -0.2590  0.4915  0.1915
  137SAPE  C21414887   6.014   4.196   9.432 -0.0746 -0.1079  0.4946
  137SAPE  H14R14888   6.061   4.296   9.433 -1.4585  0.5929  2.3339
  137SAPE  C21514889   6.051   4.100   9.512 -0.1576 -0.0805  0.9916
  137SAPE  H15R14890   6.152   4.107   9.555  0.0042  0.0964  0.5897
  137SAPE  C21614891   5.972   3.975   9.532 -0.8000  0.4908 -0.8605
  137SAPE  H16R14892   5.962   3.924   9.434  1.9063  0.6777 -1.3090
  137SAPE  H16S14893   5.872   3.997   9.575  0.3176 -0.7491  2.7256
  137SAPE  C21714894   6.044   3.878   9.633  0.4482  0.1274  0.3563
  137SAPE  H17R14895   6.044   3.925   9.733  0.3434  1.3804 -0.2101
  137SAPE  H17S14896   6.147   3.853   9.598  0.3194  1.8211 -1.4485
  137SAPE  C21814897   5.962   3.753   9.645 -0.3057 -0.0426  0.0245
  137SAPE  H18R14898   5.963   3.699   9.548  0.7559  1.4585 -0.8406
  137SAPE  H18S14899   5.858   3.791   9.657  0.3123  2.0279 -0.8344
  137SAPE  C21914900   6.000   3.658   9.760  1.0199 -0.3747 -0.6244
  137SAPE  H19R14901   5.903   3.605   9.774  0.8808 -0.8460 -3.0179
  137SAPE  H19S14902   6.013   3.717   9.854 -2.4907  1.2393 -1.0076
  137SAPE  C22014903   6.115   3.560   9.737 -0.1348  0.2665 -0.4333
  137SAPE  H20R14904   6.093   3.478   9.664  1.2513 -0.3449 -0.2041
  137SAPE  H20S14905   6.140   3.510   9.833 -0.5948  0.2242 -0.3335
  137SAPE  H20T14906   6.210   3.612   9.712 -0.0588 -0.0680 -0.8672
  137SAPE   C3314907   5.317   5.124   9.991 -0.2942 -0.0148 -0.1244
  137SAPE   H3X14908   5.385   5.042  10.021 -0.8819 -0.5787 -0.3272
  137SAPE   H3Y14909   5.369   5.213   9.947 -0.7305  0.5415  0.4640
  137SAPE   C3414910   5.221   5.082   9.882 -0.7502  0.1992  0.3225
  137SAPE   H4X14911   5.156   5.170   9.864  1.5738  2.0565  0.4554
  137SAPE   H4Y14912   5.163   4.995   9.918 -1.3929 -0.2419 -1.7129
  137SAPE   C3514913   5.289   5.036   9.753 -0.0879 -0.1713  0.1524
  137SAPE   H5X14914   5.351   4.948   9.778 -0.1637  0.4130  2.7614
  137SAPE   H5Y14915   5.363   5.113   9.724 -0.0632 -0.0733  0.4634
  137SAPE   C3614916   5.207   5.011   9.627 -0.2061  0.4138 -0.0938
  137SAPE   H6X14917   5.163   5.109   9.600 -0.4614  0.4916  0.6017
  137SAPE   H6Y14918   5.119   4.946   9.648 -0.4550  0.6695 -0.3249
  137SAPE   C3714919   5.273   4.954   9.504  0.3603  0.5443  0.2657
  137SAPE   H7X14920   5.321   4.859   9.534  0.1526  0.3139 -0.1282
  137SAPE   H7Y14921   5.353   5.026   9.476 -0.0387  1.4273  1.3041
  137SAPE   C3814922   5.180   4.932   9.385 -0.0322  0.3798 -0.3053
  137SAPE   H8X14923   5.126   5.027   9.366 -0.4322  0.4015  0.8996
  137SAPE   H8Y14924   5.116   4.845   9.410  1.9005 -1.1987 -0.5355
  137SAPE   C3914925   5.259   4.898   9.262  0.1923  0.5711  0.3395
  137SAPE   H9X14926   5.335   4.818   9.273  0.9147  1.3943  1.5761
  137SAPE   H9Y14927   5.310   4.992   9.231 -0.1943  1.2170  1.6183
  137SAPE  C31014928   5.174   4.877   9.136 -0.6690  1.0351 -0.3351
  137SAPE  H10X14929   5.090   4.951   9.134 -0.0981  1.8549  2.0933
  137SAPE  H10Y14930   5.123   4.778   9.140  2.2190 -0.5752 -0.8745
  137SAPE  C31114931   5.250   4.894   9.004 -0.0455  0.3758  0.1576
  137SAPE  H11X14932   5.237   5.001   8.980  3.7129  1.0826  0.5855
  137SAPE  H11Y14933   5.200   4.842   8.920  0.2383  0.0041  0.2125
  137SAPE  C31214934   5.399   4.853   8.991 -0.5222 -0.1332 -0.3179
  137SAPE  H12X14935   5.442   4.895   9.084 -1.9350  3.9667 -1.2917
  137SAPE  H12Y14936   5.432   4.910   8.902 -0.9428  0.4485 -0.1062
  137SAPE  C31314937   5.406   4.703   8.967 -0.4060 -0.2506  0.4652
  137SAPE  H13X14938   5.330   4.664   8.896  2.0429 -1.4282 -1.7243
  137SAPE  H13Y14939   5.388   4.653   9.064 -2.1231  0.6303  0.6282
  137SAPE  C31414940   5.543   4.649   8.922 -0.2064 -0.2795 -0.2449
  137SAPE  H14X14941   5.558   4.679   8.816 -0.3304 -1.1290 -0.5175
  137SAPE  H14Y14942   5.528   4.539   8.922  0.3043 -0.3570 -0.8412
  137SAPE  C31514943   5.661   4.684   9.007 -0.0330  0.0438  0.3497
  137SAPE  H15X14944   5.639   4.664   9.114 -0.3939  1.8544  0.6454
  137SAPE  H15Y14945   5.685   4.792   8.998  2.5183 -0.4390  0.4923
  137SAPE  C31614946   5.790   4.612   8.963 -0.1044 -0.4161  0.5857
  137SAPE  H16X14947   5.794   4.627   8.853 -0.4270  0.9118  0.7402
  137SAPE  H16Y14948   5.780   4.506   8.998 -2.8260  0.0323  1.4311
  137SAPE  C31714949   5.914   4.660   9.034 -0.6874  0.5135 -0.6653
  137SAPE  H17X14950   5.975   4.567   9.030 -1.8158 -0.4025  1.4014
  137SAPE  H17Y14951   5.910   4.676   9.144  2.4487 -2.5224  0.0579
  137SAPE  C31814952   5.989   4.776   8.966 -0.1637  0.4277 -0.6050
  137SAPE  H18X14953   5.931   4.870   8.977 -0.0175  0.3526  1.0116
  137SAPE  H18Y14954   5.999   4.749   8.858 -2.9182 -0.4908 -0.7078
  137SAPE  H18Z14955   6.082   4.794   9.022 -0.7503  0.6569  0.3124
  138SAPE     N14956   1.414   6.654  10.954 -0.1166  0.0536  0.9802
  138SAPE   HN114957   1.329   6.617  11.001 -1.6044  0.3946 -1.2926
  138SAPE   HN214958   1.494   6.675  11.017  1.0203 -2.9763  0.7156
  138SAPE   HN314959   1.385   6.742  10.907  0.2685 -0.3285  0.0113
  138SAPE   C1214960   1.457   6.543  10.871 -0.2129  0.0367  0.1131
  138SAPE  H12A14961   1.385   6.530  10.788 -0.7186  0.9325  0.3979
  138SAPE  H12B14962   1.449   6.449  10.929 -2.2060  0.2541  0.2698
  138SAPE   C1114963   1.595   6.569  10.805  0.0450  0.2202 -0.2225
  138SAPE  H11A14964   1.662   6.584  10.892 -0.5064  0.9160  0.0928
  138SAPE  H11B14965   1.593   6.657  10.738 -0.4924 -0.1358 -0.6846
  138SAPE     P14966   1.796   6.426  10.706  0.3557  0.0772 -0.5316
  138SAPE   O1314967   1.880   6.547  10.728 -0.1100  0.2920 -0.2015
  138SAPE   O1414968   1.838   6.308  10.783  0.5129 -1.0518 -0.8377
  138SAPE   O1214969   1.640   6.456  10.732 -0.7358 -0.3810 -0.5228
  138SAPE   O1114970   1.808   6.378  10.561 -0.4108 -0.1056 -0.4832
  138SAPE    C114971   1.728   6.281  10.501  0.0979 -0.4634 -0.3066
  138SAPE    HA14972   1.715   6.198  10.575 -2.2572 -2.0105 -2.2789
  138SAPE    HB14973   1.627   6.319  10.474  0.2084  0.1758  0.1560
  138SAPE    C214974   1.796   6.237  10.374 -0.2572 -0.0372 -0.3268
  138SAPE    HS14975   1.904   6.225  10.398 -0.0458  1.9674 -0.1522
  138SAPE   O2114976   1.784   6.340  10.283  0.3809 -0.2328 -0.4599
  138SAPE   C2114977   1.887   6.369  10.204 -0.1101  0.2226  0.1982
  138SAPE   O2214978   1.995   6.310  10.198  0.4784 -0.3308  0.2730
  138SAPE   C2214979   1.838   6.480  10.108 -0.3015  0.2865  0.2805
  138SAPE   H2R14980   1.920   6.489  10.033 -0.4341  2.8755  0.3422
  138SAPE   H2S14981   1.744   6.447  10.060 -1.7263  0.0503  3.0844
  138SAPE    C314982   1.727   6.116  10.311  0.1354  0.3643 -0.8747
  138SAPE    HX14983   1.625   6.142  10.275 -0.5532 -0.3774  0.4804
  138SAPE    HY14984   1.708   6.037  10.386  1.8232 -0.5237 -1.3254
  138SAPE   O3114985   1.819   6.077  10.201  0.4442 -0.2769  0.0788
  138SAPE   C3114986   1.934   6.007  10.232 -0.1722  0.6786  0.4779
  138SAPE   O3214987   1.974   5.986  10.346  0.6582 -0.1833 -0.2780
  138SAPE   C3214988   1.988   5.947  10.109  0.8065  0.3155 -0.2469
  138SAPE   H2X14989   1.910   5.887  10.056 -0.5406  2.4338 -0.7589
  138SAPE   H2Y14990   2.075   5.880  10.129  0.3301 -0.4713 -0.7157
  138SAPE   C2314991   1.814   6.607  10.182  0.5262 -0.0992 -0.0519
  138SAPE   H3R14992   1.910   6.657  10.204  2.8296 -0.5523 -6.7469
  138SAPE   H3S14993   1.758   6.586  10.276  1.4709  2.6700  1.2541
  138SAPE   C2414994   1.728   6.711  10.108 -0.3424 -0.1883 -0.2857
  138SAPE   H4R14995   1.723   6.801  10.173 -1.2441 -1.2311  1.1439
  138SAPE   H4S14996   1.627   6.671  10.086 -1.4117  1.8860  0.6110
  138SAPE   C2514997   1.786   6.744   9.973 -0.0061 -0.3659  0.9746
  138SAPE   H5R14998   1.881   6.702   9.939 -0.9864 -0.5565 -1.7307
  138SAPE   C2614999   1.719   6.822   9.887 -0.0073 -0.0552  0.0630
  138SAPE   H6R15000   1.774   6.850   9.795  0.1780  1.5538  0.6376
  138SAPE   C2715001   1.582   6.881   9.893 -0.3983  0.0180  0.4886
  138SAPE   H7R15002   1.523   6.821   9.967 -0.9961  2.9931  2.6372
  138SAPE   H7S15003   1.537   6.874   9.792  1.5893  2.1867 -0.6210
  138SAPE   C2815004   1.575   7.021   9.942  0.2962  0.1401  0.3079
  138SAPE   H8R15005   1.597   7.032  10.049 -2.3288 -0.0531  0.9284
  138SAPE   C2915006   1.537   7.125   9.866 -0.0462 -0.3981 -0.2289
  138SAPE   H9R15007   1.515   7.220   9.916  1.8018 -1.2320  2.3850
  138SAPE  C21015008   1.492   7.120   9.721 -1.0137  0.1977 -0.9176
  138SAPE  H10R15009   1.385   7.088   9.714 -0.2657 -2.7675 -0.1801
  138SAPE  H10S15010   1.544   7.032   9.677 -1.5745 -1.0032  0.7079
  138SAPE  C21115011   1.519   7.249   9.648 -0.6300  0.4857  0.0464
  138SAPE  H11R15012   1.561   7.326   9.714  1.0387 -1.3273  1.1924
  138SAPE  C21215013   1.519   7.268   9.516  0.4675 -0.0350  0.2851
  138SAPE  H12R15014   1.547   7.365   9.473 -0.6009 -0.3760 -1.2493
  138SAPE  C21315015   1.494   7.159   9.419  0.1765 -0.5508  0.2084
  138SAPE  H13R15016   1.403   7.188   9.362  0.4995  2.8492  1.1918
  138SAPE  H13S15017   1.461   7.069   9.475 -0.5438  0.1628  0.9625
  138SAPE  C21415018   1.605   7.135   9.331 -0.0995  0.7433  0.9022
  138SAPE  H14R15019   1.701   7.113   9.378  0.3530 -0.0750 -0.3501
  138SAPE  C21515020   1.606   7.147   9.199  0.3485 -0.6977  0.4209
  138SAPE  H15R15021   1.688   7.103   9.140  0.3212  0.4892 -0.5582
  138SAPE  C21615022   1.505   7.203   9.110  0.3545  0.6661 -0.0417
  138SAPE  H16R15023   1.427   7.261   9.163  2.6955  1.6188  2.5544
  138SAPE  H16S15024   1.452   7.126   9.049 -0.3955  1.3773 -0.2970
  138SAPE  C21715025   1.569   7.291   8.999  0.1202 -0.6184  0.1675
  138SAPE  H17R15026   1.633   7.218   8.946  0.4282 -0.9627  0.9972
  138SAPE  H17S15027   1.623   7.361   9.066  0.0729 -1.2771  0.9053
  138SAPE  C21815028   1.483   7.355   8.893  0.8305 -0.3384  0.0225
  138SAPE  H18R15029   1.395   7.379   8.956  1.4007  1.0381  0.3313
  138SAPE  H18S15030   1.444   7.285   8.817  0.7361 -0.1246 -0.1278
  138SAPE  C21915031   1.526   7.497   8.835 -0.9286  0.3725  0.4405
  138SAPE  H19R15032   1.525   7.548   8.933 -2.8041  0.7673  0.2562
  138SAPE  H19S15033   1.443   7.551   8.783 -2.4499 -0.7449  1.5980
  138SAPE  C22015034   1.656   7.521   8.755 -0.0764 -0.1150 -0.1829
  138SAPE  H20R15035   1.633   7.511   8.646 -1.7738  1.3612 -0.0138
  138SAPE  H20S15036   1.736   7.456   8.794 -0.3612  0.3271  1.2109
  138SAPE  H20T15037   1.692   7.626   8.763 -2.1824  0.6461  0.1460
  138SAPE   C3315038   2.026   6.059  10.013  0.6741 -0.5367  0.7472
  138SAPE   H3X15039   2.104   6.005   9.956 -0.7204 -0.4433 -1.3504
  138SAPE   H3Y15040   2.059   6.161  10.041 -0.7328  0.9795 -2.6390
  138SAPE   C3415041   1.918   6.078   9.906  0.6816 -0.1848  0.0530
  138SAPE   H4X15042   1.830   6.132   9.948 -1.8930 -3.5081 -0.5999
  138SAPE   H4Y15043   1.887   5.981   9.862 -1.7310  0.3638  0.3953
  138SAPE   C3515044   1.968   6.172   9.796 -0.4092  0.4200  0.3931
  138SAPE   H5X15045   2.010   6.113   9.711 -1.1628 -0.8325  0.8621
  138SAPE   H5Y15046   2.043   6.231   9.852 -0.8770 -0.1470  1.6496
  138SAPE   C3615047   1.862   6.282   9.758 -0.6235 -0.3053  0.3172
  138SAPE   H6X15048   1.801   6.326   9.840  0.1341  0.2298  0.6001
  138SAPE   H6Y15049   1.794   6.234   9.685 -0.6959  2.2158 -1.4043
  138SAPE   C3715050   1.914   6.407   9.673 -0.2638 -0.0633 -0.6439
  138SAPE   H7X15051   1.954   6.359   9.581 -0.9947 -0.6708 -0.6535
  138SAPE   H7Y15052   1.994   6.468   9.720  0.1451  0.4433 -1.9638
  138SAPE   C3815053   1.797   6.503   9.648  0.7453 -0.1134 -0.0459
  138SAPE   H8X15054   1.789   6.578   9.729  0.8569 -2.6213  2.4524
  138SAPE   H8Y15055   1.695   6.459   9.650  0.9731 -0.6362  0.6484
  138SAPE   C3915056   1.803   6.570   9.506 -0.5275  0.0564  0.6643
  138SAPE   H9X15057   1.817   6.491   9.431  1.4732 -0.8911  1.9434
  138SAPE   H9Y15058   1.888   6.642   9.509 -1.1150  1.0734 -2.8296
  138SAPE  C31015059   1.666   6.645   9.485 -0.1676  0.3131 -0.3617
  138SAPE  H10X15060   1.647   6.704   9.577 -0.0276 -1.7659  1.0780
  138SAPE  H10Y15061   1.584   6.570   9.479 -1.9975  2.2675 -0.9145
  138SAPE  C31115062   1.644   6.727   9.365 -0.4247 -0.2253 -1.1643
  138SAPE  H11X15063   1.727   6.801   9.361 -1.4306  1.3101  2.3516
  138SAPE  H11Y15064   1.557   6.795   9.381 -1.2001 -1.4794  0.1382
  138SAPE  C31215065   1.623   6.648   9.236 -0.0851 -0.9043  0.1735
  138SAPE  H12X15066   1.550   6.568   9.259 -1.1295  0.0661  0.3296
  138SAPE  H12Y15067   1.720   6.597   9.215  0.4099  0.3833 -0.8554
  138SAPE  C31315068   1.595   6.733   9.110 -0.5817  0.6850 -0.0058
  138SAPE  H13X15069   1.517   6.810   9.125 -0.6450  0.7582 -0.7073
  138SAPE  H13Y15070   1.563   6.667   9.027 -0.4740  2.3090 -1.3860
  138SAPE  C31415071   1.715   6.814   9.054  0.5651 -0.6532 -0.1616
  138SAPE  H14X15072   1.806   6.751   9.042 -0.9465 -3.4360  1.6971
  138SAPE  H14Y15073   1.727   6.893   9.132 -2.1932  0.6360 -0.9043
  138SAPE  C31515074   1.678   6.892   8.926 -1.0563 -0.0548  0.7159
  138SAPE  H15X15075   1.588   6.954   8.945 -0.1171  1.0207  1.7850
  138SAPE  H15Y15076   1.637   6.814   8.857  0.5086 -0.9246  0.7278
  138SAPE  C31615077   1.790   6.967   8.853 -0.3659 -0.6136  0.1508
  138SAPE  H16X15078   1.888   6.922   8.878  1.8537  4.1797  1.2150
  138SAPE  H16Y15079   1.794   7.064   8.907 -0.7900 -1.1245  1.1154
  138SAPE  C31715080   1.782   6.992   8.701 -0.7630 -0.4306 -0.8893
  138SAPE  H17X15081   1.800   6.892   8.658 -0.6317 -0.2096 -1.3581
  138SAPE  H17Y15082   1.858   7.071   8.677 -0.8503  0.2270  0.8404
  138SAPE  C31815083   1.658   7.056   8.661 -0.8256  0.0199  0.9125
  138SAPE  H18X15084   1.650   7.158   8.706  0.1611  0.3858  0.2952
  138SAPE  H18Y15085   1.573   6.992   8.691 -2.1033  0.9547 -0.6038
  138SAPE  H18Z15086   1.651   7.064   8.551  0.3326 -2.1873  0.6176
  139SAPE     N15087   1.663   4.571  10.484 -0.7961 -0.2096 -0.1119
  139SAPE   HN115088   1.648   4.661  10.436 -0.2287  0.5042  1.0067
  139SAPE   HN215089   1.757   4.565  10.529 -0.5360 -2.5910 -0.8348
  139SAPE   HN315090   1.650   4.496  10.413  0.7882  0.4332 -1.1252
  139SAPE   C1215091   1.563   4.567  10.593 -0.7497 -0.0465  0.6772
  139SAPE  H12A15092   1.472   4.606  10.542 -0.3801 -1.2444 -0.9657
  139SAPE  H12B15093   1.588   4.616  10.690  0.5465  0.7246 -0.0208
  139SAPE   C1115094   1.545   4.417  10.636 -0.0015  0.2228  0.2570
  139SAPE  H11A15095   1.510   4.339  10.564 -2.5013  0.8528  0.6982
  139SAPE  H11B15096   1.465   4.410  10.712  0.0002 -1.2100  0.1444
  139SAPE     P15097   1.674   4.232  10.759  0.0279 -0.0905 -0.0598
  139SAPE   O1315098   1.811   4.216  10.808  0.4153  0.0186 -0.1633
  139SAPE   O1415099   1.568   4.221  10.857  0.3899 -0.1155 -0.0580
  139SAPE   O1215100   1.669   4.371  10.692 -0.2644 -0.0983 -0.0435
  139SAPE   O1115101   1.637   4.128  10.640  0.2232 -0.6431 -0.6252
  139SAPE    C115102   1.735   4.056  10.569 -0.4692  0.3044 -0.0333
  139SAPE    HA15103   1.820   4.025  10.634  1.2400 -0.4818 -2.4816
  139SAPE    HB15104   1.690   3.966  10.523 -1.7630 -0.2075  2.1255
  139SAPE    C215105   1.792   4.140  10.445 -0.3089  0.5996  0.2040
  139SAPE    HS15106   1.803   4.246  10.479 -1.3810  0.3172  1.5303
  139SAPE   O2115107   1.709   4.119  10.328  0.4565 -0.2824 -0.2257
  139SAPE   C2115108   1.643   4.230  10.289 -0.7466  0.2222 -0.5739
  139SAPE   O2215109   1.651   4.348  10.333 -0.2212 -0.2786  0.1322
  139SAPE   C2215110   1.556   4.183  10.175  0.7576 -0.3406 -0.2414
  139SAPE   H2R15111   1.478   4.118  10.221  0.4881  1.0326  1.3052
  139SAPE   H2S15112   1.502   4.271  10.135  2.5144 -0.1295 -2.3809
  139SAPE    C315113   1.932   4.080  10.406 -0.3828  0.3097  0.6031
  139SAPE    HX15114   1.898   3.979  10.377  0.0224  0.2968  0.1784
  139SAPE    HY15115   2.000   4.070  10.494  0.2495 -0.3386  0.0469
  139SAPE   O3115116   1.999   4.148  10.292  0.1466 -0.0970 -0.2715
  139SAPE   C3115117   2.110   4.083  10.254  0.1851 -0.4293 -0.3067
  139SAPE   O3215118   2.149   3.979  10.299  0.1706 -0.2599 -0.1315
  139SAPE   C3215119   2.182   4.155  10.140  0.1495 -0.0677 -0.4418
  139SAPE   H2X15120   2.170   4.097  10.046 -4.3951  2.1512 -1.5231
  139SAPE   H2Y15121   2.291   4.158  10.160 -0.1024 -0.2970  1.0694
  139SAPE   C2315122   1.628   4.115  10.052  0.1374 -0.5346 -0.4629
  139SAPE   H3R15123   1.560   4.095   9.966  1.4570  2.4721 -2.3788
  139SAPE   H3S15124   1.667   4.021  10.098 -0.0903  0.0757  1.0063
  139SAPE   C2415125   1.738   4.208   9.993  0.5175  0.7297  0.0253
  139SAPE   H4R15126   1.773   4.146   9.908 -2.4263 -0.4823 -0.4054
  139SAPE   H4S15127   1.821   4.216  10.067  0.9214 -0.2051 -0.3166
  139SAPE   C2515128   1.689   4.351   9.954 -0.1206 -0.0235 -0.4545
  139SAPE   H5R15129   1.631   4.400  10.034 -0.4384  0.5860 -1.0413
  139SAPE   C2615130   1.701   4.410   9.840  0.0551  0.4451  0.3827
  139SAPE   H6R15131   1.659   4.512   9.834  1.6776  1.1405  0.1862
  139SAPE   C2715132   1.762   4.353   9.714 -0.0588  0.5063  0.6017
  139SAPE   H7R15133   1.792   4.247   9.731  1.9563  0.9709  0.2391
  139SAPE   H7S15134   1.854   4.406   9.679  0.4510 -1.1662 -0.7148
  139SAPE   C2815135   1.657   4.355   9.609  0.5177  0.5489 -0.5257
  139SAPE   H8R15136   1.557   4.335   9.650  1.4745  1.3277  2.3990
  139SAPE   C2915137   1.666   4.385   9.471  0.1493  0.1396 -0.5235
  139SAPE   H9R15138   1.571   4.372   9.418 -0.7240 -2.2690  1.4330
  139SAPE  C21015139   1.789   4.422   9.393 -0.0542 -0.7443 -0.3036
  139SAPE  H10R15140   1.871   4.457   9.460 -0.6394 -2.7448  1.5458
  139SAPE  H10S15141   1.760   4.508   9.329 -2.2068 -1.3405 -0.1926
  139SAPE  C21115142   1.836   4.317   9.300 -0.0049 -0.3937 -0.3813
  139SAPE  H11R15143   1.911   4.243   9.333 -0.5843  0.2967  2.6976
  139SAPE  C21215144   1.790   4.302   9.175  1.1277  0.1116  0.2989
  139SAPE  H12R15145   1.829   4.222   9.111  0.3258  0.0083 -0.0675
  139SAPE  C21315146   1.679   4.376   9.104  0.2354 -0.6509  0.2296
  139SAPE  H13R15147   1.601   4.412   9.174 -0.8970 -3.0943  0.3121
  139SAPE  H13S15148   1.630   4.317   9.025  0.4455  1.1144 -1.3081
  139SAPE  C21415149   1.736   4.493   9.030 -0.7043  0.7902  0.2216
  139SAPE  H14R15150   1.804   4.551   9.094 -1.1705  2.4617 -0.7359
  139SAPE  C21515151   1.714   4.540   8.903  1.0813  0.4603 -0.0017
  139SAPE  H15R15152   1.761   4.637   8.877  0.0784  0.3537 -2.3856
  139SAPE  C21615153   1.614   4.482   8.805  0.2603 -0.2533 -0.5940
  139SAPE  H16R15154   1.514   4.469   8.852  0.1725 -2.0032 -1.1767
  139SAPE  H16S15155   1.634   4.377   8.772 -2.8804 -0.3853 -2.4852
  139SAPE  C21715156   1.614   4.561   8.682  0.0624  0.3309  0.0955
  139SAPE  H17R15157   1.709   4.538   8.628  0.2625 -1.3903  1.1360
  139SAPE  H17S15158   1.609   4.668   8.711 -0.3975 -0.3850  2.9129
  139SAPE  C21815159   1.497   4.517   8.591 -0.5480  0.5561 -0.4592
  139SAPE  H18R15160   1.398   4.515   8.641 -0.4160 -2.1655 -0.1142
  139SAPE  H18S15161   1.508   4.409   8.569  0.7423 -0.5342  4.2637
  139SAPE  C21915162   1.484   4.594   8.460  0.1225 -0.2528 -0.3236
  139SAPE  H19R15163   1.555   4.540   8.394 -1.0227 -1.4022 -0.6357
  139SAPE  H19S15164   1.517   4.700   8.467 -0.0919 -0.1670 -0.6152
  139SAPE  C22015165   1.343   4.588   8.398 -0.2930  0.3950 -0.2530
  139SAPE  H20R15166   1.302   4.486   8.381 -0.7918  0.5909 -0.2386
  139SAPE  H20S15167   1.340   4.651   8.306 -0.0248 -0.3413 -0.7734
  139SAPE  H20T15168   1.282   4.637   8.477 -0.7141 -1.4502  0.6116
  139SAPE   C3315169   2.141   4.302  10.113  0.2173 -0.7422 -0.3652
  139SAPE   H3X15170   2.167   4.374  10.194 -0.5294  1.4425 -1.9639
  139SAPE   H3Y15171   2.031   4.315  10.104  0.1725  0.3444  1.2202
  139SAPE   C3415172   2.200   4.356   9.983  0.3784 -0.0636  0.2444
  139SAPE   H4X15173   2.300   4.308   9.983  0.6497  0.4783 -0.4185
  139SAPE   H4Y15174   2.228   4.464   9.991  1.1145 -0.3270  1.5148
  139SAPE   C3515175   2.124   4.322   9.852  0.0421 -0.4485  0.0423
  139SAPE   H5X15176   2.022   4.362   9.832 -0.3641 -2.6814 -3.1994
  139SAPE   H5Y15177   2.121   4.211   9.843  0.0808 -0.4805  0.4120
  139SAPE   C3615178   2.204   4.389   9.732 -0.4246 -0.0725  0.7474
  139SAPE   H6X15179   2.311   4.359   9.731 -0.4180 -0.2738 -2.5953
  139SAPE   H6Y15180   2.194   4.499   9.739 -0.5561  0.0092 -0.4714
  139SAPE   C3715181   2.156   4.343   9.594  0.2166  0.0341 -0.2864
  139SAPE   H7X15182   2.050   4.373   9.584  0.2819  0.9983  1.5418
  139SAPE   H7Y15183   2.156   4.232   9.601  0.7474 -0.0634 -1.5220
  139SAPE   C3815184   2.255   4.388   9.479  0.6976  0.3481 -0.5285
  139SAPE   H8X15185   2.348   4.327   9.488  0.8507  0.2501 -2.3647
  139SAPE   H8Y15186   2.291   4.488   9.509  0.2272 -0.3025  2.6707
  139SAPE   C3915187   2.183   4.383   9.341  0.2634 -0.2298 -0.5985
  139SAPE   H9X15188   2.091   4.444   9.331  0.0128 -0.7681 -1.6762
  139SAPE   H9Y15189   2.165   4.274   9.326 -1.1309 -0.2958  1.1369
  139SAPE  C31015190   2.280   4.417   9.231  0.2226  0.6888  1.0021
  139SAPE  H10X15191   2.363   4.343   9.225 -1.7168 -1.5727  0.7026
  139SAPE  H10Y15192   2.332   4.512   9.254  0.9961  0.6782 -0.5655
  139SAPE  C31115193   2.207   4.416   9.094 -0.9862 -0.7218 -0.0333
  139SAPE  H11X15194   2.293   4.410   9.024 -1.7326 -2.8342 -0.8468
  139SAPE  H11Y15195   2.148   4.510   9.082 -1.0948 -0.6871  0.7231
  139SAPE  C31215196   2.122   4.291   9.056  0.2987  0.1080  0.2998
  139SAPE  H12X15197   2.072   4.310   8.959 -1.4480 -3.6205  0.2880
  139SAPE  H12Y15198   2.036   4.281   9.125  1.1110  1.7826  1.6167
  139SAPE  C31315199   2.190   4.152   9.041 -0.0552 -0.1538 -0.0390
  139SAPE  H13X15200   2.109   4.084   9.076 -1.4720  1.7430  0.5838
  139SAPE  H13Y15201   2.276   4.159   9.111  0.1496  3.1535 -0.4777
  139SAPE  C31415202   2.234   4.118   8.896 -0.2650 -0.5897  0.3228
  139SAPE  H14X15203   2.329   4.176   8.890 -1.2029  0.9628 -0.2588
  139SAPE  H14Y15204   2.164   4.165   8.823  1.4420  0.1481 -0.8971
  139SAPE  C31515205   2.271   3.975   8.878  0.1935 -0.2987  0.2147
  139SAPE  H15X15206   2.173   3.923   8.880 -0.3318  0.6856  0.7945
  139SAPE  H15Y15207   2.333   3.930   8.958  2.3471 -0.8421 -1.6244
  139SAPE  C31615208   2.325   3.939   8.739  0.0200 -0.3691  1.0593
  139SAPE  H16X15209   2.244   3.973   8.671  0.1791 -0.1537  0.9784
  139SAPE  H16Y15210   2.418   3.995   8.719  1.2716 -1.3753  3.5815
  139SAPE  C31715211   2.352   3.790   8.725  0.5836 -0.9133 -0.1893
  139SAPE  H17X15212   2.378   3.754   8.623  2.8183 -2.6652  0.9016
  139SAPE  H17Y15213   2.273   3.724   8.767  0.5933  0.2477  1.7547
  139SAPE  C31815214   2.482   3.755   8.800 -1.1133 -0.2455  0.4663
  139SAPE  H18X15215   2.566   3.827   8.786 -1.0475 -0.0340  1.8385
  139SAPE  H18Y15216   2.526   3.658   8.769  1.2855  0.2838  1.8694
  139SAPE  H18Z15217   2.467   3.750   8.910  0.5500  0.6984  0.7865
  140SAPE     N15218   1.995   3.517  10.909  0.7757  0.2170  0.0459
  140SAPE   HN115219   2.027   3.554  11.001  1.2245  0.9474 -0.3929
  140SAPE   HN215220   2.064   3.441  10.889  3.1924  2.2534  0.1896
  140SAPE   HN315221   2.009   3.586  10.833  1.0676  0.1691  0.0546
  140SAPE   C1215222   1.852   3.461  10.910  0.1463  0.3443  0.4300
  140SAPE  H12A15223   1.781   3.535  10.953 -0.3105 -0.7467  1.6143
  140SAPE  H12B15224   1.860   3.377  10.982 -0.2304 -0.1495 -0.1004
  140SAPE   C1115225   1.826   3.428  10.764  0.2197 -0.7181 -0.3959
  140SAPE  H11A15226   1.826   3.519  10.700 -2.2497 -0.6500 -0.4021
  140SAPE  H11B15227   1.721   3.392  10.757 -0.7254  1.6127  0.4921
  140SAPE     P15228   1.897   3.181  10.769 -0.1144 -0.4157 -0.0403
  140SAPE   O1315229   2.026   3.125  10.806 -0.8470  0.0550  0.2055
  140SAPE   O1415230   1.783   3.168  10.865 -0.3380 -0.2299  0.0874
  140SAPE   O1215231   1.918   3.327  10.721 -0.4132 -0.2562 -0.7092
  140SAPE   O1115232   1.857   3.108  10.636 -0.2824  1.1167 -0.3573
  140SAPE    C115233   1.763   3.161  10.542  0.8456 -0.6271  0.0771
  140SAPE    HA15234   1.738   3.267  10.564  0.6852 -0.9385  1.4913
  140SAPE    HB15235   1.795   3.145  10.437 -0.5140 -1.5548 -0.2143
  140SAPE    C215236   1.626   3.085  10.538 -0.2286  0.3223 -0.1760
  140SAPE    HS15237   1.578   3.071  10.637 -1.4905 -1.9023 -1.0517
  140SAPE   O2115238   1.642   2.965  10.478 -0.1706  0.2072  0.3539
  140SAPE   C2115239   1.546   2.873  10.497  0.5885  0.2331  1.0513
  140SAPE   O2215240   1.440   2.895  10.552 -0.2469  0.5285 -0.4052
  140SAPE   C2215241   1.578   2.742  10.427  0.0475  0.7069 -0.7039
  140SAPE   H2R15242   1.586   2.659  10.501 -2.5262  0.0745 -1.0578
  140SAPE   H2S15243   1.497   2.725  10.354 -1.2643  1.3769  0.5403
  140SAPE    C315244   1.523   3.177  10.460 -0.0654  0.4472  0.2646
  140SAPE    HX15245   1.511   3.268  10.522  0.5427 -0.0091  1.0697
  140SAPE    HY15246   1.419   3.138  10.469 -0.3962  1.1391 -0.4664
  140SAPE   O3115247   1.565   3.208  10.330  0.6824 -0.2955  0.7385
  140SAPE   C3115248   1.527   3.133  10.230  0.5924  1.3171  0.5930
  140SAPE   O3215249   1.449   3.040  10.234  0.2393 -0.0109 -0.0416
  140SAPE   C3215250   1.620   3.165  10.108  0.3568  0.5321 -0.5432
  140SAPE   H2X15251   1.587   3.089  10.033 -2.4073  0.9233  0.1697
  140SAPE   H2Y15252   1.727   3.150  10.134 -0.0277 -0.3884  0.6385
  140SAPE   C2315253   1.714   2.750  10.365 -0.6308  0.3927 -0.2840
  140SAPE   H3R15254   1.797   2.766  10.438  0.6828 -2.0607 -1.1278
  140SAPE   H3S15255   1.712   2.836  10.295 -0.7052 -0.8899 -1.9112
  140SAPE   C2415256   1.753   2.610  10.309  0.0725  0.4755  0.3711
  140SAPE   H4R15257   1.667   2.577  10.248 -0.5641 -0.7226  1.8745
  140SAPE   H4S15258   1.747   2.542  10.397 -0.0376  0.4684  0.3577
  140SAPE   C2515259   1.889   2.618  10.239  0.4348 -0.0839 -0.4044
  140SAPE   H5R15260   1.946   2.709  10.262  2.0872 -1.2015  0.1217
  140SAPE   C2615261   1.940   2.512  10.171 -0.1127 -0.3754  0.8374
  140SAPE   H6R15262   2.046   2.519  10.142 -0.0291 -0.9817  0.9885
  140SAPE   C2715263   1.871   2.388  10.135 -0.1498  0.3108 -0.1145
  140SAPE   H7R15264   1.764   2.406  10.155 -0.3443  0.3131 -1.1156
  140SAPE   H7S15265   1.901   2.300  10.197  4.7674  1.2696 -0.6753
  140SAPE   C2815266   1.872   2.334   9.989 -0.3481 -0.0489  0.1422
  140SAPE   H8R15267   1.929   2.239   9.989  0.2567  0.1921  3.4974
  140SAPE   C2915268   1.819   2.395   9.876  0.2712  1.1224  0.0095
  140SAPE   H9R15269   1.816   2.349   9.776 -0.7804  0.5852  0.2738
  140SAPE  C21015270   1.729   2.516   9.871 -0.1374 -0.2170  0.1416
  140SAPE  H10R15271   1.720   2.563   9.971 -1.2258  0.5247 -0.2764
  140SAPE  H10S15272   1.627   2.480   9.845  0.1789 -1.7191  0.8574
  140SAPE  C21115273   1.787   2.617   9.777  0.0673 -0.0417 -0.1292
  140SAPE  H11R15274   1.824   2.701   9.836 -1.1821 -0.5853  1.5313
  140SAPE  C21215275   1.807   2.606   9.647  0.3920 -0.2150 -0.0882
  140SAPE  H12R15276   1.858   2.688   9.593  4.0500 -2.1529  0.1099
  140SAPE  C21315277   1.754   2.492   9.560  0.6998  0.2041 -0.1921
  140SAPE  H13R15278   1.681   2.535   9.488  0.3699  0.1510  0.1114
  140SAPE  H13S15279   1.692   2.419   9.615 -1.2710  2.7651  1.2249
  140SAPE  C21415280   1.855   2.416   9.479 -0.1606  0.6274 -0.1252
  140SAPE  H14R15281   1.905   2.337   9.536  0.2841  1.1238  0.1787
  140SAPE  C21515282   1.908   2.436   9.358  0.2509 -0.3895 -0.1644
  140SAPE  H15R15283   1.982   2.362   9.324 -0.2657 -1.3520  0.7287
  140SAPE  C21615284   1.868   2.543   9.256  0.4832  0.1234 -0.6069
  140SAPE  H16R15285   1.955   2.611   9.243  1.5062 -1.2569 -1.1887
  140SAPE  H16S15286   1.791   2.607   9.306  0.8812 -1.7116  2.6707
  140SAPE  C21715287   1.813   2.483   9.123  0.2833 -0.0312  0.7825
  140SAPE  H17R15288   1.894   2.419   9.081 -2.1475 -0.4616 -3.9210
  140SAPE  H17S15289   1.796   2.564   9.050 -0.7887 -1.3316 -0.4860
  140SAPE  C21815290   1.694   2.392   9.123  0.4500  0.5190 -0.1337
  140SAPE  H18R15291   1.659   2.368   9.226  0.0826  1.4391 -0.0270
  140SAPE  H18S15292   1.727   2.300   9.071 -2.6762 -0.9080  0.1691
  140SAPE  C21915293   1.566   2.452   9.064  0.0361 -0.1015 -0.0865
  140SAPE  H19R15294   1.585   2.481   8.959  3.3486  2.6956  1.0752
  140SAPE  H19S15295   1.546   2.545   9.120  0.3273 -0.1352  0.0763
  140SAPE  C22015296   1.443   2.365   9.079 -0.5094  0.2361 -0.5943
  140SAPE  H20R15297   1.418   2.347   9.186  1.4830 -0.4907 -0.1984
  140SAPE  H20S15298   1.448   2.267   9.028 -0.2936 -0.5128  0.8262
  140SAPE  H20T15299   1.354   2.419   9.041 -2.1679 -1.7550  0.3029
  140SAPE   C3315300   1.596   3.311  10.062  0.2398 -0.3956 -0.1945
  140SAPE   H3X15301   1.596   3.381  10.148 -1.6606  2.2824 -2.2028
  140SAPE   H3Y15302   1.502   3.336  10.008  0.2175  3.9370  1.4667
  140SAPE   C3415303   1.713   3.372   9.992  0.2600  0.5257  0.4715
  140SAPE   H4X15304   1.806   3.334  10.040 -0.2104 -0.6751  0.4636
  140SAPE   H4Y15305   1.713   3.483  10.000  2.3625  0.5775  0.2863
  140SAPE   C3515306   1.724   3.344   9.837  0.2462 -0.0365 -0.3400
  140SAPE   H5X15307   1.622   3.370   9.801  0.8087  0.3961 -1.6739
  140SAPE   H5Y15308   1.751   3.239   9.812  0.6643  0.0193 -0.1285
  140SAPE   C3615309   1.833   3.433   9.768  0.5261  0.1256  0.5893
  140SAPE   H6X15310   1.931   3.417   9.818  1.5746  1.6740 -0.8904
  140SAPE   H6Y15311   1.812   3.540   9.789 -1.2788 -0.2983  1.1394
  140SAPE   C3715312   1.852   3.409   9.620  0.8505  0.3795 -0.2323
  140SAPE   H7X15313   1.893   3.307   9.606  1.8632  0.4056  2.0930
  140SAPE   H7Y15314   1.933   3.481   9.592  0.7990 -0.2750 -2.2285
  140SAPE   C3815315   1.723   3.437   9.537  0.7360 -0.4100 -0.3383
  140SAPE   H8X15316   1.699   3.539   9.574  2.4069  1.2009 -3.2944
  140SAPE   H8Y15317   1.647   3.360   9.564  0.5166  0.0736  0.4697
  140SAPE   C3915318   1.748   3.443   9.386  0.4578  0.0466 -0.0273
  140SAPE   H9X15319   1.798   3.349   9.355  2.8933  1.8707 -2.0706
  140SAPE   H9Y15320   1.825   3.520   9.365 -0.9140  1.0907 -1.4328
  140SAPE  C31015321   1.627   3.453   9.293 -0.3138  0.1656 -0.1160
  140SAPE  H10X15322   1.581   3.554   9.301  1.1132  0.7731  0.9457
  140SAPE  H10Y15323   1.553   3.382   9.335  1.0616 -0.7848  0.7971
  140SAPE  C31115324   1.670   3.444   9.148  0.2917 -0.4932  0.4114
  140SAPE  H11X15325   1.741   3.527   9.129 -1.2404  0.8703  0.3680
  140SAPE  H11Y15326   1.575   3.473   9.097  1.3932  0.4396 -1.1910
  140SAPE  C31215327   1.715   3.308   9.092  0.5074  0.4200 -0.4763
  140SAPE  H12X15328   1.641   3.230   9.120 -0.4915  0.8830 -1.7517
  140SAPE  H12Y15329   1.809   3.278   9.142 -0.5850 -0.2080  1.2753
  140SAPE  C31315330   1.739   3.328   8.944 -0.5231 -0.5870  0.6362
  140SAPE  H13X15331   1.658   3.368   8.878  1.3901  2.3593 -0.0896
  140SAPE  H13Y15332   1.757   3.228   8.900  0.0219  0.1988 -0.9865
  140SAPE  C31415333   1.869   3.411   8.917  0.2561  0.3315 -0.8477
  140SAPE  H14X15334   1.957   3.351   8.949 -1.4848 -1.5678  0.6263
  140SAPE  H14Y15335   1.873   3.505   8.975 -0.6807 -0.6108  0.8080
  140SAPE  C31515336   1.876   3.441   8.765 -0.5993  0.0538  0.5752
  140SAPE  H15X15337   1.790   3.504   8.737 -1.2248  1.1827  4.4256
  140SAPE  H15Y15338   1.869   3.347   8.705  2.1421 -0.0718  0.3239
  140SAPE  C31615339   2.011   3.505   8.720 -0.6946 -0.0797  0.2703
  140SAPE  H16X15340   2.090   3.426   8.718 -2.1451 -1.5739  0.0263
  140SAPE  H16Y15341   2.034   3.577   8.802 -0.3595  0.0651  0.0509
  140SAPE  C31715342   2.006   3.580   8.587 -0.4079  0.1620 -0.3987
  140SAPE  H17X15343   2.105   3.623   8.562 -0.2063 -1.4596 -2.6596
  140SAPE  H17Y15344   1.939   3.667   8.605  1.2768  1.7594 -1.5084
  140SAPE  C31815345   1.960   3.487   8.470  0.9509 -0.1533  0.1999
  140SAPE  H18X15346   2.001   3.384   8.477 -0.3566 -0.6007  2.0967
  140SAPE  H18Y15347   1.986   3.550   8.383 -2.4592  1.9752  0.5496
  140SAPE  H18Z15348   1.850   3.483   8.481  1.0590 -0.4660  1.2511
  141SAPE     N15349   2.139   1.411  11.290  0.4858  0.0313 -0.5866
  141SAPE   HN115350   2.121   1.409  11.392  4.3941 -0.6701  0.2857
  141SAPE   HN215351   2.139   1.511  11.262  1.3276  0.4672  0.8632
  141SAPE   HN315352   2.064   1.352  11.247  2.0374 -2.2490 -0.3818
  141SAPE   C1215353   2.269   1.351  11.251 -0.1663  0.5133 -0.5926
  141SAPE  H12A15354   2.249   1.243  11.235 -1.9078  0.6472  0.3590
  141SAPE  H12B15355   2.335   1.354  11.340 -0.9916 -0.9060  0.1159
  141SAPE   C1115356   2.328   1.407  11.126  0.0234  0.3801  0.2658
  141SAPE  H11A15357   2.426   1.355  11.120 -0.0688  0.1679  0.6103
  141SAPE  H11B15358   2.362   1.513  11.128 -1.4182  0.8585  0.2889
  141SAPE     P15359   2.176   1.503  10.942 -0.0899 -0.2742 -0.1421
  141SAPE   O1315360   2.054   1.548  11.017  0.1840  0.0819  0.0604
  141SAPE   O1415361   2.277   1.608  10.927 -0.6602 -0.1815 -0.7558
  141SAPE   O1215362   2.248   1.382  11.015  0.2546 -0.5319 -0.0580
  141SAPE   O1115363   2.134   1.456  10.799  0.2013  0.3215  0.0859
  141SAPE    C115364   2.007   1.394  10.782 -0.0322  0.1190  0.2823
  141SAPE    HA15365   2.017   1.283  10.779  1.3248  0.2388 -1.2633
  141SAPE    HB15366   1.930   1.423  10.856  1.1813 -0.6356  1.9045
  141SAPE    C215367   1.937   1.426  10.641 -0.3207 -0.1985  0.0805
  141SAPE    HS15368   1.845   1.364  10.649 -1.0849  0.7799 -0.9528
  141SAPE   O2115369   2.018   1.373  10.531 -0.1234  0.1514 -0.0540
  141SAPE   C2115370   2.042   1.245  10.516  0.0870 -0.4868  0.4314
  141SAPE   O2215371   1.985   1.150  10.562  0.5434  0.0575 -0.0101
  141SAPE   C2215372   2.139   1.235  10.398 -0.3793 -0.7109 -0.6456
  141SAPE   H2R15373   2.109   1.308  10.319  0.7857  1.6026  0.9174
  141SAPE   H2S15374   2.231   1.275  10.445 -0.7772  1.0203 -1.2536
  141SAPE    C315375   1.917   1.576  10.618  0.1422  0.2435  0.2587
  141SAPE    HX15376   2.011   1.624  10.653 -0.0761  2.2531 -1.6686
  141SAPE    HY15377   1.836   1.601  10.688 -0.9572 -0.9793 -0.5255
  141SAPE   O3115378   1.873   1.602  10.483  0.9215 -0.1006 -0.7509
  141SAPE   C3115379   1.853   1.731  10.460 -0.1091  0.2571 -0.2055
  141SAPE   O3215380   1.854   1.819  10.542 -0.0947  0.7619 -0.5274
  141SAPE   C3215381   1.830   1.754  10.308 -0.9192 -0.9778 -0.7254
  141SAPE   H2X15382   1.746   1.689  10.277 -0.8863 -0.7077 -1.4093
  141SAPE   H2Y15383   1.930   1.728  10.266 -0.2394 -0.9284  0.7813
  141SAPE   C2315384   2.175   1.097  10.336 -0.0803 -0.0482  0.1621
  141SAPE   H3R15385   2.200   1.030  10.422 -3.0455 -1.5772 -0.0440
  141SAPE   H3S15386   2.264   1.116  10.273  0.4027 -0.9644  0.5543
  141SAPE   C2415387   2.065   1.036  10.250  0.1839 -0.2797  0.4788
  141SAPE   H4R15388   2.046   1.096  10.159 -1.3944  0.1450  1.0526
  141SAPE   H4S15389   1.964   1.036  10.298 -1.0745 -0.6604 -1.9752
  141SAPE   C2515390   2.101   0.894  10.221 -0.1369  0.1501  0.1936
  141SAPE   H5R15391   2.092   0.833  10.312  1.0318 -0.3551 -0.0114
  141SAPE   C2615392   2.135   0.843  10.099 -0.6592 -0.4027  0.1323
  141SAPE   H6R15393   2.170   0.739  10.094 -1.5920 -0.7946  1.2183
  141SAPE   C2715394   2.120   0.920   9.974 -0.3795  0.0295 -0.4303
  141SAPE   H7R15395   2.202   0.994   9.959  0.3452 -0.3067  1.5493
  141SAPE   H7S15396   2.021   0.970   9.980 -0.0170  0.6553  0.5181
  141SAPE   C2815397   2.121   0.833   9.854  0.7288 -0.1154 -0.1661
  141SAPE   H8R15398   2.101   0.727   9.876  0.4642 -0.1785 -0.6852
  141SAPE   C2915399   2.128   0.883   9.728  0.3452 -0.3704  0.4677
  141SAPE   H9R15400   2.133   0.809   9.647  0.2854 -1.0154  1.0531
  141SAPE  C21015401   2.139   1.023   9.680  0.8756 -0.7231  0.0646
  141SAPE  H10R15402   2.245   1.055   9.669  0.1535  1.9028  0.2428
  141SAPE  H10S15403   2.096   1.089   9.757  2.5939 -0.2045  0.6291
  141SAPE  C21115404   2.057   1.042   9.550 -0.0727  0.4687  0.4502
  141SAPE  H11R15405   1.949   1.032   9.567 -0.1569 -1.3518 -0.9196
  141SAPE  C21215406   2.105   1.046   9.426 -0.7166  0.5631  0.5048
  141SAPE  H12R15407   2.038   1.057   9.340  1.4433  1.0218 -1.2371
  141SAPE  C21315408   2.252   1.043   9.383 -0.0106 -0.1236 -0.9293
  141SAPE  H13R15409   2.321   1.047   9.470  0.4305  0.3799 -1.2935
  141SAPE  H13S15410   2.272   1.138   9.327  0.3933  1.7450  2.1488
  141SAPE  C21415411   2.282   0.932   9.292 -0.5776  0.6428 -0.3469
  141SAPE  H14R15412   2.298   0.843   9.354  2.9724  1.0233 -0.5111
  141SAPE  C21515413   2.297   0.928   9.160 -0.1330  0.4628  0.3479
  141SAPE  H15R15414   2.341   0.833   9.125 -3.6978 -1.0961 -0.2651
  141SAPE  C21615415   2.285   1.030   9.054 -0.3712  0.7316  0.3187
  141SAPE  H16R15416   2.377   1.045   8.993 -1.7883 -1.4496 -2.6475
  141SAPE  H16S15417   2.245   1.127   9.090 -0.5757 -0.1158  2.4975
  141SAPE  C21715418   2.191   0.968   8.943  0.1435 -0.0839 -0.0477
  141SAPE  H17R15419   2.089   0.947   8.982  0.7928 -3.0076  0.2611
  141SAPE  H17S15420   2.224   0.875   8.892 -0.4033  0.1499 -0.8539
  141SAPE  C21815421   2.194   1.064   8.823 -0.1125 -0.6228  0.3965
  141SAPE  H18R15422   2.302   1.083   8.802 -0.2434 -0.1317  0.1643
  141SAPE  H18S15423   2.153   1.161   8.858  0.3970 -0.0755 -0.4850
  141SAPE  C21915424   2.116   1.010   8.715  0.2017 -0.3955  0.0684
  141SAPE  H19R15425   2.009   1.016   8.745  0.3149  0.5942  0.3297
  141SAPE  H19S15426   2.141   0.909   8.676  0.8776 -0.4738  0.6880
  141SAPE  C22015427   2.119   1.106   8.598 -0.1143 -0.5258  0.0859
  141SAPE  H20R15428   2.065   1.072   8.507 -0.8309  0.5797  0.0695
  141SAPE  H20S15429   2.219   1.138   8.563 -1.5890  3.3494 -1.1313
  141SAPE  H20T15430   2.077   1.205   8.627 -1.3454 -0.4545 -1.7750
  141SAPE   C3315431   1.801   1.900  10.269 -0.0345  0.0661  0.4871
  141SAPE   H3X15432   1.893   1.960  10.253  0.8137 -1.3369  0.0164
  141SAPE   H3Y15433   1.728   1.945  10.341  0.0091  0.1175  0.4992
  141SAPE   C3415434   1.724   1.898  10.136  0.1839 -0.0141  0.2112
  141SAPE   H4X15435   1.683   2.001  10.125 -0.5502  0.0368  2.6783
  141SAPE   H4Y15436   1.635   1.831  10.136 -0.7891  1.2430 -0.7420
  141SAPE   C3515437   1.825   1.875  10.016  0.0553  0.1933 -0.0791
  141SAPE   H5X15438   1.860   1.770  10.012  1.1728  0.4200  2.1347
  141SAPE   H5Y15439   1.919   1.933  10.031 -0.2239  0.0422  2.9118
  141SAPE   C3615440   1.756   1.904   9.883 -0.3820  0.9476  0.6491
  141SAPE   H6X15441   1.712   2.004   9.863  1.5244  1.4953 -1.2468
  141SAPE   H6Y15442   1.676   1.828   9.869  0.6766  0.0425 -0.8086
  141SAPE   C3715443   1.857   1.893   9.768 -0.3375 -0.7432  0.5232
  141SAPE   H7X15444   1.878   1.786   9.746 -0.6602 -0.4489 -1.4664
  141SAPE   H7Y15445   1.952   1.941   9.800 -0.4505  0.7438 -1.1673
  141SAPE   C3815446   1.797   1.956   9.642  1.4132  0.5298  0.0959
  141SAPE   H8X15447   1.776   2.062   9.666 -2.3249 -0.1937  0.5537
  141SAPE   H8Y15448   1.694   1.920   9.621  0.4529  0.9183  3.4992
  141SAPE   C3915449   1.894   1.938   9.523  0.4168 -0.7004  0.0980
  141SAPE   H9X15450   1.922   1.831   9.514 -1.3486 -1.2043  0.2450
  141SAPE   H9Y15451   1.986   1.998   9.543 -1.2674  1.3942  2.1754
  141SAPE  C31015452   1.830   1.993   9.397  0.0648  0.4475  0.5863
  141SAPE  H10X15453   1.815   2.103   9.407 -1.1899  0.1631  2.1447
  141SAPE  H10Y15454   1.734   1.937   9.393  0.2006  0.2410  0.1265
  141SAPE  C31115455   1.901   1.945   9.271 -0.0966  0.0321 -0.0224
  141SAPE  H11X15456   1.894   1.835   9.289 -0.2554  0.3777  2.4145
  141SAPE  H11Y15457   2.007   1.980   9.271  0.2151 -0.8825 -0.6170
  141SAPE  C31215458   1.824   1.999   9.148 -0.5716 -0.6069  0.3055
  141SAPE  H12X15459   1.822   2.108   9.169  1.6713 -0.6729  1.1913
  141SAPE  H12Y15460   1.723   1.954   9.153 -0.8460 -0.0266  0.0427
  141SAPE  C31315461   1.886   1.958   9.018  0.1239  0.1905 -0.1706
  141SAPE  H13X15462   1.901   1.848   9.008  0.9660  0.2451  0.4205
  141SAPE  H13Y15463   1.985   2.003   8.993 -0.0803 -0.2225 -1.8702
  141SAPE  C31415464   1.795   2.014   8.898  0.1030 -0.0254  0.5631
  141SAPE  H14X15465   1.794   2.125   8.908  0.5897  0.2077 -1.5636
  141SAPE  H14Y15466   1.694   1.976   8.925  0.2977 -0.9695 -0.0149
  141SAPE  C31515467   1.828   1.972   8.749  0.3846  0.3740  0.2265
  141SAPE  H15X15468   1.906   2.036   8.702 -0.1736  1.1521  0.3465
  141SAPE  H15Y15469   1.734   1.992   8.693 -0.2803  0.5622  1.3858
  141SAPE  C31615470   1.858   1.824   8.730  0.1000 -0.1376  0.3920
  141SAPE  H16X15471   1.776   1.769   8.781 -1.1922  1.9642  0.6943
  141SAPE  H16Y15472   1.958   1.802   8.774 -0.3917 -0.6841  1.2570
  141SAPE  C31715473   1.866   1.805   8.572 -1.0668  0.7879  0.3435
  141SAPE  H17X15474   1.964   1.834   8.529 -0.7389 -2.7141 -1.6567
  141SAPE  H17Y15475   1.783   1.856   8.519 -0.0705  0.6016 -1.4756
  141SAPE  C31815476   1.844   1.655   8.530 -0.3799  0.3019 -0.7680
  141SAPE  H18X15477   1.750   1.630   8.585  1.1628  0.2037  2.0286
  141SAPE  H18Y15478   1.927   1.587   8.560  0.4867  1.7091  0.1170
  141SAPE  H18Z15479   1.830   1.629   8.423  2.4661  0.2387 -1.2160
  142SAPE     N15480   5.336   1.806  10.940 -0.0702 -0.5805 -0.2097
  142SAPE   HN115481   5.361   1.718  10.892  0.9215 -0.8366  0.7545
  142SAPE   HN215482   5.246   1.837  10.897 -0.3994 -2.1691 -0.7161
  142SAPE   HN315483   5.410   1.877  10.922  0.5901 -1.2988 -0.3770
  142SAPE   C1215484   5.321   1.790  11.092  0.0671 -0.6299  0.0909
  142SAPE  H12A15485   5.302   1.888  11.140  1.4168 -0.6287  0.6618
  142SAPE  H12B15486   5.422   1.754  11.121  0.9565 -0.1967 -2.2133
  142SAPE   C1115487   5.221   1.684  11.132 -0.0429 -0.1480  0.3809
  142SAPE  H11A15488   5.120   1.722  11.107  0.2436 -0.5578 -1.5718
  142SAPE  H11B15489   5.240   1.661  11.239  3.7291  0.4377 -0.0020
  142SAPE     P15490   5.161   1.434  11.090  0.6416  0.1633 -0.1466
  142SAPE   O1315491   5.253   1.320  11.072 -0.5373 -0.0550 -0.2879
  142SAPE   O1415492   5.106   1.441  11.227  0.0527 -0.3263  0.1030
  142SAPE   O1215493   5.243   1.567  11.060 -0.1195 -0.3645  0.1520
  142SAPE   O1115494   5.045   1.435  10.986  0.5326  0.2224 -0.4159
  142SAPE    C115495   5.067   1.508  10.864 -0.2869 -0.3714  0.1217
  142SAPE    HA15496   5.090   1.616  10.873  0.5889 -0.3294 -1.9811
  142SAPE    HB15497   5.147   1.465  10.800 -0.9162 -1.0069 -0.2562
  142SAPE    C215498   4.944   1.506  10.758 -0.2346 -0.3660 -1.0495
  142SAPE    HS15499   4.861   1.549  10.819  1.5258 -0.5551  1.6442
  142SAPE   O2115500   4.916   1.370  10.716 -0.1119 -1.2012  0.0675
  142SAPE   C2115501   4.792   1.354  10.665  0.6451 -0.0664  0.0486
  142SAPE   O2215502   4.699   1.438  10.667 -0.2144  0.5973  0.4374
  142SAPE   C2215503   4.779   1.216  10.607  1.0594 -0.3265 -0.1456
  142SAPE   H2R15504   4.854   1.201  10.526  1.7528  0.5187  0.3263
  142SAPE   H2S15505   4.829   1.159  10.688  0.5956  1.4180  1.4364
  142SAPE    C315506   4.953   1.613  10.649 -0.5268 -0.4045 -0.2675
  142SAPE    HX15507   4.970   1.713  10.693  2.4789 -0.4419 -1.1262
  142SAPE    HY15508   4.863   1.622  10.584 -1.3993  3.0309  1.1947
  142SAPE   O3115509   5.058   1.572  10.556 -0.5783  0.4111  0.1113
  142SAPE   C3115510   5.108   1.674  10.490 -0.0827 -0.0229  0.5741
  142SAPE   O3215511   5.081   1.792  10.505  0.5413 -0.5342  0.1927
  142SAPE   C3215512   5.217   1.625  10.381  0.0322 -0.2707 -0.5504
  142SAPE   H2X15513   5.163   1.552  10.317  0.0091  0.0210 -0.8614
  142SAPE   H2Y15514   5.303   1.576  10.432  1.1466  1.0221 -1.1551
  142SAPE   C2315515   4.646   1.153  10.571  0.0717 -0.0491  0.8954
  142SAPE   H3R15516   4.575   1.134  10.654  1.0586 -1.7631  1.3971
  142SAPE   H3S15517   4.672   1.053  10.530  0.2871  0.5994 -0.5858
  142SAPE   C2415518   4.583   1.232  10.447  0.2840 -0.3628  0.1444
  142SAPE   H4R15519   4.668   1.233  10.376 -0.2956  0.9315 -0.5582
  142SAPE   H4S15520   4.569   1.335  10.485  1.0852  0.1934 -1.0202
  142SAPE   C2515521   4.450   1.175  10.396 -0.0714 -0.3040 -0.0936
  142SAPE   H5R15522   4.371   1.190  10.471  1.5813  1.2108  1.4374
  142SAPE   C2615523   4.426   1.119  10.281 -0.7385 -1.1389  0.1068
  142SAPE   H6R15524   4.322   1.086  10.266 -1.3755 -0.0758  1.7832
  142SAPE   C2715525   4.527   1.106  10.171 -0.5431 -0.5660  0.3582
  142SAPE   H7R15526   4.629   1.090  10.210 -0.4769 -1.8041 -0.2671
  142SAPE   H7S15527   4.538   1.209  10.132  1.5162 -0.5673  0.8551
  142SAPE   C2815528   4.485   1.009  10.066  0.8884  0.3892  0.9946
  142SAPE   H8R15529   4.416   0.929  10.097 -2.3370  1.7913 -1.8865
  142SAPE   C2915530   4.528   1.016   9.938  0.2904 -0.0674 -0.0546
  142SAPE   H9R15531   4.503   0.933   9.870  1.3615 -0.0387 -0.5139
  142SAPE  C21015532   4.631   1.117   9.884  0.7048 -0.0886  0.8326
  142SAPE  H10R15533   4.686   1.157   9.972 -2.2136  1.6735  1.9616
  142SAPE  H10S15534   4.575   1.212   9.878  1.1763  0.1764  0.5169
  142SAPE  C21115535   4.725   1.068   9.780 -0.1835 -0.3417 -0.6430
  142SAPE  H11R15536   4.809   1.008   9.817 -1.3274 -1.2182  0.6271
  142SAPE  C21215537   4.723   1.104   9.647 -0.4164 -0.9167 -0.5860
  142SAPE  H12R15538   4.800   1.064   9.579 -0.2534 -1.5149 -0.0607
  142SAPE  C21315539   4.617   1.195   9.590 -0.2764 -0.0345  0.3256
  142SAPE  H13R15540   4.651   1.296   9.560  0.5002 -0.7210 -1.1954
  142SAPE  H13S15541   4.535   1.220   9.661 -1.4563 -0.4726 -0.8412
  142SAPE  C21415542   4.548   1.138   9.471 -0.1683 -0.2601 -0.5027
  142SAPE  H14R15543   4.456   1.082   9.496 -0.5365 -0.1137 -1.4814
  142SAPE  C21515544   4.582   1.130   9.341 -0.5059 -0.4100  0.0239
  142SAPE  H15R15545   4.501   1.087   9.279 -1.0856 -0.8410  1.0581
  142SAPE  C21615546   4.705   1.196   9.275 -0.7224 -0.1478  0.3545
  142SAPE  H16R15547   4.790   1.197   9.347  1.3345  0.3576 -1.9526
  142SAPE  H16S15548   4.690   1.302   9.245  1.3715 -0.0181 -0.3666
  142SAPE  C21715549   4.767   1.121   9.148  0.0794 -0.9840 -0.4824
  142SAPE  H17R15550   4.794   1.016   9.170 -1.8570 -2.0106 -2.6223
  142SAPE  H17S15551   4.863   1.172   9.127 -0.2059  0.2292  0.9430
  142SAPE  C21815552   4.681   1.125   9.026 -0.2889 -0.1018 -0.0767
  142SAPE  H18R15553   4.673   1.232   8.998  0.0282  0.1419  0.7646
  142SAPE  H18S15554   4.577   1.084   9.034  0.0916 -1.3544 -1.1256
  142SAPE  C21915555   4.752   1.049   8.917  1.0281  0.1232  0.1886
  142SAPE  H19R15556   4.764   0.944   8.952 -0.3615 -0.7064 -1.6223
  142SAPE  H19S15557   4.851   1.097   8.901  0.0056  2.4548  0.4808
  142SAPE  C22015558   4.662   1.049   8.795 -0.5381 -0.0525  0.2360
  142SAPE  H20R15559   4.651   1.154   8.761  3.5706  0.4204 -0.1747
  142SAPE  H20S15560   4.562   1.005   8.812 -0.2922 -0.0803  1.7636
  142SAPE  H20T15561   4.713   0.995   8.713 -0.4903 -1.9431  1.4621
  142SAPE   C3315562   5.270   1.740  10.297 -0.0907 -0.4446  0.1572
  142SAPE   H3X15563   5.307   1.814  10.372 -1.1182  0.4299 -0.1745
  142SAPE   H3Y15564   5.180   1.798  10.265  1.2928  2.2876  0.8739
  142SAPE   C3415565   5.365   1.697  10.182 -0.1262 -0.5022 -0.6993
  142SAPE   H4X15566   5.467   1.675  10.221 -0.6582 -1.0887  0.4116
  142SAPE   H4Y15567   5.386   1.790  10.125 -0.9067 -0.3852 -0.7964
  142SAPE   C3515568   5.314   1.591  10.083  0.5884 -0.2134 -0.0879
  142SAPE   H5X15569   5.217   1.624  10.040 -0.8308 -3.8007  0.0216
  142SAPE   H5Y15570   5.299   1.498  10.143 -1.5146  0.6523  0.8242
  142SAPE   C3615571   5.399   1.560   9.959  0.5465  0.1973  0.5299
  142SAPE   H6X15572   5.371   1.465   9.907 -1.6358  0.5612  0.9127
  142SAPE   H6Y15573   5.505   1.562   9.991  0.3276  1.4243  1.2459
  142SAPE   C3715574   5.384   1.673   9.857  0.3041  0.6601 -0.9286
  142SAPE   H7X15575   5.419   1.764   9.909 -0.0330  0.7904 -0.9253
  142SAPE   H7Y15576   5.275   1.684   9.840  0.1903  0.3729 -0.4336
  142SAPE   C3815577   5.464   1.651   9.734 -0.0825 -0.5372 -0.6862
  142SAPE   H8X15578   5.574   1.636   9.741  0.2456  0.8202 -2.1862
  142SAPE   H8Y15579   5.449   1.745   9.677  2.6437 -0.3547 -1.2451
  142SAPE   C3915580   5.396   1.561   9.633  0.4287 -0.4855 -0.0823
  142SAPE   H9X15581   5.294   1.589   9.602  1.7019  2.1598 -2.3036
  142SAPE   H9Y15582   5.392   1.457   9.672 -0.4069 -1.1815 -1.9355
  142SAPE  C31015583   5.470   1.572   9.502  0.4736 -0.3044  0.2489
  142SAPE  H10X15584   5.569   1.522   9.509  0.1029 -1.2713 -0.9475
  142SAPE  H10Y15585   5.488   1.673   9.459 -1.2106 -0.5310 -1.1016
  142SAPE  C31115586   5.395   1.490   9.395 -0.1342  0.3359 -0.4401
  142SAPE  H11X15587   5.288   1.521   9.393  0.1967  1.4772 -1.2699
  142SAPE  H11Y15588   5.399   1.383   9.424 -0.5195  0.2219 -0.8000
  142SAPE  C31215589   5.465   1.515   9.263  0.0842 -0.3767 -0.3974
  142SAPE  H12X15590   5.559   1.456   9.260 -0.8045 -1.8596 -0.3113
  142SAPE  H12Y15591   5.473   1.626   9.255 -2.0539 -0.1645 -0.2544
  142SAPE  C31315592   5.393   1.456   9.144  0.5366  0.0616  0.5037
  142SAPE  H13X15593   5.286   1.483   9.142 -0.1487 -2.4215 -0.5466
  142SAPE  H13Y15594   5.408   1.347   9.161  1.8104  0.3260  1.2637
  142SAPE  C31415595   5.464   1.486   9.003  0.0760 -0.0726  0.0634
  142SAPE  H14X15596   5.572   1.485   9.032  0.0116 -1.6897  0.3361
  142SAPE  H14Y15597   5.429   1.586   8.969  0.2231  0.1005  0.4163
  142SAPE  C31515598   5.456   1.381   8.881 -0.1089  0.0678 -0.2558
  142SAPE  H15X15599   5.346   1.370   8.881 -0.2300  0.6220  2.1674
  142SAPE  H15Y15600   5.502   1.286   8.917 -0.3882  0.2553  0.6201
  142SAPE  C31615601   5.532   1.413   8.750  0.1755 -0.5982 -0.7065
  142SAPE  H16X15602   5.541   1.319   8.692 -1.2578  0.1025 -2.1395
  142SAPE  H16Y15603   5.633   1.450   8.778 -0.5142  3.1910 -2.5727
  142SAPE  C31715604   5.469   1.526   8.667 -0.7115 -0.2489 -0.4440
  142SAPE  H17X15605   5.539   1.548   8.583 -0.2262 -0.3496 -0.0734
  142SAPE  H17Y15606   5.475   1.615   8.733 -1.9805  1.0444 -2.0235
  142SAPE  C31815607   5.329   1.483   8.619 -1.1636  0.5625 -0.2759
  142SAPE  H18X15608   5.273   1.537   8.540 -0.3625 -1.2359 -2.1723
  142SAPE  H18Y15609   5.277   1.458   8.714  0.0164 -2.5664 -0.3247
  142SAPE  H18Z15610   5.361   1.390   8.568  0.7963  0.5777  0.8340
  143SAPE     N15611   6.171   2.933  11.084  0.4329 -0.0046  0.4129
  143SAPE   HN115612   6.086   2.994  11.082 -1.1250 -1.8924  3.0139
  143SAPE   HN215613   6.144   2.876  11.166 -2.1740 -1.0907 -1.0607
  143SAPE   HN315614   6.255   2.992  11.097 -1.5277  3.0504  0.2935
  143SAPE   C1215615   6.177   2.858  10.954 -0.0632  0.0832  0.2919
  143SAPE  H12A15616   6.187   2.940  10.880  1.0814  0.1039  0.4544
  143SAPE  H12B15617   6.075   2.819  10.933  0.1774  0.4470 -1.7662
  143SAPE   C1115618   6.276   2.744  10.967 -0.4543  0.1428 -0.1251
  143SAPE  H11A15619   6.374   2.792  10.988 -0.7605  0.2126  1.2396
  143SAPE  H11B15620   6.274   2.693  10.868 -0.1917 -1.6281  0.7473
  143SAPE     P15621   6.336   2.531  11.107  0.5816  0.5895  0.2489
  143SAPE   O1315622   6.479   2.580  11.106 -0.4624  0.2841 -0.6245
  143SAPE   O1415623   6.289   2.456  11.230  0.5618  0.0230  0.1120
  143SAPE   O1215624   6.241   2.657  11.075  0.5726  0.5109  0.0718
  143SAPE   O1115625   6.320   2.436  10.978 -0.4921  0.3257  0.0280
  143SAPE    C115626   6.193   2.410  10.920 -0.2136  0.5158 -0.8615
  143SAPE    HA15627   6.103   2.424  10.983 -1.7571  1.1338 -3.1009
  143SAPE    HB15628   6.173   2.495  10.852  0.6009  2.5412  1.2889
  143SAPE    C215629   6.175   2.277  10.847 -0.2439  0.1384  0.1443
  143SAPE    HS15630   6.159   2.194  10.920  0.6561  0.6037  0.8945
  143SAPE   O2115631   6.301   2.258  10.776  0.1593  0.2947  0.0111
  143SAPE   C2115632   6.329   2.130  10.748  0.3534 -0.0294 -0.0396
  143SAPE   O2215633   6.267   2.033  10.787 -0.3039  0.4724  0.6654
  143SAPE   C2215634   6.462   2.125  10.669  0.3164  0.1262  0.6325
  143SAPE   H2R15635   6.472   2.228  10.628  0.8725  0.2178  0.9913
  143SAPE   H2S15636   6.543   2.121  10.745  0.1793 -0.5781  0.7513
  143SAPE    C315637   6.052   2.288  10.757 -0.0686  0.6434  0.2856
  143SAPE    HX15638   6.072   2.367  10.681  3.8815  0.4232  0.8573
  143SAPE    HY15639   5.964   2.331  10.809 -1.4921 -1.2255 -0.4648
  143SAPE   O3115640   6.026   2.168  10.682 -0.1464  0.1390  0.3806
  143SAPE   C3115641   5.963   2.067  10.747 -0.6399 -0.7030  0.6172
  143SAPE   O3215642   5.926   2.063  10.859  0.4955 -0.6007  0.5448
  143SAPE   C3215643   5.937   1.964  10.638  0.0396  0.0662 -0.4048
  143SAPE   H2X15644   5.889   2.021  10.555  0.3986  3.0512  1.3092
  143SAPE   H2Y15645   5.862   1.890  10.672  0.1160 -0.6496 -1.7145
  143SAPE   C2315646   6.464   2.022  10.563  0.3586 -0.1098  0.4360
  143SAPE   H3R15647   6.385   2.056  10.493 -0.7958 -0.1548  1.6731
  143SAPE   H3S15648   6.427   1.926  10.604  0.3977 -1.0252 -1.5569
  143SAPE   C2415649   6.599   1.990  10.504 -0.1125 -0.4716 -0.3431
  143SAPE   H4R15650   6.652   1.951  10.593  0.4632  2.2612  0.6042
  143SAPE   H4S15651   6.659   2.082  10.483  0.0269 -0.7595 -1.2743
  143SAPE   C2515652   6.600   1.899  10.386 -0.2214  0.5648  0.6722
  143SAPE   H5R15653   6.605   1.791  10.408  1.1155 -0.0971 -2.3829
  143SAPE   C2615654   6.602   1.939  10.259  0.3973 -0.0747  0.5124
  143SAPE   H6R15655   6.616   1.854  10.190  1.3270 -0.0368  0.6419
  143SAPE   C2715656   6.612   2.079  10.198  0.1439  0.9659 -0.1669
  143SAPE   H7R15657   6.585   2.152  10.277 -1.3333  0.2052  0.0545
  143SAPE   H7S15658   6.531   2.086  10.123  0.9880 -1.0817 -1.3609
  143SAPE   C2815659   6.744   2.126  10.146  0.4670 -0.6129  0.1891
  143SAPE   H8R15660   6.832   2.140  10.209 -0.7831  1.1863  1.6279
  143SAPE   C2915661   6.768   2.147  10.016 -0.8317 -0.0130  0.0271
  143SAPE   H9R15662   6.873   2.173   9.991  0.0053 -1.2572  2.0397
  143SAPE  C21015663   6.692   2.115   9.892 -0.4974 -1.4644  0.9137
  143SAPE  H10R15664   6.710   2.200   9.822 -1.4986 -0.4308  1.8787
  143SAPE  H10S15665   6.585   2.110   9.919 -1.1177  0.5816 -0.8734
  143SAPE  C21115666   6.720   1.976   9.834 -1.1038  0.3132  1.2044
  143SAPE  H11R15667   6.729   1.896   9.909 -0.6652 -0.7066  0.1037
  143SAPE  C21215668   6.739   1.939   9.704  0.1434  0.6005  0.2913
  143SAPE  H12R15669   6.759   1.832   9.689  1.2116  0.7000  0.8801
  143SAPE  C21315670   6.737   2.020   9.582 -0.1402 -1.3282  0.3972
  143SAPE  H13R15671   6.709   2.124   9.607 -0.8040 -0.8946 -1.9205
  143SAPE  H13S15672   6.656   1.986   9.514 -0.7613 -0.7844  0.8540
  143SAPE  C21415673   6.873   2.027   9.513 -0.6985 -0.2771  0.3122
  143SAPE  H14R15674   6.944   2.100   9.556 -0.2927 -0.7956  0.5362
  143SAPE  C21515675   6.919   1.949   9.412 -0.2316 -0.3805  0.3867
  143SAPE  H15R15676   7.019   1.967   9.371 -1.9167  1.8320 -3.2476
  143SAPE  C21615677   6.842   1.846   9.329  0.1264 -0.7677  0.1194
  143SAPE  H16R15678   6.734   1.865   9.345  0.5996  0.5680  2.0912
  143SAPE  H16S15679   6.854   1.742   9.367  1.9081 -1.0727 -1.1321
  143SAPE  C21715680   6.884   1.855   9.180 -0.3803 -0.5971 -0.1594
  143SAPE  H17R15681   6.879   1.962   9.151  1.0998 -0.8897 -1.6198
  143SAPE  H17S15682   6.806   1.800   9.122  0.8455  1.1676 -3.7480
  143SAPE  C21815683   7.019   1.792   9.161  0.2488 -0.1004 -0.3345
  143SAPE  H18R15684   7.036   1.692   9.207  1.8850  1.2553  2.2999
  143SAPE  H18S15685   7.097   1.856   9.207  0.4059  0.7080 -1.6844
  143SAPE  C21915686   7.065   1.778   9.013  0.1549  0.2974 -0.0944
  143SAPE  H19R15687   7.170   1.744   9.006  0.2831  0.2721  1.5682
  143SAPE  H19S15688   7.063   1.883   8.976  1.8702  1.0424  1.7066
  143SAPE  C22015689   6.984   1.684   8.918 -1.0274 -1.3228 -0.0368
  143SAPE  H20R15690   7.028   1.582   8.930  1.5389 -0.0491  2.6466
  143SAPE  H20S15691   6.985   1.713   8.811 -1.0702  0.9214  0.5310
  143SAPE  H20T15692   6.881   1.692   8.960 -1.7329  0.8284 -2.0258
  143SAPE   C3315693   6.061   1.895  10.582  0.2162  0.2245  0.0309
  143SAPE   H3X15694   6.132   1.866  10.662  0.7825  0.3257 -0.4328
  143SAPE   H3Y15695   6.109   1.958  10.504 -1.0999 -0.4770 -1.4062
  143SAPE   C3415696   6.026   1.765  10.510  0.0811  0.2333 -0.4609
  143SAPE   H4X15697   5.956   1.773  10.425  0.6132  1.6399 -0.8044
  143SAPE   H4Y15698   5.978   1.700  10.586  0.6267 -1.6863 -1.7013
  143SAPE   C3515699   6.146   1.694  10.462 -0.3648  0.2253  0.1902
  143SAPE   H5X15700   6.131   1.586  10.482 -0.8257  0.3620  0.5909
  143SAPE   H5Y15701   6.237   1.720  10.521  1.1750 -2.2177 -0.9180
  143SAPE   C3615702   6.175   1.706  10.314  0.3880 -0.1845  0.3938
  143SAPE   H6X15703   6.217   1.807  10.297 -0.3317  0.0627  0.0550
  143SAPE   H6Y15704   6.079   1.693  10.259 -0.5108  0.9033  1.6573
  143SAPE   C3715705   6.259   1.578  10.267  0.5536  0.4596 -0.3484
  143SAPE   H7X15706   6.203   1.484  10.289 -0.6461  1.4271  0.8618
  143SAPE   H7Y15707   6.344   1.579  10.338 -0.1289  1.0485  0.4769
  143SAPE   C3815708   6.317   1.571  10.127 -0.4979  0.0434 -0.2348
  143SAPE   H8X15709   6.242   1.586  10.047 -0.4830 -1.4505 -0.5697
  143SAPE   H8Y15710   6.340   1.462  10.118 -0.1014  0.1898 -1.0910
  143SAPE   C3915711   6.442   1.660  10.111  0.0588 -0.4704 -0.1518
  143SAPE   H9X15712   6.524   1.624  10.177  1.2295 -1.0128 -1.8491
  143SAPE   H9Y15713   6.437   1.764  10.152  2.9596 -0.7100  1.0957
  143SAPE  C31015714   6.512   1.669   9.968 -0.2489  0.6933  0.4922
  143SAPE  H10X15715   6.600   1.737   9.972 -0.4796  0.9542  3.0647
  143SAPE  H10Y15716   6.443   1.709   9.892 -1.6028 -1.5241  0.4590
  143SAPE  C31115717   6.571   1.536   9.902 -0.1148 -0.1889  0.0439
  143SAPE  H11X15718   6.490   1.460   9.906 -2.5745  2.2291 -0.5017
  143SAPE  H11Y15719   6.661   1.508   9.960 -0.8506 -1.8337  0.4388
  143SAPE  C31215720   6.607   1.557   9.753  0.1857  0.3077  0.0664
  143SAPE  H12X15721   6.673   1.647   9.754  0.7777 -0.1076 -1.0305
  143SAPE  H12Y15722   6.511   1.585   9.705 -0.9166 -0.7644  1.5326
  143SAPE  C31315723   6.655   1.426   9.686  0.1379  0.4013 -0.0945
  143SAPE  H13X15724   6.572   1.354   9.702 -0.2795  1.3424  2.6063
  143SAPE  H13Y15725   6.740   1.381   9.741  0.6907  0.6866 -0.6965
  143SAPE  C31415726   6.691   1.437   9.538 -0.1538  0.0295  0.8698
  143SAPE  H14X15727   6.739   1.536   9.518  1.9724 -0.7631  1.7212
  143SAPE  H14Y15728   6.602   1.438   9.472  1.3409 -2.1766 -1.3435
  143SAPE  C31515729   6.793   1.339   9.484 -0.0740 -0.4033  0.2724
  143SAPE  H15X15730   6.751   1.237   9.498  1.5296 -0.8342  2.4351
  143SAPE  H15Y15731   6.889   1.342   9.539  1.1948  0.5399 -1.8562
  143SAPE  C31615732   6.817   1.357   9.331 -0.1803  0.2094 -0.4895
  143SAPE  H16X15733   6.800   1.459   9.291  1.1618 -0.1019 -1.9982
  143SAPE  H16Y15734   6.737   1.302   9.278 -1.1524 -0.1729  1.3042
  143SAPE  C31715735   6.953   1.315   9.292 -0.0704  1.0661  0.3837
  143SAPE  H17X15736   6.955   1.204   9.298 -2.4199  1.0528  4.8021
  143SAPE  H17Y15737   7.034   1.337   9.365  1.9958 -4.3605  0.1617
  143SAPE  C31815738   6.998   1.359   9.154  0.6956 -0.3713 -0.4081
  143SAPE  H18X15739   6.930   1.338   9.070 -1.4474 -0.6652  1.3084
  143SAPE  H18Y15740   7.099   1.319   9.130  0.9557  0.2347 -0.3466
  143SAPE  H18Z15741   7.009   1.470   9.158  0.3760 -0.3449 -0.2530
  144SAPE     N15742   3.356   6.816  10.680  0.2825 -0.0486 -0.2549
  144SAPE   HN115743   3.276   6.766  10.636  1.4189 -0.6943 -1.6488
  144SAPE   HN215744   3.398   6.759  10.756 -1.8594 -1.3399  0.0466
  144SAPE   HN315745   3.321   6.901  10.729  0.0659  0.4212 -1.2075
  144SAPE   C1215746   3.469   6.858  10.592  0.0376  0.0014 -0.6762
  144SAPE  H12A15747   3.449   6.959  10.552  0.3754 -0.5305 -2.2519
  144SAPE  H12B15748   3.482   6.788  10.507  0.2768 -0.0900 -0.5664
  144SAPE   C1115749   3.595   6.865  10.683  0.1022 -0.1402  0.4104
  144SAPE  H11A15750   3.571   6.929  10.770 -1.6960  1.2537 -1.0368
  144SAPE  H11B15751   3.677   6.916  10.627 -0.0399  0.8950  1.1091
  144SAPE     P15752   3.786   6.688  10.721 -0.0681 -0.1836  0.0406
  144SAPE   O1315753   3.870   6.794  10.779  0.0827  0.1358  0.2139
  144SAPE   O1415754   3.804   6.561  10.791 -0.2512  0.6797 -0.3855
  144SAPE   O1215755   3.631   6.733  10.730 -0.6766 -0.0642 -0.3498
  144SAPE   O1115756   3.811   6.661  10.567 -0.0380 -0.1418 -0.2351
  144SAPE    C115757   3.772   6.551  10.484  0.4531 -0.1784 -0.7105
  144SAPE    HA15758   3.705   6.476  10.530  0.1683  1.2032  1.2394
  144SAPE    HB15759   3.732   6.581  10.384  0.6987 -1.1345 -1.1118
  144SAPE    C215760   3.890   6.452  10.451  0.6437 -0.5462 -0.3040
  144SAPE    HS15761   3.940   6.436  10.549 -1.6696 -1.7879  0.7408
  144SAPE   O2115762   3.962   6.522  10.354  0.0122 -0.6762  0.7403
  144SAPE   C2115763   4.086   6.499  10.334 -0.4998  0.3272 -0.4084
  144SAPE   O2215764   4.141   6.412  10.398  0.0554 -0.1163  0.0206
  144SAPE   C2215765   4.146   6.589  10.231  0.5078 -0.4098 -0.7411
  144SAPE   H2R15766   4.118   6.577  10.124 -0.3904  1.0051 -0.6994
  144SAPE   H2S15767   4.114   6.693  10.255 -0.9430 -0.8632 -0.5792
  144SAPE    C315768   3.841   6.318  10.413  0.2033  0.3009  0.4808
  144SAPE    HX15769   3.810   6.271  10.509  1.2210 -0.2361  0.5551
  144SAPE    HY15770   3.925   6.253  10.383  1.5123  2.1347  0.0141
  144SAPE   O3115771   3.735   6.316  10.320 -1.1691  0.0106 -0.6710
  144SAPE   C3115772   3.769   6.313  10.194 -0.3726  0.6657 -0.2221
  144SAPE   O3215773   3.880   6.313  10.145  0.1343 -0.5358 -0.1561
  144SAPE   C3215774   3.637   6.283  10.124  0.3587  0.7327 -0.4444
  144SAPE   H2X15775   3.560   6.359  10.151  0.2251  1.0046 -1.5272
  144SAPE   H2Y15776   3.606   6.181  10.154 -1.4167  1.6483  1.0423
  144SAPE   C2315777   4.302   6.578  10.217 -0.3916  1.0726  0.7725
  144SAPE   H3R15778   4.327   6.471  10.203 -0.4145  1.1377  0.2026
  144SAPE   H3S15779   4.343   6.598  10.318 -0.3110  4.0507  0.2476
  144SAPE   C2415780   4.367   6.670  10.110  0.3258  0.5034  0.4015
  144SAPE   H4R15781   4.324   6.647  10.010 -0.9171 -2.5686  1.4975
  144SAPE   H4S15782   4.475   6.646  10.113  0.5950  1.3852  4.6085
  144SAPE   C2515783   4.365   6.813  10.144 -0.3581 -0.5877 -0.4994
  144SAPE   H5R15784   4.414   6.837  10.240 -0.4000 -0.3702 -0.5329
  144SAPE   C2615785   4.330   6.903  10.057 -0.0764  0.0283 -0.2785
  144SAPE   H6R15786   4.332   7.007  10.092 -1.3049 -0.2915  0.8041
  144SAPE   C2715787   4.272   6.877   9.912 -0.3590 -0.6009  0.7060
  144SAPE   H7R15788   4.206   6.955   9.868  0.2338 -0.3279  0.2842
  144SAPE   H7S15789   4.200   6.793   9.923 -2.1175  0.7145 -0.1613
  144SAPE   C2815790   4.389   6.840   9.820  0.1310 -0.4284  0.4583
  144SAPE   H8R15791   4.484   6.809   9.865 -0.1545 -2.5292 -0.2476
  144SAPE   C2915792   4.390   6.842   9.684 -0.2146  0.5694 -0.3042
  144SAPE   H9R15793   4.486   6.823   9.634 -0.5948  0.7421 -1.1181
  144SAPE  C21015794   4.275   6.881   9.589 -0.2660 -0.3518 -0.2726
  144SAPE  H10R15795   4.186   6.890   9.655 -0.7849  0.1199 -1.0235
  144SAPE  H10S15796   4.249   6.790   9.531  0.5287  0.2325 -1.5837
  144SAPE  C21115797   4.302   7.004   9.505 -1.0050  0.5602  0.2999
  144SAPE  H11R15798   4.323   7.101   9.553  0.0905  0.8297 -0.6817
  144SAPE  C21215799   4.302   7.005   9.376  0.4912  0.1394  0.4395
  144SAPE  H12R15800   4.329   7.097   9.321  0.7697 -0.9717 -1.3556
  144SAPE  C21315801   4.291   6.884   9.284  0.0948 -0.1633 -0.4386
  144SAPE  H13R15802   4.191   6.840   9.304 -0.1775  0.6754  0.0703
  144SAPE  H13S15803   4.369   6.811   9.317  0.2735 -0.6599 -1.9131
  144SAPE  C21415804   4.312   6.915   9.140 -0.0319 -0.4395  0.4340
  144SAPE  H14R15805   4.399   6.980   9.121  0.3332 -1.6116 -2.2272
  144SAPE  C21515806   4.244   6.880   9.031 -0.2745  0.8745  0.2914
  144SAPE  H15R15807   4.290   6.891   8.931  0.5442  0.8568  0.6580
  144SAPE  C21615808   4.125   6.788   9.021  0.7691 -0.2195 -0.3476
  144SAPE  H16R15809   4.082   6.795   9.123  0.6805  4.1706 -0.4912
  144SAPE  H16S15810   4.155   6.685   8.992 -0.7905 -0.9924  0.6374
  144SAPE  C21715811   4.016   6.836   8.933  0.4892 -0.1389 -0.5716
  144SAPE  H17R15812   3.960   6.918   8.982  1.4429  1.7003 -2.3860
  144SAPE  H17S15813   3.928   6.772   8.912 -0.9009  1.4533  0.1139
  144SAPE  C21815814   4.056   6.883   8.791  0.0838 -0.3463 -0.0509
  144SAPE  H18R15815   4.125   6.969   8.805  0.8105 -0.7209 -1.1783
  144SAPE  H18S15816   3.963   6.924   8.745  0.1860 -0.7357 -0.6188
  144SAPE  C21915817   4.120   6.776   8.702 -0.4825 -0.1422  0.3510
  144SAPE  H19R15818   4.201   6.721   8.754  2.0918  3.0285  0.0546
  144SAPE  H19S15819   4.171   6.819   8.613 -0.2947 -1.5425 -0.2392
  144SAPE  C22015820   4.021   6.678   8.638  0.0195 -0.7766 -0.1638
  144SAPE  H20R15821   4.069   6.593   8.583 -0.0557 -0.0424 -1.3907
  144SAPE  H20S15822   3.950   6.731   8.572 -1.0986 -1.9698  0.0406
  144SAPE  H20T15823   3.952   6.639   8.717 -1.6501  2.6874  0.2429
  144SAPE   C3315824   3.633   6.269   9.970  0.9343 -0.7508 -0.1909
  144SAPE   H3X15825   3.533   6.223   9.952 -1.1861  3.0418  0.7637
  144SAPE   H3Y15826   3.714   6.208   9.926  1.1441 -0.6945  0.1155
  144SAPE   C3415827   3.602   6.406   9.902 -1.0378  0.8040 -0.5066
  144SAPE   H4X15828   3.699   6.450   9.870 -0.2719 -0.9849 -0.7204
  144SAPE   H4Y15829   3.553   6.483   9.965 -0.4973 -0.0967  1.0755
  144SAPE   C3515830   3.520   6.394   9.777 -0.6224 -0.6054  0.4588
  144SAPE   H5X15831   3.412   6.380   9.800 -0.4945  0.4647  1.8521
  144SAPE   H5Y15832   3.561   6.308   9.720  0.8237  0.6537 -0.4824
  144SAPE   C3615833   3.536   6.527   9.696  0.2650  0.8350 -0.5214
  144SAPE   H6X15834   3.646   6.529   9.678  0.4839  0.2133  0.6408
  144SAPE   H6Y15835   3.502   6.604   9.768  1.4392  1.2314 -0.3648
  144SAPE   C3715836   3.469   6.531   9.557 -0.8875 -0.2202  0.0818
  144SAPE   H7X15837   3.541   6.485   9.487 -0.1446  0.9956  0.0227
  144SAPE   H7Y15838   3.466   6.640   9.535  2.3186  0.0655  0.5517
  144SAPE   C3815839   3.337   6.456   9.537 -0.3239 -0.2993  0.0572
  144SAPE   H8X15840   3.256   6.500   9.598 -1.4658 -1.4885 -0.5415
  144SAPE   H8Y15841   3.353   6.352   9.573 -1.3848 -0.9004 -1.1241
  144SAPE   C3915842   3.304   6.439   9.387 -0.3175 -0.5431 -0.2613
  144SAPE   H9X15843   3.219   6.367   9.380  0.0182 -0.8536 -1.4471
  144SAPE   H9Y15844   3.381   6.384   9.330 -1.6520 -3.4177  0.5118
  144SAPE  C31015845   3.254   6.563   9.305 -0.4161 -0.3707  0.2879
  144SAPE  H10X15846   3.347   6.620   9.282 -0.9085  0.1256 -0.4835
  144SAPE  H10Y15847   3.184   6.620   9.369  0.4420  0.3999  0.5711
  144SAPE  C31115848   3.205   6.523   9.169 -0.0638 -0.1805 -0.0417
  144SAPE  H11X15849   3.130   6.443   9.187 -0.5937  0.2159 -0.4423
  144SAPE  H11Y15850   3.289   6.483   9.108 -1.5782 -0.7470 -1.8627
  144SAPE  C31215851   3.131   6.638   9.095  0.9290  0.5419 -0.1918
  144SAPE  H12X15852   3.197   6.727   9.099  0.5357  1.0570 -3.0020
  144SAPE  H12Y15853   3.031   6.659   9.140  2.0206  1.2908  2.0644
  144SAPE  C31315854   3.093   6.592   8.956  0.0194  0.2395  0.4887
  144SAPE  H13X15855   3.017   6.668   8.927 -0.2547  0.3297  1.3957
  144SAPE  H13Y15856   3.049   6.490   8.957  0.5030 -0.0812 -2.7414
  144SAPE  C31415857   3.210   6.608   8.858 -0.3762 -0.4252 -0.5136
  144SAPE  H14X15858   3.291   6.552   8.910 -0.8287  0.2507  0.9803
  144SAPE  H14Y15859   3.225   6.718   8.864 -0.6377 -0.4504  0.8626
  144SAPE  C31515860   3.172   6.566   8.717 -0.1622 -0.2427  0.3216
  144SAPE  H15X15861   3.265   6.557   8.657 -1.1488 -0.9578 -1.1605
  144SAPE  H15Y15862   3.110   6.649   8.679  1.3284 -0.0200 -1.7725
  144SAPE  C31615863   3.095   6.430   8.697 -0.7164 -0.4486  0.0896
  144SAPE  H16X15864   2.985   6.427   8.717 -0.6787 -1.7129  0.1446
  144SAPE  H16Y15865   3.138   6.356   8.767 -1.0801 -1.8474 -1.1065
  144SAPE  C31715866   3.116   6.369   8.557 -0.5630  0.0731  0.1793
  144SAPE  H17X15867   3.086   6.262   8.558 -1.7107  0.3900  0.4319
  144SAPE  H17Y15868   3.224   6.376   8.530 -0.5910  0.4334  0.1634
  144SAPE  C31815869   3.023   6.431   8.450 -0.1998 -0.9320 -0.4181
  144SAPE  H18X15870   3.055   6.381   8.356  1.1904 -1.1013  0.1193
  144SAPE  H18Y15871   3.046   6.539   8.436  0.4743 -1.2036 -1.5962
  144SAPE  H18Z15872   2.914   6.414   8.465 -0.1529  0.6998  2.5541
  145SAPE     N15873   6.694   1.003  11.338  0.8182  0.3124 -0.6335
  145SAPE   HN115874   6.780   0.959  11.376  1.8370  1.5907 -1.3720
  145SAPE   HN215875   6.619   0.994  11.410  0.9069 -1.6260 -0.7307
  145SAPE   HN315876   6.668   0.948  11.254  1.5448 -0.7868 -0.1617
  145SAPE   C1215877   6.729   1.143  11.291  0.0993  0.2693  0.0291
  145SAPE  H12A15878   6.761   1.204  11.378 -0.9095  3.2833 -1.5548
  145SAPE  H12B15879   6.634   1.189  11.254  0.3038  0.6249 -0.0558
  145SAPE   C1115880   6.839   1.142  11.180  0.0080  0.0670  0.0286
  145SAPE  H11A15881   6.860   1.250  11.163  1.7113  0.3910  3.3371
  145SAPE  H11B15882   6.808   1.100  11.082 -3.4785 -0.0681  1.0499
  145SAPE     P15883   7.095   1.083  11.162 -0.2108 -0.7367 -0.0505
  145SAPE   O1315884   7.158   1.220  11.186 -0.7415 -0.3588  0.0399
  145SAPE   O1415885   7.170   0.965  11.196  0.1162  0.5029 -0.0081
  145SAPE   O1215886   6.954   1.074  11.230  0.0203 -0.2981  0.5603
  145SAPE   O1115887   7.055   1.089  11.014 -0.7465  0.5889  0.3912
  145SAPE    C115888   7.148   1.131  10.909 -0.5122  0.0827  0.3105
  145SAPE    HA15889   7.197   1.231  10.911  1.1809 -0.6173 -2.0663
  145SAPE    HB15890   7.224   1.051  10.922 -0.8351 -0.3931 -0.5956
  145SAPE    C215891   7.076   1.125  10.777 -0.0781  0.4070  0.8606
  145SAPE    HS15892   7.139   1.173  10.699  0.4838 -2.5419 -0.6780
  145SAPE   O2115893   6.945   1.180  10.779  0.2287  0.7150  0.0744
  145SAPE   C2115894   6.925   1.298  10.837  0.4105  0.0785  0.1693
  145SAPE   O2215895   7.010   1.385  10.861  0.6842  0.0385 -0.4651
  145SAPE   C2215896   6.775   1.317  10.862 -0.2334 -0.2393 -0.2050
  145SAPE   H2R15897   6.717   1.267  10.781 -1.8767  1.2034  0.0239
  145SAPE   H2S15898   6.757   1.269  10.961  1.1502 -0.9763 -0.2827
  145SAPE    C315899   7.072   0.978  10.727 -0.0378 -0.1452 -0.7808
  145SAPE    HX15900   7.037   0.919  10.815  0.4779  0.7872  0.0729
  145SAPE    HY15901   7.175   0.945  10.702 -0.2143 -1.2314 -0.1294
  145SAPE   O3115902   6.987   0.955  10.609  0.3013 -0.0799 -0.2352
  145SAPE   C3115903   7.000   0.830  10.543 -0.7150 -0.7743 -0.0714
  145SAPE   O3215904   7.074   0.739  10.582 -0.0708  0.4716  0.1033
  145SAPE   C3215905   6.901   0.828  10.432  0.3416 -0.4040  0.0027
  145SAPE   H2X15906   6.863   0.931  10.415  1.7109 -0.0173 -0.8296
  145SAPE   H2Y15907   6.811   0.774  10.468 -0.0772  2.4096  3.8396
  145SAPE   C2315908   6.739   1.468  10.844 -0.6578  0.0116 -0.3488
  145SAPE   H3R15909   6.814   1.538  10.886 -1.6535  2.0813 -1.8637
  145SAPE   H3S15910   6.651   1.494  10.908  0.0929 -0.6657  1.0229
  145SAPE   C2415911   6.705   1.520  10.701  0.0246  0.1642 -0.1399
  145SAPE   H4R15912   6.671   1.626  10.700  2.4046  0.9719 -0.0718
  145SAPE   H4S15913   6.627   1.455  10.656  1.4220 -2.1437  0.6385
  145SAPE   C2515914   6.832   1.519  10.608  0.5963 -0.3351  0.0261
  145SAPE   H5R15915   6.917   1.572  10.653 -0.2655  1.2007 -0.0857
  145SAPE   C2615916   6.851   1.472  10.483 -0.0257 -0.6388  0.1358
  145SAPE   H6R15917   6.937   1.505  10.422 -0.5149  0.6796  0.1362
  145SAPE   C2715918   6.747   1.407  10.391 -0.6598  0.2580  0.2248
  145SAPE   H7R15919   6.763   1.464  10.297  5.3613  0.9504  1.2486
  145SAPE   H7S15920   6.654   1.422  10.450  1.8494  1.5445  4.2959
  145SAPE   C2815921   6.759   1.256  10.377 -0.1407  0.0830  0.5736
  145SAPE   H8R15922   6.801   1.203  10.464  0.9625 -3.1712 -1.7263
  145SAPE   C2915923   6.722   1.179  10.275  0.5128  0.2139  0.4881
  145SAPE   H9R15924   6.743   1.071  10.282 -2.1664 -0.6541 -2.5442
  145SAPE  C21015925   6.662   1.215  10.147  0.0611 -0.2527 -0.9949
  145SAPE  H10R15926   6.646   1.325  10.152  1.4951 -0.0925  1.4298
  145SAPE  H10S15927   6.557   1.178  10.149 -0.6099  1.0081  4.9038
  145SAPE  C21115928   6.726   1.190  10.011  0.0390 -0.8667 -0.0963
  145SAPE  H11R15929   6.807   1.261   9.989 -0.1248 -0.4780  0.5400
  145SAPE  C21215930   6.687   1.111   9.909 -0.1738  0.0174 -0.6465
  145SAPE  H12R15931   6.739   1.103   9.812 -0.8312 -1.3571 -0.9028
  145SAPE  C21315932   6.577   1.015   9.927  0.5782 -0.7100 -0.2130
  145SAPE  H13R15933   6.572   0.978  10.031 -1.2307 -1.8969 -0.6788
  145SAPE  H13S15934   6.603   0.929   9.861 -1.2732 -1.5691  0.1388
  145SAPE  C21415935   6.442   1.076   9.882  0.0164  0.1744 -0.0506
  145SAPE  H14R15936   6.405   1.160   9.942 -0.4790 -0.7725  1.0024
  145SAPE  C21515937   6.369   1.047   9.775 -0.2825 -0.2544  0.5756
  145SAPE  H15R15938   6.276   1.102   9.756 -1.7278 -3.1772 -1.7847
  145SAPE  C21615939   6.394   0.941   9.669  0.1450 -0.1808  0.1564
  145SAPE  H16R15940   6.304   0.877   9.661 -0.3382  0.5556 -0.3934
  145SAPE  H16S15941   6.478   0.876   9.703 -1.3311 -1.4607  1.5302
  145SAPE  C21715942   6.419   1.004   9.533  0.3287 -0.1093  0.4162
  145SAPE  H17R15943   6.419   0.924   9.455 -1.5960  0.5684 -0.3418
  145SAPE  H17S15944   6.518   1.053   9.546 -1.6610  4.2724  0.9052
  145SAPE  C21815945   6.325   1.119   9.474 -0.7683  0.4013 -0.2703
  145SAPE  H18R15946   6.364   1.216   9.512 -1.1179 -0.1238  1.5538
  145SAPE  H18S15947   6.223   1.108   9.517  0.2176 -1.3209  1.8043
  145SAPE  C21915948   6.315   1.101   9.325  0.2529  0.1549 -0.0675
  145SAPE  H19R15949   6.286   1.000   9.290  2.9906 -1.1508  1.1591
  145SAPE  H19S15950   6.416   1.126   9.285  0.9305 -0.0077  1.4640
  145SAPE  C22015951   6.207   1.199   9.277 -0.0987 -0.2378 -0.3985
  145SAPE  H20R15952   6.108   1.159   9.307 -1.4306  1.8067 -1.8555
  145SAPE  H20S15953   6.201   1.211   9.167 -1.3885  0.5535 -0.2588
  145SAPE  H20T15954   6.229   1.304   9.306 -1.1484  0.4013 -1.8036
  145SAPE   C3315955   6.959   0.755  10.310 -0.4058 -0.8163 -0.2069
  145SAPE   H3X15956   6.979   0.649  10.336  2.0874 -0.0875  1.2266
  145SAPE   H3Y15957   7.060   0.792  10.279 -1.3288  1.9339 -0.2256
  145SAPE   C3415958   6.882   0.778  10.183  0.0783 -0.0973 -0.4124
  145SAPE   H4X15959   6.886   0.882  10.145 -1.0554  0.7853  1.7386
  145SAPE   H4Y15960   6.778   0.750  10.209  0.8159 -1.1126  1.6727
  145SAPE   C3515961   6.915   0.681  10.073 -0.7980  0.1392  0.0460
  145SAPE   H5X15962   6.946   0.580  10.107 -2.4364 -0.4834 -0.2390
  145SAPE   H5Y15963   7.017   0.716  10.045  0.6537 -2.1329  2.0737
  145SAPE   C3615964   6.825   0.677   9.952 -0.6037  0.4874 -0.3846
  145SAPE   H6X15965   6.794   0.781   9.932  3.4435  1.3581 -3.4066
  145SAPE   H6Y15966   6.729   0.622   9.967 -0.6871  0.8773  0.6084
  145SAPE   C3715967   6.899   0.629   9.823  0.6195 -0.5177 -0.8790
  145SAPE   H7X15968   6.929   0.524   9.841 -0.7105 -0.6978  0.5490
  145SAPE   H7Y15969   6.998   0.678   9.815  0.0503  1.0741  0.9901
  145SAPE   C3815970   6.816   0.657   9.693  0.5929  0.1491  0.1820
  145SAPE   H8X15971   6.805   0.766   9.675  0.0938  0.6004  2.8658
  145SAPE   H8Y15972   6.722   0.600   9.710  1.9628 -1.6629  2.1205
  145SAPE   C3915973   6.869   0.584   9.562  0.4787  1.1849 -0.3727
  145SAPE   H9X15974   6.878   0.475   9.580  0.9265  0.7543 -2.8901
  145SAPE   H9Y15975   6.966   0.628   9.531  0.4553  0.6303 -1.2763
  145SAPE  C31015976   6.793   0.600   9.431  0.6012 -0.1660  0.1967
  145SAPE  H10X15977   6.703   0.534   9.433  1.0318 -0.8664 -1.6954
  145SAPE  H10Y15978   6.852   0.556   9.347  0.1478  1.6685 -1.1417
  145SAPE  C31115979   6.739   0.738   9.398 -0.2271 -0.3958 -0.3015
  145SAPE  H11X15980   6.813   0.808   9.443 -0.4003 -0.4326  0.0399
  145SAPE  H11Y15981   6.645   0.754   9.456 -0.4614 -0.6457 -0.6093
  145SAPE  C31215982   6.729   0.779   9.250  0.0598 -0.4907 -0.5234
  145SAPE  H12X15983   6.656   0.717   9.193 -1.0364  1.0656 -0.8742
  145SAPE  H12Y15984   6.826   0.756   9.201 -0.0526 -1.8784 -0.1353
  145SAPE  C31315985   6.708   0.932   9.231  0.4919  0.3206 -0.4561
  145SAPE  H13X15986   6.781   0.985   9.296 -1.2121  0.5649  1.3720
  145SAPE  H13Y15987   6.610   0.966   9.272  1.0926  1.6032 -0.0166
  145SAPE  C31415988   6.709   0.960   9.079 -0.1460  0.7231  0.4742
  145SAPE  H14X15989   6.629   0.907   9.024  1.0255  0.5246 -1.1086
  145SAPE  H14Y15990   6.806   0.912   9.055 -0.0030  0.9801  0.5333
  145SAPE  C31515991   6.704   1.110   9.033 -0.9005 -0.1545 -0.8592
  145SAPE  H15X15992   6.715   1.105   8.923 -0.0788  1.1395 -0.8654
  145SAPE  H15Y15993   6.798   1.153   9.074  0.0153 -0.4470 -2.5498
  145SAPE  C31615994   6.570   1.176   9.064 -0.1982  0.2766 -0.4399
  145SAPE  H16X15995   6.563   1.195   9.174  1.0550  1.7379 -0.5845
  145SAPE  H16Y15996   6.486   1.114   9.024 -0.5915  0.5134 -0.0011
  145SAPE  C31715997   6.555   1.298   8.977  0.1102  0.3663  0.2047
  145SAPE  H17X15998   6.581   1.284   8.870  0.6985  4.2207 -0.2898
  145SAPE  H17Y15999   6.620   1.380   9.016  4.1270 -1.7252 -1.5318
  145SAPE  C31816000   6.420   1.359   8.972  0.2730  0.0300  0.4512
  145SAPE  H18X16001   6.383   1.387   9.073  0.5869  0.1154  0.5438
  145SAPE  H18Y16002   6.347   1.305   8.909 -0.7658  1.7977  0.0807
  145SAPE  H18Z16003   6.429   1.451   8.910  2.5682  0.3941  1.2217
  146SAPE     N16004   5.844   5.982  10.509  0.4126 -0.0731  0.0920
  146SAPE   HN116005   5.872   6.030  10.598 -4.5275  1.9717  0.9271
  146SAPE   HN216006   5.920   5.984  10.439 -0.6548  0.4995 -1.0829
  146SAPE   HN316007   5.767   6.036  10.465  0.0559 -1.8748 -1.6213
  146SAPE   C1216008   5.792   5.838  10.522 -0.2993 -0.2919  0.5292
  146SAPE  H12A16009   5.876   5.774  10.556  2.0673  1.0194 -2.4009
  146SAPE  H12B16010   5.762   5.811  10.418  1.7587  1.9770 -0.7585
  146SAPE   C1116011   5.674   5.831  10.622  0.1040 -0.4897 -0.1475
  146SAPE  H11A16012   5.601   5.906  10.583  0.2249  0.5303  1.5185
  146SAPE  H11B16013   5.701   5.860  10.726  1.8281  2.0129 -1.1809
  146SAPE     P16014   5.474   5.672  10.669 -0.1410  0.2633 -0.3907
  146SAPE   O1316015   5.453   5.524  10.652 -0.0753 -0.2436 -0.1100
  146SAPE   O1416016   5.459   5.728  10.801 -0.0109  0.5147  0.2997
  146SAPE   O1216017   5.623   5.702  10.621  0.1588  0.2633 -1.2979
  146SAPE   O1116018   5.383   5.749  10.574  0.1813  0.3419  0.7028
  146SAPE    C116019   5.328   5.697  10.453 -0.2570 -0.4938 -0.2834
  146SAPE    HA16020   5.312   5.587  10.458 -0.5054 -0.4142  1.5201
  146SAPE    HB16021   5.228   5.744  10.441  1.7925  3.7384 -3.0841
  146SAPE    C216022   5.403   5.758  10.334  0.4328 -0.4138 -0.8136
  146SAPE    HS16023   5.346   5.748  10.238 -0.3246  0.5488 -0.4883
  146SAPE   O2116024   5.536   5.703  10.330 -0.0250 -0.0627 -0.0040
  146SAPE   C2116025   5.540   5.604  10.253 -0.5067  0.1752  0.2441
  146SAPE   O2216026   5.449   5.545  10.202  0.4730 -0.4723  0.1219
  146SAPE   C2216027   5.687   5.547  10.236 -0.6127  0.6086  0.1287
  146SAPE   H2R16028   5.762   5.620  10.274  0.7570 -1.3806  1.4865
  146SAPE   H2S16029   5.695   5.467  10.313  2.6659 -0.7545 -1.4365
  146SAPE    C316030   5.411   5.904  10.365 -0.7064  0.5513  0.0928
  146SAPE    HX16031   5.496   5.925  10.432 -0.4076  2.3802 -0.7659
  146SAPE    HY16032   5.316   5.945  10.407 -0.4509  1.0431  0.2018
  146SAPE   O3116033   5.435   5.977  10.243  0.7456 -0.1545  0.3145
  146SAPE   C3116034   5.560   6.040  10.235  0.7367  0.1082 -0.0212
  146SAPE   O3216035   5.643   6.049  10.326  0.2395  0.7046 -0.3580
  146SAPE   C3216036   5.583   6.087  10.090 -0.5075 -0.1194  0.1644
  146SAPE   H2X16037   5.634   6.186  10.094 -2.4543  0.9852 -1.0735
  146SAPE   H2Y16038   5.487   6.097  10.037 -2.3065  1.5967  3.4245
  146SAPE   C2316039   5.727   5.501  10.091 -0.6536 -0.3014 -0.9607
  146SAPE   H3R16040   5.711   5.585  10.019  0.8327  0.3049 -0.6173
  146SAPE   H3S16041   5.657   5.418  10.067 -2.0565  0.4201  0.5067
  146SAPE   C2416042   5.872   5.438  10.074 -0.0926  0.8380 -0.5463
  146SAPE   H4R16043   5.941   5.525  10.083  0.3928  0.5008 -1.0010
  146SAPE   H4S16044   5.874   5.393   9.973 -1.7010 -0.6040 -0.0007
  146SAPE   C2516045   5.909   5.331  10.181  0.2806 -0.2644 -0.1910
  146SAPE   H5R16046   5.956   5.376  10.270  1.6743  0.5137 -1.2852
  146SAPE   C2616047   5.881   5.200  10.181 -0.0247 -0.5340 -0.2181
  146SAPE   H6R16048   5.912   5.135  10.264 -1.2736 -0.3045  0.4474
  146SAPE   C2716049   5.807   5.137  10.067  0.5691 -0.2586  0.0621
  146SAPE   H7R16050   5.820   5.194   9.973 -0.4217 -0.2183 -0.0647
  146SAPE   H7S16051   5.699   5.134  10.094  0.6733 -0.5259  0.4666
  146SAPE   C2816052   5.866   5.003  10.031 -0.4192  0.6437 -0.3133
  146SAPE   H8R16053   5.900   4.948  10.120 -0.3055  2.3453  0.7265
  146SAPE   C2916054   5.873   4.935   9.911  0.0607  0.3739 -0.0086
  146SAPE   H9R16055   5.937   4.845   9.906  0.9265  0.8273  1.8584
  146SAPE  C21016056   5.813   4.994   9.786  0.1017 -0.6669  0.2139
  146SAPE  H10R16057   5.876   4.963   9.700 -2.6502 -1.4960 -1.6611
  146SAPE  H10S16058   5.820   5.105   9.785  0.8885 -0.7148  0.0209
  146SAPE  C21116059   5.673   4.947   9.773  0.0021  0.3517  0.1851
  146SAPE  H11R16060   5.621   4.945   9.870  0.2653  0.8841  0.3406
  146SAPE  C21216061   5.619   4.911   9.653  0.3199  0.0818  0.5994
  146SAPE  H12R16062   5.514   4.884   9.635 -0.4349  3.3798 -0.5859
  146SAPE  C21316063   5.697   4.931   9.522  0.2036 -0.1571  0.1927
  146SAPE  H13R16064   5.787   4.867   9.537  0.0469 -0.4344 -0.0480
  146SAPE  H13S16065   5.732   5.036   9.507  0.4882 -0.7071 -4.1262
  146SAPE  C21416066   5.634   4.882   9.395  1.1595  0.3343 -1.2396
  146SAPE  H14R16067   5.557   4.804   9.404 -0.9473  2.4494  0.4853
  146SAPE  C21516068   5.677   4.920   9.275 -0.1141 -0.1134 -0.0982
  146SAPE  H15R16069   5.629   4.879   9.185 -0.7765  1.8111 -0.6650
  146SAPE  C21616070   5.778   5.017   9.237 -0.1248  0.3684  0.5435
  146SAPE  H16R16071   5.812   4.984   9.137  0.0773 -2.4141  1.4508
  146SAPE  H16S16072   5.862   5.022   9.309 -0.5765 -4.3239  1.7405
  146SAPE  C21716073   5.720   5.155   9.232 -0.3313  0.9092  0.4450
  146SAPE  H17R16074   5.802   5.227   9.255  1.4220 -0.3403 -1.5353
  146SAPE  H17S16075   5.647   5.171   9.314 -1.3971  0.1706 -0.3373
  146SAPE  C21816076   5.663   5.190   9.092 -0.4217 -0.3184  0.4687
  146SAPE  H18R16077   5.578   5.124   9.064 -1.2427  1.9490 -2.9192
  146SAPE  H18S16078   5.739   5.190   9.011  1.2995  3.5524  1.8101
  146SAPE  C21916079   5.593   5.327   9.111  0.4789  0.1502  0.2884
  146SAPE  H19R16080   5.661   5.399   9.162 -1.0290 -0.2185  3.0079
  146SAPE  H19S16081   5.510   5.315   9.184 -0.1648 -2.0844 -0.7204
  146SAPE  C22016082   5.555   5.384   8.972  0.5248 -0.2681  0.4104
  146SAPE  H20R16083   5.644   5.388   8.906 -0.2933 -1.5772 -0.8239
  146SAPE  H20S16084   5.506   5.483   8.987 -0.9743 -0.9469  0.1459
  146SAPE  H20T16085   5.471   5.327   8.927  1.3235  0.0466 -1.5913
  146SAPE   C3316086   5.674   5.990  10.003  0.2603  0.2324  0.7777
  146SAPE   H3X16087   5.626   5.890  10.000 -0.0116  0.3583 -1.6555
  146SAPE   H3Y16088   5.779   5.983  10.039  1.0892  0.6593 -1.3534
  146SAPE   C3416089   5.686   6.024   9.856 -0.2910 -0.3078 -0.4505
  146SAPE   H4X16090   5.739   6.122   9.848  1.6744 -1.3894 -1.5463
  146SAPE   H4Y16091   5.589   6.035   9.802  0.1440  0.2631 -1.1458
  146SAPE   C3516092   5.779   5.922   9.786 -0.1175 -0.0200 -0.6834
  146SAPE   H5X16093   5.736   5.820   9.795  0.5049 -0.1120  2.1643
  146SAPE   H5Y16094   5.869   5.904   9.849  1.2309  4.3969 -0.9592
  146SAPE   C3616095   5.817   5.949   9.644 -0.3221 -0.7594  0.0894
  146SAPE   H6X16096   5.888   5.874   9.605 -0.8144 -1.6458  0.8777
  146SAPE   H6Y16097   5.868   6.048   9.635 -0.0764 -0.7524  1.4124
  146SAPE   C3716098   5.693   5.953   9.559  0.5921  0.2940 -0.7394
  146SAPE   H7X16099   5.630   6.038   9.593  3.4363  2.0528  0.4464
  146SAPE   H7Y16100   5.640   5.855   9.569  1.9652 -0.4516 -0.5171
  146SAPE   C3816101   5.734   5.946   9.415  0.0271  0.0104  0.3307
  146SAPE   H8X16102   5.767   5.844   9.384  0.6386  0.3976 -0.3007
  146SAPE   H8Y16103   5.822   6.013   9.406 -0.1841  0.0955 -1.4952
  146SAPE   C3916104   5.607   5.973   9.328 -0.0741  0.5129  0.0276
  146SAPE   H9X16105   5.567   6.076   9.335 -0.1661  0.3898  2.0688
  146SAPE   H9Y16106   5.532   5.903   9.370  1.3757 -0.7113  0.6866
  146SAPE  C31016107   5.626   5.949   9.176  0.1969  0.3839 -0.2911
  146SAPE  H10X16108   5.669   5.849   9.152  0.0048  0.3107 -0.3315
  146SAPE  H10Y16109   5.704   6.027   9.163  1.1932 -0.0557  2.4200
  146SAPE  C31116110   5.494   5.963   9.104 -0.0664 -0.6780  0.3956
  146SAPE  H11X16111   5.442   6.059   9.120  0.0190 -0.4488 -0.5982
  146SAPE  H11Y16112   5.431   5.883   9.149  0.2695 -1.4033 -0.3787
  146SAPE  C31216113   5.508   5.942   8.956  0.2060 -0.3594  0.4722
  146SAPE  H12X16114   5.555   5.845   8.933  2.3038  1.2396 -2.6144
  146SAPE  H12Y16115   5.580   6.012   8.909  0.3656 -0.0438  1.1687
  146SAPE  C31316116   5.372   5.951   8.894  0.6159 -0.3136  0.5090
  146SAPE  H13X16117   5.386   5.974   8.786  1.9614 -0.0127  0.7262
  146SAPE  H13Y16118   5.327   6.045   8.933  1.0888  0.5341 -0.9079
  146SAPE  C31416119   5.282   5.828   8.926  0.0252  0.2331 -0.2012
  146SAPE  H14X16120   5.274   5.812   9.036 -0.2636 -2.0824 -0.5159
  146SAPE  H14Y16121   5.339   5.742   8.884 -0.5728  0.0035 -0.5564
  146SAPE  C31516122   5.160   5.846   8.849 -0.2962 -0.0379  0.5413
  146SAPE  H15X16123   5.181   5.835   8.740  0.2454  2.6357  0.3149
  146SAPE  H15Y16124   5.121   5.950   8.851  1.0617  0.5124 -0.3090
  146SAPE  C31616125   5.030   5.784   8.899  0.2042 -0.4851 -0.3168
  146SAPE  H16X16126   5.052   5.675   8.901  2.1172 -0.1324 -0.2859
  146SAPE  H16Y16127   4.949   5.797   8.825 -3.2193 -0.1526  3.1645
  146SAPE  C31716128   4.987   5.829   9.040 -1.1990 -0.2469 -0.3795
  146SAPE  H17X16129   4.968   5.938   9.047 -2.1570 -0.4696  0.7646
  146SAPE  H17Y16130   5.060   5.812   9.122 -2.9282  0.2762  1.3328
  146SAPE  C31816131   4.865   5.743   9.085  0.1166 -0.1869 -0.4035
  146SAPE  H18X16132   4.893   5.637   9.074 -0.3340 -0.4434  0.7658
  146SAPE  H18Y16133   4.788   5.747   9.006  0.7513  1.2071 -0.9911
  146SAPE  H18Z16134   4.827   5.761   9.188 -0.0226 -2.7387  0.0491
  147SAPE     N16135   5.917   3.493   6.581 -0.2088  0.2012 -0.4504
  147SAPE   HN116136   5.863   3.486   6.670  0.1299  2.2150 -0.0206
  147SAPE   HN216137   5.985   3.414   6.582  1.0563  1.2349  0.6744
  147SAPE   HN316138   5.977   3.579   6.582 -0.9053  0.6944  0.2169
  147SAPE   C1216139   5.830   3.475   6.462 -0.0283 -0.1239  0.8035
  147SAPE  H12A16140   5.794   3.578   6.444  2.0523  0.2369 -1.9206
  147SAPE  H12B16141   5.766   3.386   6.479 -0.3792 -0.2269 -0.9451
  147SAPE   C1116142   5.911   3.433   6.335  0.2298 -0.6499 -0.6520
  147SAPE  H11A16143   5.987   3.508   6.304 -0.3817 -0.1289 -0.9136
  147SAPE  H11B16144   5.844   3.423   6.247 -0.6122  0.1593 -0.1231
  147SAPE     P16145   5.941   3.166   6.314 -0.0035  0.0365 -0.2919
  147SAPE   O1316146   5.817   3.113   6.375  0.0616 -0.3701 -0.5863
  147SAPE   O1416147   5.942   3.170   6.170  0.0262 -0.0927  0.2008
  147SAPE   O1216148   5.984   3.312   6.371  0.0298  0.1107  0.7189
  147SAPE   O1116149   6.065   3.070   6.342  0.1775 -0.6323  0.2399
  147SAPE    C116150   6.180   3.112   6.396 -0.4987 -0.0104 -0.1685
  147SAPE    HA16151   6.264   3.045   6.368  0.1943  0.7434  0.0762
  147SAPE    HB16152   6.201   3.214   6.359  1.6878 -0.2372  0.2881
  147SAPE    C216153   6.162   3.105   6.551  0.6394  0.7533  0.4652
  147SAPE    HS16154   6.059   3.132   6.585 -0.6722 -0.6267 -2.0938
  147SAPE   O2116155   6.273   3.177   6.602  0.1391  0.1511 -0.2928
  147SAPE   C2116156   6.238   3.294   6.656  0.0866  0.1940  0.5364
  147SAPE   O2216157   6.125   3.343   6.646 -0.6473  0.7723  0.5362
  147SAPE   C2216158   6.349   3.358   6.740 -0.3854 -0.4012 -0.1973
  147SAPE   H2R16159   6.350   3.302   6.836  1.5800 -1.7644 -0.9443
  147SAPE   H2S16160   6.449   3.334   6.697 -0.0487 -1.3195  1.0260
  147SAPE    C316161   6.159   2.959   6.592  0.2847 -0.2930 -0.8617
  147SAPE    HX16162   6.253   2.913   6.557  1.4474  0.6358  0.9081
  147SAPE    HY16163   6.077   2.900   6.545 -1.8045  1.3664  0.4832
  147SAPE   O3116164   6.153   2.951   6.740  0.7227 -0.4880  0.0651
  147SAPE   C3116165   6.035   2.936   6.785  0.7771 -0.2507  0.4672
  147SAPE   O3216166   5.931   2.950   6.721  0.3488 -0.3240 -0.5442
  147SAPE   C3216167   6.035   2.904   6.935  0.0801  0.3102 -0.1960
  147SAPE   H2X16168   6.091   2.810   6.948  0.1598  0.4366  0.4120
  147SAPE   H2Y16169   5.929   2.894   6.968 -0.6668 -0.0776 -2.4892
  147SAPE   C2316170   6.340   3.511   6.771  0.3536 -0.0624  0.8547
  147SAPE   H3R16171   6.243   3.548   6.811  1.0771  0.6063  2.0655
  147SAPE   H3S16172   6.369   3.572   6.683 -1.2896 -0.9118 -0.3357
  147SAPE   C2416173   6.444   3.543   6.880  0.0233 -0.0801  0.1377
  147SAPE   H4R16174   6.444   3.475   6.968 -0.9276  0.3082  0.4433
  147SAPE   H4S16175   6.419   3.639   6.930 -1.2045 -1.1270  1.6271
  147SAPE   C2516176   6.581   3.546   6.811 -0.1332 -0.0993  0.2587
  147SAPE   H5R16177   6.576   3.555   6.702  0.1449  1.3862  0.3447
  147SAPE   C2616178   6.707   3.534   6.856 -0.1846 -0.2485 -0.5457
  147SAPE   H6R16179   6.791   3.519   6.787 -0.2850 -0.2720 -0.6637
  147SAPE   C2716180   6.743   3.536   7.001  0.3073 -1.2638 -0.7106
  147SAPE   H7R16181   6.847   3.499   7.014  1.4987  1.9002 -0.3161
  147SAPE   H7S16182   6.672   3.468   7.054  1.4405 -1.2923  0.8584
  147SAPE   C2816183   6.737   3.676   7.067  0.3415  0.4122 -0.2513
  147SAPE   H8R16184   6.635   3.719   7.066  0.3269  0.5288 -3.2799
  147SAPE   C2916185   6.839   3.744   7.122 -0.0738  0.4320  0.5693
  147SAPE   H9R16186   6.805   3.846   7.147 -0.6553  1.3882 -3.4524
  147SAPE  C21016187   6.986   3.715   7.138 -0.1845 -0.6047 -0.0604
  147SAPE  H10R16188   7.024   3.624   7.088 -0.4533 -0.4534 -0.5432
  147SAPE  H10S16189   7.004   3.700   7.247  0.9185 -0.4470 -0.2028
  147SAPE  C21116190   7.087   3.807   7.074 -0.0538  0.5950  0.4797
  147SAPE  H11R16191   7.091   3.788   6.966 -1.2658 -0.8779  0.6721
  147SAPE  C21216192   7.157   3.911   7.133 -0.8642  0.1771 -0.7158
  147SAPE  H12R16193   7.223   3.977   7.076  0.7209  0.7938  1.6935
  147SAPE  C21316194   7.155   3.957   7.279 -0.3014 -0.1300 -0.5782
  147SAPE  H13R16195   7.076   3.897   7.330 -0.5988  1.2793  0.6898
  147SAPE  H13S16196   7.127   4.064   7.269  1.6296  0.3124 -1.8550
  147SAPE  C21416197   7.285   3.941   7.356 -0.2433  0.0463  0.6012
  147SAPE  H14R16198   7.333   3.841   7.356  0.3784  0.3325  0.0378
  147SAPE  C21516199   7.349   4.039   7.420  0.2723 -0.4065 -0.4640
  147SAPE  H15R16200   7.426   4.006   7.491 -0.3488 -0.1941  0.3311
  147SAPE  C21616201   7.315   4.187   7.422  0.2952  0.1465  0.6941
  147SAPE  H16R16202   7.234   4.216   7.351 -0.5458 -3.5227 -0.0647
  147SAPE  H16S16203   7.409   4.237   7.392  0.5848 -2.0846 -2.6542
  147SAPE  C21716204   7.282   4.222   7.565  0.6044 -0.4321 -0.1766
  147SAPE  H17R16205   7.286   4.332   7.553 -0.9669 -0.4865 -1.4012
  147SAPE  H17S16206   7.353   4.194   7.646 -1.9465 -3.4882  1.2327
  147SAPE  C21816207   7.142   4.199   7.618  0.1977  0.4179 -0.5858
  147SAPE  H18R16208   7.128   4.099   7.666  0.0068  0.9537  0.5247
  147SAPE  H18S16209   7.078   4.201   7.528 -1.3306 -1.4636  0.3630
  147SAPE  C21916210   7.094   4.316   7.710 -0.7205 -0.4664 -0.1281
  147SAPE  H19R16211   6.990   4.288   7.738 -0.1133 -0.8747  1.8697
  147SAPE  H19S16212   7.097   4.408   7.648  1.2644  0.7845  1.7165
  147SAPE  C22016213   7.178   4.332   7.843  0.1168 -0.4348  0.1416
  147SAPE  H20R16214   7.283   4.349   7.811  0.6524 -0.5306  1.7310
  147SAPE  H20S16215   7.172   4.243   7.909 -0.0722 -1.7627 -1.5914
  147SAPE  H20T16216   7.138   4.419   7.899  1.7948  0.2193  0.3725
  147SAPE   C3316217   6.100   3.005   7.030 -0.3161 -0.3295 -0.2211
  147SAPE   H3X16218   6.055   3.105   7.014  1.0542  0.2100 -0.8378
  147SAPE   H3Y16219   6.208   3.014   7.007 -0.3634 -0.1525 -0.3680
  147SAPE   C3416220   6.095   2.944   7.174 -0.6246 -0.2551  1.0563
  147SAPE   H4X16221   6.195   2.963   7.219  1.7674 -3.8022 -2.0731
  147SAPE   H4Y16222   6.072   2.837   7.155 -1.9419  0.2708 -0.5937
  147SAPE   C3516223   5.988   3.009   7.262 -0.0369  0.0228  0.0758
  147SAPE   H5X16224   5.896   3.009   7.199  0.9471  0.0589 -1.4292
  147SAPE   H5Y16225   6.011   3.116   7.276 -0.5689 -0.0775  1.9911
  147SAPE   C3616226   5.959   2.923   7.387  0.5786 -0.4601 -0.3577
  147SAPE   H6X16227   6.059   2.903   7.430  0.2672 -1.2868  0.0011
  147SAPE   H6Y16228   5.916   2.832   7.340  1.2546 -0.0005 -1.9743
  147SAPE   C3716229   5.872   2.990   7.491 -0.3785  0.1389 -0.5481
  147SAPE   H7X16230   5.775   3.020   7.446 -0.3290  2.8303  0.8962
  147SAPE   H7Y16231   5.924   3.086   7.514 -2.3027  0.6260  2.2907
  147SAPE   C3816232   5.858   2.910   7.624  0.1602 -0.1717 -0.1248
  147SAPE   H8X16233   5.815   2.810   7.601 -0.6332  0.5317 -1.9472
  147SAPE   H8Y16234   5.777   2.956   7.685  1.4230  1.1679  0.5888
  147SAPE   C3916235   5.989   2.909   7.706 -0.4346  0.2179  0.3122
  147SAPE   H9X16236   6.079   2.887   7.645  0.5303 -1.7228  2.3316
  147SAPE   H9Y16237   5.971   2.833   7.785 -1.7835 -0.7214 -0.8475
  147SAPE  C31016238   6.014   3.040   7.775  0.4146 -0.3723  0.3938
  147SAPE  H10X16239   5.922   3.057   7.834 -0.4322 -2.7660 -0.1019
  147SAPE  H10Y16240   6.026   3.119   7.698  0.0310 -1.5529 -0.9372
  147SAPE  C31116241   6.133   3.036   7.863 -0.6604 -0.0256 -0.6338
  147SAPE  H11X16242   6.183   3.136   7.865 -1.7060  0.5039 -0.3249
  147SAPE  H11Y16243   6.209   2.971   7.815  0.4648  0.7645  0.0237
  147SAPE  C31216244   6.120   2.988   8.004  0.2489  0.1166 -0.8517
  147SAPE  H12X16245   6.059   2.895   8.004 -2.9384  2.0462  0.8883
  147SAPE  H12Y16246   6.053   3.063   8.050 -2.1395 -1.9400 -0.7567
  147SAPE  C31316247   6.244   2.955   8.077  0.1898  0.2217  0.3195
  147SAPE  H13X16248   6.308   3.044   8.091  0.3333  0.2341 -0.3590
  147SAPE  H13Y16249   6.301   2.874   8.026  1.2886  0.9346  0.3786
  147SAPE  C31416250   6.223   2.895   8.222 -0.3840 -0.9296 -0.3261
  147SAPE  H14X16251   6.163   2.804   8.202  0.2622 -1.3143 -0.5338
  147SAPE  H14Y16252   6.154   2.956   8.285 -0.8717 -0.7211 -1.0488
  147SAPE  C31516253   6.361   2.857   8.286 -0.1690 -0.5912 -0.2250
  147SAPE  H15X16254   6.407   2.955   8.310 -0.2012 -0.4982 -0.5370
  147SAPE  H15Y16255   6.424   2.807   8.209 -2.3726 -1.2080 -1.7488
  147SAPE  C31616256   6.356   2.764   8.406 -0.2568  0.0776  0.0520
  147SAPE  H16X16257   6.443   2.696   8.399 -1.5000 -1.5945 -0.0292
  147SAPE  H16Y16258   6.256   2.717   8.391 -1.0197  1.9536 -1.0336
  147SAPE  C31716259   6.356   2.844   8.535  0.0316  0.2720 -1.2159
  147SAPE  H17X16260   6.257   2.893   8.544  0.8661  1.6731  0.9532
  147SAPE  H17Y16261   6.431   2.923   8.516  0.3761 -0.2696 -2.1772
  147SAPE  C31816262   6.388   2.768   8.669  0.4427  0.3431 -0.0005
  147SAPE  H18X16263   6.378   2.844   8.750  0.5556  1.5349 -1.0834
  147SAPE  H18Y16264   6.489   2.721   8.671  0.2086 -0.2054  2.0151
  147SAPE  H18Z16265   6.308   2.691   8.682 -0.0995  0.4027 -2.5217
  148SAPE     N16266   0.266   1.835   6.467  0.4408  0.4624  0.7930
  148SAPE   HN116267   0.339   1.863   6.397  0.2983 -0.4029  0.2857
  148SAPE   HN216268   0.180   1.885   6.438 -2.1563 -2.8873  2.1416
  148SAPE   HN316269   0.295   1.881   6.555  2.5349  1.3531 -0.2679
  148SAPE   C1216270   0.228   1.686   6.468 -0.0608 -0.2913  0.0747
  148SAPE  H12A16271   0.317   1.620   6.469 -0.7474 -1.2385 -0.2182
  148SAPE  H12B16272   0.170   1.663   6.376 -0.5605 -3.5266  1.0838
  148SAPE   C1116273   0.123   1.651   6.580 -0.0210  0.0133 -0.3371
  148SAPE  H11A16274   0.185   1.645   6.672  0.6936 -1.0924 -0.8768
  148SAPE  H11B16275   0.087   1.550   6.552  1.4866 -0.6131 -0.1206
  148SAPE     P16276  -0.062   1.790   6.717  0.5718 -0.2132 -0.0937
  148SAPE   O1316277  -0.047   1.937   6.731  0.5637  0.1338  0.7863
  148SAPE   O1416278  -0.198   1.734   6.684 -0.5751  0.0701  0.3156
  148SAPE   O1216279   0.026   1.748   6.591  0.4320 -0.0227  0.7963
  148SAPE   O1116280   0.000   1.727   6.844 -0.2234  0.2023 -0.2885
  148SAPE    C116281  -0.025   1.591   6.886 -0.0075 -0.4475  0.1762
  148SAPE    HA16282  -0.018   1.522   6.799  4.3010  0.5584 -0.5113
  148SAPE    HB16283   0.061   1.567   6.952 -0.0010  0.2222  0.4216
  148SAPE    C216284  -0.156   1.581   6.965 -0.2869  1.3040  1.0351
  148SAPE    HS16285  -0.238   1.620   6.901 -1.1707  0.2094  1.4580
  148SAPE   O2116286  -0.152   1.663   7.091 -0.6415 -0.4561  0.7704
  148SAPE   C2116287  -0.223   1.773   7.092  0.1219  0.3910  0.0930
  148SAPE   O2216288  -0.302   1.809   7.009  0.2792  0.7319  0.2521
  148SAPE   C2216289  -0.199   1.841   7.223  0.3158 -1.2085 -0.0791
  148SAPE   H2R16290  -0.088   1.854   7.226  0.3455 -0.5009 -2.5582
  148SAPE   H2S16291  -0.239   1.944   7.217 -3.3429 -2.5171 -0.9560
  148SAPE    C316292  -0.186   1.432   7.004 -0.0613  0.4848 -0.3210
  148SAPE    HX16293  -0.100   1.412   7.072 -2.3485  0.2043  2.7381
  148SAPE    HY16294  -0.187   1.368   6.914  0.0827  0.0630 -0.0244
  148SAPE   O3116295  -0.310   1.420   7.088 -0.5836 -0.0939  0.2623
  148SAPE   C3116296  -0.427   1.384   7.033 -0.2603 -0.5587 -0.2348
  148SAPE   O3216297  -0.449   1.363   6.920 -0.2290  1.1597  0.2132
  148SAPE   C3216298  -0.524   1.363   7.152 -0.5108  0.0718  0.6390
  148SAPE   H2X16299  -0.570   1.264   7.134 -0.8285  0.2917  0.2532
  148SAPE   H2Y16300  -0.599   1.443   7.142 -0.0519  0.1936 -2.8884
  148SAPE   C2316301  -0.254   1.780   7.354 -0.5850  0.0807 -0.1692
  148SAPE   H3R16302  -0.198   1.833   7.434 -1.2094  2.1311 -1.0171
  148SAPE   H3S16303  -0.240   1.670   7.349 -1.3412 -0.0468  0.3113
  148SAPE   C2416304  -0.405   1.800   7.374 -0.0072  0.0221  0.0134
  148SAPE   H4R16305  -0.458   1.738   7.298  0.3455 -0.4720  0.1666
  148SAPE   H4S16306  -0.438   1.906   7.372  0.5162  0.2378  1.4837
  148SAPE   C2516307  -0.440   1.742   7.511  0.3204  0.2873  0.6391
  148SAPE   H5R16308  -0.456   1.633   7.506  1.3297  0.1649 -0.3301
  148SAPE   C2616309  -0.452   1.807   7.627  1.2931  0.2886 -0.4963
  148SAPE   H6R16310  -0.480   1.743   7.712  0.5978 -2.0712 -2.4068
  148SAPE   C2716311  -0.437   1.955   7.649 -1.1576  0.2098 -0.1972
  148SAPE   H7R16312  -0.434   2.013   7.554 -1.7693 -0.1547 -0.4404
  148SAPE   H7S16313  -0.336   1.967   7.695 -0.2905 -1.6818 -1.4667
  148SAPE   C2816314  -0.529   2.027   7.745  0.1830  0.2433  0.2121
  148SAPE   H8R16315  -0.601   2.094   7.695 -0.1472  1.9858  2.7530
  148SAPE   C2916316  -0.543   2.024   7.876  0.7205 -0.0209 -0.0016
  148SAPE   H9R16317  -0.609   2.098   7.925  1.6443  0.4859  0.5056
  148SAPE  C21016318  -0.468   1.940   7.981 -0.6122  0.0551  0.1157
  148SAPE  H10R16319  -0.385   1.883   7.934  1.4114  1.6290  1.5781
  148SAPE  H10S16320  -0.534   1.864   8.029  0.5884  0.0405  1.8315
  148SAPE  C21116321  -0.416   2.036   8.089 -0.8752 -0.1712  0.2252
  148SAPE  H11R16322  -0.387   2.135   8.051 -1.2428 -0.3569 -0.5732
  148SAPE  C21216323  -0.400   2.002   8.216  0.2540 -0.0901 -0.3421
  148SAPE  H12R16324  -0.385   2.081   8.291 -0.1205 -0.9329  0.6376
  148SAPE  C21316325  -0.440   1.867   8.270  0.2488  0.3204 -0.1732
  148SAPE  H13R16326  -0.436   1.789   8.191  2.1273 -0.5446  0.7178
  148SAPE  H13S16327  -0.545   1.868   8.307  0.6243 -4.1475  1.6376
  148SAPE  C21416328  -0.353   1.816   8.379 -0.5723 -0.1648  0.2130
  148SAPE  H14R16329  -0.268   1.765   8.332 -0.5160  0.7772 -0.7473
  148SAPE  C21516330  -0.372   1.823   8.514 -0.7107  0.6094 -0.1907
  148SAPE  H15R16331  -0.295   1.786   8.583 -1.5733  0.9314  0.9800
  148SAPE  C21616332  -0.487   1.872   8.593  0.8319 -0.0687 -0.4679
  148SAPE  H16R16333  -0.543   1.794   8.650  1.6307  0.1298  0.6265
  148SAPE  H16S16334  -0.554   1.924   8.521  0.1047  1.9632  1.5480
  148SAPE  C21716335  -0.428   1.954   8.708 -0.1536 -0.1088 -0.1194
  148SAPE  H17R16336  -0.409   2.050   8.657  0.4378 -0.3792 -0.4201
  148SAPE  H17S16337  -0.336   1.909   8.753 -0.8739 -0.8406  0.6709
  148SAPE  C21816338  -0.513   1.994   8.821  1.3867 -0.4170  0.1554
  148SAPE  H18R16339  -0.573   1.911   8.866 -1.8355  1.3071 -0.6197
  148SAPE  H18S16340  -0.593   2.067   8.796  2.6050  0.8821 -0.0519
  148SAPE  C21916341  -0.446   2.062   8.934  0.0965 -0.6878  0.1936
  148SAPE  H19R16342  -0.400   2.152   8.888  0.7060  0.9174  3.6146
  148SAPE  H19S16343  -0.363   1.999   8.972  0.1949 -1.6527 -1.5315
  148SAPE  C22016344  -0.549   2.101   9.038 -0.0520 -0.7545  0.6922
  148SAPE  H20R16345  -0.515   2.190   9.095  0.4412 -0.5545  0.0924
  148SAPE  H20S16346  -0.548   2.016   9.110 -0.2635 -1.2131  0.1626
  148SAPE  H20T16347  -0.648   2.136   9.002  0.2293 -0.6909 -0.0291
  148SAPE   C3316348  -0.456   1.369   7.293 -0.3961  0.0829  0.1396
  148SAPE   H3X16349  -0.434   1.473   7.322  1.7820 -0.5537  0.9269
  148SAPE   H3Y16350  -0.366   1.303   7.293 -1.5743 -1.6036  0.3709
  148SAPE   C3416351  -0.547   1.326   7.405 -0.1312 -0.3400 -0.4778
  148SAPE   H4X16352  -0.588   1.226   7.378  0.6826 -0.0153 -3.1989
  148SAPE   H4Y16353  -0.631   1.398   7.416  0.8813  0.7305  0.5973
  148SAPE   C3516354  -0.481   1.323   7.546 -0.5420 -0.6044 -0.1751
  148SAPE   H5X16355  -0.396   1.394   7.548  0.5399 -1.8487  1.8842
  148SAPE   H5Y16356  -0.427   1.229   7.569 -2.1576 -1.4796  0.1991
  148SAPE   C3616357  -0.590   1.337   7.646 -0.2170 -0.4490  0.0088
  148SAPE   H6X16358  -0.676   1.272   7.621 -0.2071 -0.4958  0.0955
  148SAPE   H6Y16359  -0.639   1.436   7.637 -0.6770 -0.7404 -0.8363
  148SAPE   C3716360  -0.550   1.324   7.792  0.0920  0.4629  0.0644
  148SAPE   H7X16361  -0.524   1.216   7.805 -0.3028  0.1302 -1.5930
  148SAPE   H7Y16362  -0.642   1.335   7.853  0.7165  0.7599  0.9658
  148SAPE   C3816363  -0.435   1.416   7.838 -0.3242  0.5330 -0.0416
  148SAPE   H8X16364  -0.451   1.525   7.823  0.9404  1.2504  3.0537
  148SAPE   H8Y16365  -0.335   1.408   7.791 -0.4486  0.7732 -0.3498
  148SAPE   C3916366  -0.422   1.383   7.982 -0.9931 -0.2076 -1.5250
  148SAPE   H9X16367  -0.367   1.288   8.000 -0.4710  0.2461 -0.6946
  148SAPE   H9Y16368  -0.524   1.379   8.027 -0.4388 -0.7029 -0.2376
  148SAPE  C31016369  -0.332   1.481   8.064 -0.2487 -0.4554 -0.2534
  148SAPE  H10X16370  -0.373   1.584   8.061  0.6570 -0.1105 -1.6082
  148SAPE  H10Y16371  -0.237   1.494   8.008 -0.7182 -0.2085 -1.0062
  148SAPE  C31116372  -0.307   1.438   8.213 -0.9856 -0.2851  1.0220
  148SAPE  H11X16373  -0.228   1.508   8.248 -1.2117 -0.2053  1.3822
  148SAPE  H11Y16374  -0.260   1.338   8.210  0.5124  0.3727 -2.2745
  148SAPE  C31216375  -0.428   1.451   8.302  0.1111  0.6047  0.1620
  148SAPE  H12X16376  -0.483   1.357   8.280  0.5147  0.3505  0.2299
  148SAPE  H12Y16377  -0.500   1.533   8.282 -1.6833 -0.1972  2.7299
  148SAPE  C31316378  -0.385   1.452   8.450  0.1381 -0.0151 -0.6699
  148SAPE  H13X16379  -0.322   1.543   8.461  1.9786 -1.2036 -1.0261
  148SAPE  H13Y16380  -0.309   1.375   8.472 -0.9239 -0.6852  0.8236
  148SAPE  C31416381  -0.502   1.453   8.551 -0.8640 -0.0663 -0.4723
  148SAPE  H14X16382  -0.593   1.513   8.532 -1.8893 -1.6194 -0.6803
  148SAPE  H14Y16383  -0.459   1.485   8.649  0.9942  0.4684 -1.4211
  148SAPE  C31516384  -0.550   1.307   8.577  0.3234 -1.1676  0.5750
  148SAPE  H15X16385  -0.463   1.259   8.627 -0.5670 -1.2447  2.1060
  148SAPE  H15Y16386  -0.574   1.249   8.485  0.3849  0.8809 -0.7988
  148SAPE  C31616387  -0.665   1.310   8.668 -0.4862  0.3405 -0.3035
  148SAPE  H16X16388  -0.663   1.405   8.725 -1.4083 -0.2822  0.8047
  148SAPE  H16Y16389  -0.665   1.221   8.734 -0.0561  0.1231 -0.5882
  148SAPE  C31716390  -0.797   1.314   8.592  0.7801 -0.4824  0.5469
  148SAPE  H17X16391  -0.801   1.219   8.534 -0.8726  0.5983 -1.2059
  148SAPE  H17Y16392  -0.804   1.399   8.521  1.3811 -0.1358  0.8911
  148SAPE  C31816393  -0.915   1.318   8.679 -0.0881 -0.4074 -0.6459
  148SAPE  H18X16394  -1.008   1.300   8.621 -0.8413  2.6346 -0.5421
  148SAPE  H18Y16395  -0.930   1.418   8.724  2.3734 -0.1208 -0.3444
  148SAPE  H18Z16396  -0.904   1.252   8.768  0.3834  1.5921  0.8373
  149SAPE     N16397   0.898   3.277   6.282 -0.0449 -0.2444  0.3674
  149SAPE   HN116398   0.919   3.199   6.348  1.9135 -0.4390 -0.4197
  149SAPE   HN216399   0.916   3.364   6.336  0.4552 -0.9784  1.4173
  149SAPE   HN316400   0.798   3.269   6.254  0.4690 -3.0237 -1.0850
  149SAPE   C1216401   0.991   3.262   6.165  0.2183  0.1222  0.2395
  149SAPE  H12A16402   1.047   3.355   6.145  1.0385 -0.6654 -1.3150
  149SAPE  H12B16403   0.918   3.250   6.082 -0.9600 -1.4251  1.4401
  149SAPE   C1116404   1.068   3.135   6.165  1.1280  0.2621  0.2386
  149SAPE  H11A16405   1.116   3.133   6.065  1.6754 -1.2985  0.4979
  149SAPE  H11B16406   0.998   3.048   6.163 -0.1759  1.2348  1.5187
  149SAPE     P16407   1.249   3.012   6.320  0.3511 -0.2104  0.3395
  149SAPE   O1316408   1.324   2.950   6.209 -0.2544 -0.5294  0.2162
  149SAPE   O1416409   1.321   3.051   6.435 -0.4301 -0.4467  0.2241
  149SAPE   O1216410   1.169   3.130   6.266 -0.2194  0.7137  0.0943
  149SAPE   O1116411   1.123   2.929   6.364 -0.1386  0.1787 -0.0129
  149SAPE    C116412   1.039   2.961   6.470  0.1739  0.0587  0.3084
  149SAPE    HA16413   1.008   3.067   6.462 -1.8359 -0.4399  0.9764
  149SAPE    HB16414   0.948   2.899   6.464  0.7954 -0.9215  0.6350
  149SAPE    C216415   1.093   2.942   6.618 -0.8697 -0.0005  1.0487
  149SAPE    HS16416   1.190   2.997   6.619 -1.2365  0.6530  0.6571
  149SAPE   O2116417   1.105   2.803   6.648  0.3322 -0.4573 -0.1231
  149SAPE   C2116418   1.195   2.770   6.738 -0.4742 -0.5071  0.1379
  149SAPE   O2216419   1.284   2.843   6.780 -0.3223  0.4004  0.0613
  149SAPE   C2216420   1.193   2.631   6.768  0.2144  0.6789  0.4493
  149SAPE   H2R16421   1.099   2.600   6.818 -0.6896  0.0796 -1.5262
  149SAPE   H2S16422   1.210   2.586   6.668  0.7823  0.5622  0.5958
  149SAPE    C316423   0.998   3.000   6.724  0.1779 -0.1903 -0.7028
  149SAPE    HX16424   0.907   2.936   6.727 -0.3009  0.5168  0.2274
  149SAPE    HY16425   0.982   3.102   6.686  0.5926  0.3413  0.4840
  149SAPE   O3116426   1.060   3.020   6.855 -0.1126 -0.1658  0.7590
  149SAPE   C3116427   0.982   3.058   6.956  0.2754 -0.8433 -0.5782
  149SAPE   O3216428   0.865   3.085   6.957  0.5747 -0.8392 -0.2278
  149SAPE   C3216429   1.062   3.070   7.083 -0.7547  0.0305  0.3711
  149SAPE   H2X16430   1.162   3.102   7.046 -1.6673  0.4219 -1.9715
  149SAPE   H2Y16431   1.070   2.967   7.123 -2.1968 -0.0583  0.5048
  149SAPE   C2316432   1.306   2.567   6.860  0.5939  0.3552 -0.4452
  149SAPE   H3R16433   1.406   2.609   6.834  1.5232 -0.2563  1.8321
  149SAPE   H3S16434   1.314   2.460   6.830  0.7885  0.6637 -1.5319
  149SAPE   C2416435   1.279   2.570   7.010  0.1114 -0.4169 -0.1987
  149SAPE   H4R16436   1.369   2.522   7.055  1.7815  1.1379 -1.6797
  149SAPE   H4S16437   1.199   2.499   7.041 -0.2835  0.3364  0.5452
  149SAPE   C2516438   1.260   2.701   7.085 -0.6295  0.2763  0.0023
  149SAPE   H5R16439   1.250   2.793   7.026 -0.5726  0.5042  0.3429
  149SAPE   C2616440   1.251   2.724   7.220 -0.1695 -0.2407 -0.2396
  149SAPE   H6R16441   1.264   2.829   7.252  3.1673 -0.7987  0.6317
  149SAPE   C2716442   1.253   2.613   7.325  0.2687 -0.2524  1.1830
  149SAPE   H7R16443   1.360   2.597   7.347  1.4550  1.2496 -2.6287
  149SAPE   H7S16444   1.197   2.527   7.284  0.6429  0.2859 -0.5267
  149SAPE   C2816445   1.170   2.656   7.446 -0.1776  0.3959  0.8613
  149SAPE   H8R16446   1.076   2.704   7.416 -0.5862 -1.8267 -1.8090
  149SAPE   C2916447   1.200   2.628   7.569 -0.3267  0.4971  0.8956
  149SAPE   H9R16448   1.125   2.644   7.648 -1.0538  1.5079  0.0338
  149SAPE  C21016449   1.309   2.545   7.629 -0.3083 -0.1245 -0.1687
  149SAPE  H10R16450   1.347   2.609   7.711 -0.8202 -0.0755  0.0331
  149SAPE  H10S16451   1.393   2.523   7.559  2.4946  2.1950  2.2276
  149SAPE  C21116452   1.282   2.407   7.687  0.5807 -0.7149  0.4651
  149SAPE  H11R16453   1.276   2.326   7.613 -3.5575 -0.9885  0.9115
  149SAPE  C21216454   1.276   2.382   7.819 -0.2320  0.0034 -0.5233
  149SAPE  H12R16455   1.243   2.281   7.848 -2.0053  0.4517 -0.8450
  149SAPE  C21316456   1.288   2.466   7.946 -0.6599 -0.5864 -0.1426
  149SAPE  H13R16457   1.203   2.430   8.008 -1.3313 -1.3137 -1.4340
  149SAPE  H13S16458   1.281   2.574   7.920  1.4188 -0.6075 -0.9637
  149SAPE  C21416459   1.417   2.445   8.024 -0.5363 -0.7249 -0.3375
  149SAPE  H14R16460   1.513   2.452   7.971 -1.9189 -2.0111 -3.2117
  149SAPE  C21516461   1.416   2.419   8.158  0.0942  0.4193 -0.1243
  149SAPE  H15R16462   1.517   2.405   8.199  0.1690  0.2915 -0.3498
  149SAPE  C21616463   1.304   2.416   8.263 -0.1704  0.8584 -0.4336
  149SAPE  H16R16464   1.293   2.308   8.285 -0.5962  0.7653 -1.1034
  149SAPE  H16S16465   1.211   2.457   8.218  0.1385  2.1611  0.0703
  149SAPE  C21716466   1.331   2.491   8.397  0.0378  0.0260  0.8160
  149SAPE  H17R16467   1.278   2.588   8.390 -1.6483 -0.8227  1.3228
  149SAPE  H17S16468   1.438   2.512   8.422  0.4657  0.8918 -1.4829
  149SAPE  C21816469   1.269   2.423   8.522 -0.1052 -0.7708  0.5332
  149SAPE  H18R16470   1.340   2.342   8.550  2.0497  0.9743  0.3844
  149SAPE  H18S16471   1.169   2.382   8.496  0.3404 -0.6757 -1.4452
  149SAPE  C21916472   1.268   2.518   8.640  0.1475  0.5134  0.1705
  149SAPE  H19R16473   1.197   2.597   8.608 -0.2372 -0.0932 -0.5242
  149SAPE  H19S16474   1.370   2.560   8.652  1.6369 -1.6619 -3.2310
  149SAPE  C22016475   1.248   2.444   8.771  0.0309 -0.7499  0.3140
  149SAPE  H20R16476   1.306   2.350   8.779 -3.2100 -3.1202 -1.5155
  149SAPE  H20S16477   1.144   2.425   8.806  0.0910 -1.1615  0.2738
  149SAPE  H20T16478   1.290   2.505   8.853  1.2428 -1.3089  0.1259
  149SAPE   C3316479   1.001   3.169   7.175 -0.4596 -0.2422  0.4192
  149SAPE   H3X16480   0.890   3.167   7.180 -0.6068  0.4656 -1.7792
  149SAPE   H3Y16481   1.014   3.268   7.127  1.4768 -0.8897 -0.5079
  149SAPE   C3416482   1.058   3.173   7.317 -1.0643  0.0449  0.0933
  149SAPE   H4X16483   1.046   3.272   7.367 -2.2063 -0.0608  0.0601
  149SAPE   H4Y16484   1.166   3.150   7.310 -1.1645 -1.6382  2.5976
  149SAPE   C3516485   0.999   3.056   7.396  0.0803 -0.1981  0.1226
  149SAPE   H5X16486   1.013   2.960   7.342 -0.4417  0.6825 -1.6460
  149SAPE   H5Y16487   0.889   3.073   7.390  0.1481 -0.2298 -1.4546
  149SAPE   C3616488   1.041   3.063   7.544  0.7097 -0.5424 -0.1365
  149SAPE   H6X16489   1.022   3.164   7.586  0.5994 -1.6568  2.7114
  149SAPE   H6Y16490   1.150   3.042   7.543  0.6533 -1.1064 -2.7402
  149SAPE   C3716491   0.963   2.970   7.628  0.5573  0.4707 -0.5061
  149SAPE   H7X16492   0.970   2.865   7.592 -1.6552 -0.3688  1.2706
  149SAPE   H7Y16493   0.856   2.998   7.627  0.7886  1.3987 -1.1913
  149SAPE   C3816494   0.999   2.971   7.775  0.4295 -0.0888  0.6558
  149SAPE   H8X16495   0.926   2.908   7.830  1.3941 -1.0262  0.8984
  149SAPE   H8Y16496   0.992   3.075   7.815  0.5683  0.3994 -0.5490
  149SAPE   C3916497   1.134   2.909   7.825 -0.1284 -0.0104  0.4478
  149SAPE   H9X16498   1.219   2.963   7.777 -0.2373 -1.0179 -0.9766
  149SAPE   H9Y16499   1.134   2.802   7.792  1.4255  0.3677 -0.9173
  149SAPE  C31016500   1.157   2.941   7.973  0.9403 -0.3597  0.0340
  149SAPE  H10X16501   1.066   2.909   8.027  0.4499 -0.9274 -1.0799
  149SAPE  H10Y16502   1.180   3.049   7.981  1.7594 -0.4543 -0.8528
  149SAPE  C31116503   1.272   2.861   8.036  0.0095 -0.1954 -0.4583
  149SAPE  H11X16504   1.367   2.871   7.979  0.4398 -0.2373  0.2490
  149SAPE  H11Y16505   1.257   2.751   8.035  1.7502 -0.4655 -0.8500
  149SAPE  C31216506   1.289   2.908   8.182 -0.9859 -0.0848  0.0196
  149SAPE  H12X16507   1.197   2.877   8.237  0.1462 -0.3394  1.8916
  149SAPE  H12Y16508   1.296   3.019   8.181 -0.0517 -0.0950 -2.9858
  149SAPE  C31316509   1.412   2.841   8.244  0.7348 -0.3488  0.2934
  149SAPE  H13X16510   1.506   2.863   8.189 -0.0715  2.3923 -0.1197
  149SAPE  H13Y16511   1.393   2.732   8.247  2.0137 -0.5916  0.1404
  149SAPE  C31416512   1.436   2.883   8.397 -0.0684  0.5919 -0.4963
  149SAPE  H14X16513   1.525   2.823   8.425  1.4381  1.7219 -2.5801
  149SAPE  H14Y16514   1.348   2.850   8.455  0.3906  1.6267  0.8349
  149SAPE  C31516515   1.458   3.031   8.415  0.8011 -0.2935  0.5233
  149SAPE  H15X16516   1.361   3.084   8.419  0.8235 -0.2484  0.4743
  149SAPE  H15Y16517   1.509   3.076   8.327  0.8972  1.1550  1.2824
  149SAPE  C31616518   1.527   3.059   8.556 -0.2847  0.2817  0.0929
  149SAPE  H16X16519   1.617   3.001   8.586  0.1659  0.0565 -1.5622
  149SAPE  H16Y16520   1.454   3.038   8.637 -2.2890  1.6106 -1.2535
  149SAPE  C31716521   1.554   3.201   8.579 -0.7114 -0.1469 -0.0189
  149SAPE  H17X16522   1.575   3.216   8.687 -1.9606  0.3827  0.1587
  149SAPE  H17Y16523   1.464   3.260   8.551 -0.3990 -0.5523 -2.0428
  149SAPE  C31816524   1.681   3.259   8.510 -0.0710  0.1536 -0.6809
  149SAPE  H18X16525   1.766   3.223   8.572 -1.1893 -0.7572  0.3734
  149SAPE  H18Y16526   1.676   3.370   8.520 -2.6354  0.0508 -0.0522
  149SAPE  H18Z16527   1.684   3.232   8.403  0.4257 -0.4500 -0.5202
  150SAPE     N16528   5.684   4.564   5.969 -0.6745 -0.9016 -0.0303
  150SAPE   HN116529   5.739   4.495   5.914 -1.9429 -2.6717  0.8109
  150SAPE   HN216530   5.725   4.556   6.064 -0.4179 -1.3847 -0.1790
  150SAPE   HN316531   5.587   4.527   5.961 -1.0399  0.0895 -0.2603
  150SAPE   C1216532   5.706   4.706   5.927  0.0691  0.5896  0.3959
  150SAPE  H12A16533   5.609   4.760   5.932  0.1408  0.8899 -1.1208
  150SAPE  H12B16534   5.748   4.701   5.824 -1.6479  0.9192 -0.3423
  150SAPE   C1116535   5.803   4.778   6.024 -0.5867 -0.4639 -0.1655
  150SAPE  H11A16536   5.784   4.886   6.011  0.0636 -0.1870  1.0603
  150SAPE  H11B16537   5.903   4.743   5.990  0.3705  0.5815  1.4704
  150SAPE     P16538   5.731   4.837   6.260 -0.0704 -0.0014  0.0664
  150SAPE   O1316539   5.794   4.969   6.236 -0.3290  0.3467  0.1813
  150SAPE   O1416540   5.584   4.830   6.248 -0.3707  0.2633 -0.5162
  150SAPE   O1216541   5.799   4.729   6.161  0.1485  0.4258 -0.3753
  150SAPE   O1116542   5.782   4.785   6.406 -0.4176  0.0515 -0.7352
  150SAPE    C116543   5.904   4.720   6.429 -0.0848 -0.2309  0.0931
  150SAPE    HA16544   5.888   4.611   6.442  0.5546 -0.3955 -0.4738
  150SAPE    HB16545   5.975   4.732   6.345 -1.4119  1.6421 -0.8332
  150SAPE    C216546   5.973   4.774   6.563 -0.5677  0.2599  0.3453
  150SAPE    HS16547   6.047   4.694   6.581 -1.0375 -0.2379  0.1018
  150SAPE   O2116548   5.879   4.783   6.667 -0.1875 -0.2588 -0.1941
  150SAPE   C2116549   5.859   4.672   6.739  0.2372  0.1395 -0.1231
  150SAPE   O2216550   5.882   4.561   6.701  0.2605  0.2642  0.0753
  150SAPE   C2216551   5.787   4.714   6.871 -0.2550 -0.1799 -0.1763
  150SAPE   H2R16552   5.856   4.786   6.920  0.2243  0.9436 -2.3838
  150SAPE   H2S16553   5.700   4.774   6.837 -1.6041 -0.7522  2.0504
  150SAPE    C316554   6.046   4.911   6.538  0.2341  0.1457 -0.4423
  150SAPE    HX16555   5.972   4.979   6.491 -1.0577 -2.5198 -2.5316
  150SAPE    HY16556   6.132   4.884   6.472  1.4664 -0.6663  1.3956
  150SAPE   O3116557   6.094   4.956   6.660 -0.3066 -0.8567 -0.1296
  150SAPE   C3116558   6.216   4.933   6.697 -0.2877 -0.6061 -0.0856
  150SAPE   O3216559   6.296   4.863   6.637 -0.1135 -0.2789 -0.3605
  150SAPE   C3216560   6.249   4.998   6.837 -0.9171 -0.3076  0.6312
  150SAPE   H2X16561   6.245   4.909   6.904 -0.1022 -2.0874 -1.5586
  150SAPE   H2Y16562   6.166   5.068   6.857 -0.1748  0.6566  0.4297
  150SAPE   C2316563   5.722   4.604   6.960  0.1683 -0.5854  0.1495
  150SAPE   H3R16564   5.802   4.538   6.999 -0.4189 -0.5475  1.4527
  150SAPE   H3S16565   5.662   4.547   6.886  1.0280 -0.7173 -0.4712
  150SAPE   C2416566   5.640   4.660   7.081  0.4408  0.4890 -0.3139
  150SAPE   H4R16567   5.549   4.713   7.044  0.9030  0.7316 -1.1223
  150SAPE   H4S16568   5.700   4.741   7.128  1.7531  0.2519 -1.5294
  150SAPE   C2516569   5.594   4.551   7.176  0.5958  0.3326  0.1554
  150SAPE   H5R16570   5.541   4.474   7.119 -1.4308  1.3922  0.5034
  150SAPE   C2616571   5.606   4.546   7.314 -0.2009  0.0231  0.4106
  150SAPE   H6R16572   5.551   4.471   7.372 -2.8789  1.5431  0.0081
  150SAPE   C2716573   5.679   4.650   7.402  0.5423 -0.1152 -0.4720
  150SAPE   H7R16574   5.596   4.710   7.445  0.5364  1.5031 -2.5403
  150SAPE   H7S16575   5.727   4.730   7.341 -1.2502 -0.4422 -2.4385
  150SAPE   C2816576   5.769   4.580   7.496 -0.0537 -0.1381 -0.6665
  150SAPE   H8R16577   5.811   4.486   7.457  1.4909 -0.2813  1.1720
  150SAPE   C2916578   5.825   4.637   7.605  0.2841  0.5383  0.0379
  150SAPE   H9R16579   5.898   4.577   7.662 -0.6435 -0.2258  0.4571
  150SAPE  C21016580   5.791   4.770   7.663  0.1213  0.5252  0.7487
  150SAPE  H10R16581   5.681   4.788   7.659  0.2957  1.5550  0.1730
  150SAPE  H10S16582   5.839   4.838   7.589  0.3597  1.4234  1.7043
  150SAPE  C21116583   5.853   4.806   7.797  0.0863 -0.4240  0.1763
  150SAPE  H11R16584   5.958   4.778   7.813 -0.0503 -0.3216  1.3308
  150SAPE  C21216585   5.796   4.877   7.898 -0.3201  0.6241  0.3647
  150SAPE  H12R16586   5.854   4.895   7.989  1.0560  0.1058 -0.3860
  150SAPE  C21316587   5.652   4.926   7.899  1.0291 -0.6772 -0.3604
  150SAPE  H13R16588   5.591   4.843   7.943  0.2714 -0.5293 -1.0961
  150SAPE  H13S16589   5.606   4.943   7.800  0.0889 -0.7077  0.0530
  150SAPE  C21416590   5.650   5.056   7.986 -0.3741  0.3999 -0.6412
  150SAPE  H14R16591   5.652   5.144   7.920  4.3493  0.7853 -0.3237
  150SAPE  C21516592   5.643   5.068   8.121  0.7287 -0.2056 -0.2944
  150SAPE  H15R16593   5.642   5.166   8.171 -0.8148  0.3176 -1.2773
  150SAPE  C21616594   5.622   4.953   8.222  0.0865  0.2598 -0.1424
  150SAPE  H16R16595   5.693   4.958   8.307 -0.1480  2.5668  0.0041
  150SAPE  H16S16596   5.633   4.862   8.160 -2.0525 -1.1112  1.3828
  150SAPE  C21716597   5.471   4.961   8.279  0.7669  0.1780  0.7683
  150SAPE  H17R16598   5.399   4.987   8.199 -1.4249 -1.3454  2.1033
  150SAPE  H17S16599   5.471   5.059   8.332  0.0685  1.5980 -1.7226
  150SAPE  C21816600   5.431   4.826   8.358  0.2604  0.3396 -0.1226
  150SAPE  H18R16601   5.460   4.739   8.296  0.3416  0.6404 -0.5125
  150SAPE  H18S16602   5.322   4.823   8.381  0.1831 -0.0028 -0.5244
  150SAPE  C21916603   5.510   4.812   8.488 -0.4035 -0.2790  0.0244
  150SAPE  H19R16604   5.603   4.866   8.461  0.6521 -1.9252  0.1947
  150SAPE  H19S16605   5.532   4.705   8.511 -0.2297  0.2141  2.4280
  150SAPE  C22016606   5.447   4.883   8.610  0.1094 -0.7085 -0.2300
  150SAPE  H20R16607   5.406   4.980   8.575 -1.5565 -1.6770 -1.0452
  150SAPE  H20S16608   5.520   4.904   8.691  1.7193 -0.9020 -1.5672
  150SAPE  H20T16609   5.356   4.833   8.649  0.3562 -0.1971  1.0440
  150SAPE   C3316610   6.379   5.080   6.845  0.9123  0.6927  0.3246
  150SAPE   H3X16611   6.384   5.158   6.766  0.2560  0.9236  0.5065
  150SAPE   H3Y16612   6.465   5.015   6.816  1.1115 -0.0645  2.4486
  150SAPE   C3416613   6.405   5.150   6.977  0.1421 -0.0216  0.7871
  150SAPE   H4X16614   6.319   5.214   7.005 -0.2503  0.0232 -0.4865
  150SAPE   H4Y16615   6.489   5.220   6.959 -1.4609  2.5069  2.5516
  150SAPE   C3516616   6.427   5.050   7.090 -0.1941 -0.3489 -0.4507
  150SAPE   H5X16617   6.520   4.999   7.058  0.0284  0.1758 -0.6449
  150SAPE   H5Y16618   6.341   4.979   7.090 -2.2059  1.9750 -0.6502
  150SAPE   C3616619   6.439   5.114   7.230  0.3039  0.4096  0.7813
  150SAPE   H6X16620   6.340   5.123   7.281 -0.5268 -1.3880 -0.3962
  150SAPE   H6Y16621   6.465   5.222   7.220 -2.9312  1.1998 -0.4140
  150SAPE   C3716622   6.534   5.039   7.326 -0.1040  0.1887 -0.5832
  150SAPE   H7X16623   6.636   5.021   7.287  0.8288  1.3104  1.2401
  150SAPE   H7Y16624   6.492   4.939   7.350 -0.2876 -0.4270 -3.1639
  150SAPE   C3816625   6.547   5.131   7.452  0.1717 -0.0839 -0.0391
  150SAPE   H8X16626   6.443   5.145   7.490 -0.3056 -2.9397 -0.1147
  150SAPE   H8Y16627   6.574   5.228   7.405  0.8717 -0.5911 -0.6930
  150SAPE   C3916628   6.646   5.099   7.559 -0.0236  0.5640  0.0830
  150SAPE   H9X16629   6.739   5.060   7.513 -0.8844 -0.1584 -1.1217
  150SAPE   H9Y16630   6.612   5.018   7.627 -1.5058 -0.0525 -1.3227
  150SAPE  C31016631   6.681   5.230   7.640 -0.3545 -0.4519  0.2241
  150SAPE  H10X16632   6.710   5.313   7.572 -1.9475  0.6796  0.8674
  150SAPE  H10Y16633   6.765   5.205   7.709  0.0079 -1.8732 -0.6846
  150SAPE  C31116634   6.562   5.283   7.711 -0.0231  0.2603 -0.0640
  150SAPE  H11X16635   6.505   5.204   7.764  0.5672  0.5608  1.0551
  150SAPE  H11Y16636   6.493   5.334   7.641 -1.1419 -1.7544 -0.4855
  150SAPE  C31216637   6.588   5.393   7.811 -0.4928 -0.6410 -0.6143
  150SAPE  H12X16638   6.491   5.417   7.861  0.2509 -0.6325  0.8990
  150SAPE  H12Y16639   6.619   5.492   7.770  0.9457 -0.5984  0.4934
  150SAPE  C31316640   6.682   5.362   7.919 -0.2817 -0.1018  0.1885
  150SAPE  H13X16641   6.786   5.388   7.891  0.4273 -3.4639 -0.7184
  150SAPE  H13Y16642   6.676   5.253   7.940 -1.3018 -0.5169 -1.9908
  150SAPE  C31416643   6.652   5.428   8.060 -0.5280 -0.0975 -0.2763
  150SAPE  H14X16644   6.553   5.396   8.097 -1.6303  1.3050 -1.8827
  150SAPE  H14Y16645   6.641   5.537   8.042  0.3020 -0.0896 -0.8056
  150SAPE  C31516646   6.759   5.419   8.163  0.3844  0.4185 -0.3744
  150SAPE  H15X16647   6.731   5.497   8.237  1.6066 -0.3720  0.9777
  150SAPE  H15Y16648   6.857   5.448   8.120  2.2644  1.0293  3.7991
  150SAPE  C31616649   6.762   5.284   8.225  0.5966  0.1166  0.3833
  150SAPE  H16X16650   6.810   5.209   8.160  1.6607  1.3603 -0.3221
  150SAPE  H16Y16651   6.661   5.244   8.249  0.4128 -0.1053 -0.7045
  150SAPE  C31716652   6.841   5.281   8.361  0.1781 -1.0114  0.3985
  150SAPE  H17X16653   6.820   5.369   8.426 -0.3250  1.8109 -3.2763
  150SAPE  H17Y16654   6.944   5.303   8.326  0.6690  0.4069  2.4981
  150SAPE  C31816655   6.835   5.157   8.439  0.1555  0.3626 -0.3139
  150SAPE  H18X16656   6.852   5.072   8.369 -0.7658  0.9487 -1.2672
  150SAPE  H18Y16657   6.740   5.134   8.491 -0.3821  0.9108 -1.0466
  150SAPE  H18Z16658   6.916   5.153   8.515 -1.1250 -1.9233  1.0436
  151SAPE     N16659   5.251   2.952   5.767  0.0577  0.0913  0.1796
  151SAPE   HN116660   5.247   2.878   5.840 -2.8180  0.0636  0.1279
  151SAPE   HN216661   5.221   2.909   5.677 -0.0397  1.1936 -0.3302
  151SAPE   HN316662   5.348   2.970   5.737 -0.0485  0.2736 -0.0562
  151SAPE   C1216663   5.160   3.066   5.793  0.1395  0.3487 -0.8492
  151SAPE  H12A16664   5.064   3.029   5.835 -1.2432  1.8462 -2.5216
  151SAPE  H12B16665   5.148   3.119   5.696  1.5180  3.2980  0.4431
  151SAPE   C1116666   5.228   3.164   5.893  0.3597 -0.8600 -0.6138
  151SAPE  H11A16667   5.163   3.253   5.907  1.4197 -0.4423  2.2824
  151SAPE  H11B16668   5.322   3.202   5.847 -0.1538  1.3709  0.0723
  151SAPE     P16669   5.302   3.196   6.129 -0.2537 -0.0822  0.4086
  151SAPE   O1316670   5.374   3.118   6.229 -0.1148  0.2940 -0.0160
  151SAPE   O1416671   5.341   3.337   6.091  0.0066  0.5538 -0.8870
  151SAPE   O1216672   5.276   3.094   6.011 -0.1530 -0.2712 -0.8564
  151SAPE   O1116673   5.158   3.217   6.190 -0.2477  0.4245  0.1254
  151SAPE    C116674   5.128   3.259   6.321  0.0112 -0.3588 -0.2782
  151SAPE    HA16675   5.213   3.314   6.369  1.2573 -0.5541 -2.1541
  151SAPE    HB16676   5.047   3.335   6.324  0.8273  0.5173  0.6593
  151SAPE    C216677   5.094   3.145   6.418 -0.1507  0.3391 -0.5382
  151SAPE    HS16678   5.182   3.077   6.428 -1.0027 -0.8325 -0.8489
  151SAPE   O2116679   4.973   3.093   6.371  0.5773 -0.2192  0.6847
  151SAPE   C2116680   4.961   2.959   6.381 -0.8708  0.1103 -0.0748
  151SAPE   O2216681   5.046   2.879   6.417 -0.2492 -0.4741 -0.0362
  151SAPE   C2216682   4.819   2.928   6.351 -0.1735  0.3883  0.0413
  151SAPE   H2R16683   4.797   2.980   6.256  2.4867 -0.2555 -1.0160
  151SAPE   H2S16684   4.806   2.817   6.347 -0.1202  0.3070  1.4458
  151SAPE    C316685   5.076   3.203   6.564  0.3214  0.1950  0.5049
  151SAPE    HX16686   4.991   3.275   6.571  0.4680  0.3670  0.5455
  151SAPE    HY16687   5.170   3.258   6.589 -0.5079  0.8972  2.2093
  151SAPE   O3116688   5.047   3.088   6.644 -0.6502 -0.6000 -0.0132
  151SAPE   C3116689   5.134   3.064   6.731  0.1725 -0.6283  0.8168
  151SAPE   O3216690   5.237   3.125   6.758 -0.3974  0.1120 -0.4942
  151SAPE   C3216691   5.086   2.941   6.794  0.6898  0.8259  0.3077
  151SAPE   H2X16692   5.167   2.868   6.818 -0.5457 -0.7664 -0.1860
  151SAPE   H2Y16693   5.029   2.883   6.719  0.8375 -2.5655  2.5695
  151SAPE   C2316694   4.726   2.967   6.468 -0.5982  0.6035  0.0945
  151SAPE   H3R16695   4.621   2.939   6.447 -1.1610  1.2114  1.9134
  151SAPE   H3S16696   4.733   3.078   6.476 -0.6861  0.4843  2.5773
  151SAPE   C2416697   4.745   2.905   6.607  0.2263 -0.4345 -0.6045
  151SAPE   H4R16698   4.659   2.935   6.671  2.8980  2.2659  2.0615
  151SAPE   H4S16699   4.838   2.946   6.652  0.2003  0.0599 -0.9841
  151SAPE   C2516700   4.768   2.756   6.610 -0.1591  0.1505  0.1265
  151SAPE   H5R16701   4.854   2.718   6.552 -0.6631  0.7402 -1.0453
  151SAPE   C2616702   4.690   2.669   6.671  1.1822 -0.1803  0.2144
  151SAPE   H6R16703   4.708   2.561   6.659  0.4940 -0.1144 -1.8165
  151SAPE   C2716704   4.560   2.697   6.750  0.1347  0.7938 -0.1584
  151SAPE   H7R16705   4.513   2.598   6.772 -0.5859  1.3946  1.0766
  151SAPE   H7S16706   4.501   2.747   6.670  0.0271  0.8793 -0.0246
  151SAPE   C2816707   4.567   2.786   6.870  0.6000 -0.0841  0.1222
  151SAPE   H8R16708   4.595   2.891   6.854 -2.1077  0.4844 -1.6011
  151SAPE   C2916709   4.549   2.747   6.996 -0.4909 -0.1419  0.0703
  151SAPE   H9R16710   4.581   2.821   7.071  1.7470 -1.6635  0.7145
  151SAPE  C21016711   4.510   2.617   7.052 -0.0896 -0.1179 -0.4044
  151SAPE  H10R16712   4.533   2.542   6.974 -0.5168  0.9344 -1.5859
  151SAPE  H10S16713   4.399   2.615   7.061 -0.3743 -0.1141 -3.1150
  151SAPE  C21116714   4.582   2.592   7.184  0.0060 -0.4270 -0.0476
  151SAPE  H11R16715   4.688   2.622   7.183 -0.6545  2.1131 -0.7802
  151SAPE  C21216716   4.528   2.564   7.303  0.5883  0.7212  0.6917
  151SAPE  H12R16717   4.577   2.546   7.399 -1.7123  0.0035  1.8016
  151SAPE  C21316718   4.375   2.545   7.337 -0.0222 -0.3796  0.4225
  151SAPE  H13R16719   4.333   2.498   7.246 -2.0675 -0.4210  1.3345
  151SAPE  H13S16720   4.320   2.640   7.352  1.1863  0.3161  0.5882
  151SAPE  C21416721   4.347   2.447   7.444 -0.0534 -0.2018  0.3369
  151SAPE  H14R16722   4.392   2.349   7.425  0.5686 -0.0352  0.8830
  151SAPE  C21516723   4.288   2.468   7.570  0.4886 -0.2665  0.3677
  151SAPE  H15R16724   4.300   2.381   7.636  0.9864 -1.2799 -1.0273
  151SAPE  C21616725   4.225   2.591   7.637 -0.0816  0.1911 -0.0698
  151SAPE  H16R16726   4.130   2.569   7.689  1.3573 -2.5013  1.6538
  151SAPE  H16S16727   4.208   2.661   7.552 -0.2774 -0.1708 -0.3312
  151SAPE  C21716728   4.310   2.665   7.745 -0.3049  0.4334 -0.3107
  151SAPE  H17R16729   4.271   2.767   7.767  0.6123  0.9300 -0.8939
  151SAPE  H17S16730   4.410   2.687   7.702  0.1452  0.1510  0.5507
  151SAPE  C21816731   4.327   2.577   7.868 -0.1980 -0.0043 -0.4502
  151SAPE  H18R16732   4.391   2.631   7.941 -0.3845 -1.1996  0.6454
  151SAPE  H18S16733   4.395   2.497   7.830  0.2720  0.1099  0.1221
  151SAPE  C21916734   4.202   2.525   7.942 -0.3328 -0.6408  0.3006
  151SAPE  H19R16735   4.163   2.453   7.867 -0.5728 -2.3150  1.9548
  151SAPE  H19S16736   4.135   2.613   7.952 -0.6285 -0.7793 -0.3718
  151SAPE  C22016737   4.232   2.473   8.076 -0.0787  0.2063 -0.0551
  151SAPE  H20R16738   4.295   2.551   8.124  2.5184 -0.4021 -2.2210
  151SAPE  H20S16739   4.144   2.454   8.142  1.5950  0.9721  2.5591
  151SAPE  H20T16740   4.300   2.386   8.062 -0.2371  0.5631 -4.0213
  151SAPE   C3316741   5.006   2.958   6.924  0.3911  0.7772  0.4995
  151SAPE   H3X16742   4.927   3.035   6.909  0.2858  0.8608  1.4122
  151SAPE   H3Y16743   5.068   3.008   7.002  1.1080  2.2838 -0.9678
  151SAPE   C3416744   4.947   2.826   6.967  0.3265  0.3104  0.2478
  151SAPE   H4X16745   5.034   2.758   6.951  1.6581  1.6013  1.5893
  151SAPE   H4Y16746   4.864   2.793   6.902  0.0514  0.9375  0.2828
  151SAPE   C3516747   4.910   2.815   7.111  0.1939 -0.5983  0.0542
  151SAPE   H5X16748   5.002   2.810   7.174  0.1844 -1.5053  0.0033
  151SAPE   H5Y16749   4.852   2.721   7.123 -0.0579 -0.4624 -0.0866
  151SAPE   C3616750   4.825   2.929   7.166 -0.1457  0.3378  0.2850
  151SAPE   H6X16751   4.744   2.944   7.092  0.2104  4.0269  0.4429
  151SAPE   H6Y16752   4.878   3.027   7.171  0.1997  0.1788 -0.1887
  151SAPE   C3716753   4.771   2.893   7.309 -0.5256 -0.4472  0.0005
  151SAPE   H7X16754   4.864   2.893   7.369  0.0385 -0.6639 -0.8517
  151SAPE   H7Y16755   4.729   2.790   7.313 -2.5442  0.3567  0.4489
  151SAPE   C3816756   4.672   2.990   7.368 -0.5571  0.5436  0.7332
  151SAPE   H8X16757   4.577   2.981   7.313 -0.9643  0.4010  1.4446
  151SAPE   H8Y16758   4.703   3.096   7.356 -0.0550  0.3872  0.6371
  151SAPE   C3916759   4.669   2.978   7.519  0.1212 -0.3314 -0.7736
  151SAPE   H9X16760   4.767   3.011   7.559 -0.3295 -1.0736  1.0290
  151SAPE   H9Y16761   4.666   2.868   7.533 -0.2291 -0.3950 -1.3380
  151SAPE  C31016762   4.549   3.050   7.577  0.0911  0.2545  0.7293
  151SAPE  H10X16763   4.511   2.984   7.658 -0.8571 -0.5873 -0.3738
  151SAPE  H10Y16764   4.464   3.051   7.506 -0.0601  2.6058  0.8937
  151SAPE  C31116765   4.570   3.191   7.636  0.1825 -0.0702  0.2127
  151SAPE  H11X16766   4.470   3.214   7.679 -1.1599 -1.5942 -1.9145
  151SAPE  H11Y16767   4.570   3.265   7.553 -2.6829  0.8248  0.9028
  151SAPE  C31216768   4.679   3.215   7.743  0.6325  0.4936 -0.5758
  151SAPE  H12X16769   4.650   3.290   7.819  0.9054 -1.7726  1.9444
  151SAPE  H12Y16770   4.777   3.250   7.704  1.0715 -0.0841 -0.0158
  151SAPE  C31316771   4.705   3.097   7.836  0.0780 -0.3423  1.2819
  151SAPE  H13X16772   4.725   3.005   7.776 -0.3532  0.3094  0.1243
  151SAPE  H13Y16773   4.612   3.088   7.896  0.2906  2.1186  2.0818
  151SAPE  C31416774   4.810   3.118   7.954  0.3940 -0.4718 -0.1226
  151SAPE  H14X16775   4.907   3.156   7.914  0.1545  1.2522  0.8447
  151SAPE  H14Y16776   4.827   3.013   7.984 -0.5141 -0.6182 -0.0979
  151SAPE  C31516777   4.750   3.202   8.065  0.9183  0.0787 -0.3585
  151SAPE  H15X16778   4.673   3.140   8.116  1.1096  0.2370  0.1273
  151SAPE  H15Y16779   4.693   3.288   8.025  0.7675  0.9574  1.6271
  151SAPE  C31616780   4.861   3.232   8.171 -0.1558 -0.8242  0.4642
  151SAPE  H16X16781   4.950   3.284   8.128  1.0185 -2.1095  1.2844
  151SAPE  H16Y16782   4.897   3.136   8.212 -0.1207 -0.5551  1.0789
  151SAPE  C31716783   4.819   3.329   8.284 -0.4208 -0.4875 -0.5371
  151SAPE  H17X16784   4.745   3.291   8.358 -0.2845  3.4633  1.9172
  151SAPE  H17Y16785   4.775   3.423   8.245  0.9340  0.0357 -0.8543
  151SAPE  C31816786   4.948   3.353   8.366 -0.4045  0.0399  0.4329
  151SAPE  H18X16787   5.025   3.391   8.295 -2.1957 -0.0547 -1.6396
  151SAPE  H18Y16788   4.980   3.261   8.419  0.5025 -0.1861 -0.4840
  151SAPE  H18Z16789   4.931   3.429   8.446  0.4418  1.4427 -0.6756
  152SAPE     N16790   6.478   4.561   6.268  0.8903  0.3305  0.5834
  152SAPE   HN116791   6.503   4.655   6.232 -0.0073  1.7961  3.4601
  152SAPE   HN216792   6.420   4.506   6.202  0.3462  1.0634  0.4347
  152SAPE   HN316793   6.421   4.583   6.352 -1.9413  0.7198 -1.3206
  152SAPE   C1216794   6.609   4.504   6.315  0.2220  0.4646 -0.5590
  152SAPE  H12A16795   6.588   4.445   6.407  1.9081  1.6380  0.6376
  152SAPE  H12B16796   6.677   4.586   6.347  1.2371 -0.2685 -0.8039
  152SAPE   C1116797   6.670   4.419   6.210 -0.7150 -0.0427  0.4642
  152SAPE  H11A16798   6.682   4.493   6.128 -1.0471  1.2451  1.5439
  152SAPE  H11B16799   6.595   4.346   6.172 -0.5270  0.3677 -0.7349
  152SAPE     P16800   6.923   4.391   6.214 -0.4256  0.1925  0.5151
  152SAPE   O1316801   6.973   4.277   6.134  0.3966 -0.3118 -0.1895
  152SAPE   O1416802   6.910   4.521   6.144 -0.2258  0.2378 -0.0387
  152SAPE   O1216803   6.777   4.345   6.261 -0.4576 -0.1967  0.1919
  152SAPE   O1116804   7.006   4.399   6.344 -0.8454  0.5086  0.1509
  152SAPE    C116805   6.974   4.323   6.457 -0.8214 -0.3690  0.2900
  152SAPE    HA16806   6.879   4.267   6.450 -0.3390 -1.0234 -1.9934
  152SAPE    HB16807   7.063   4.258   6.469  0.4676  1.3154  0.3185
  152SAPE    C216808   6.980   4.414   6.578 -0.0159 -0.0201  0.0618
  152SAPE    HS16809   7.057   4.493   6.577 -0.1155  0.1305  1.8060
  152SAPE   O2116810   7.010   4.329   6.691  0.5193 -0.3447  0.6524
  152SAPE   C2116811   7.146   4.311   6.715 -0.3021  0.4369  0.0281
  152SAPE   O2216812   7.230   4.355   6.641  0.3170  0.6855  0.6983
  152SAPE   C2216813   7.159   4.229   6.837  0.0735 -0.2132 -0.1624
  152SAPE   H2R16814   7.094   4.139   6.833  1.6103 -1.3240 -0.8464
  152SAPE   H2S16815   7.263   4.193   6.826 -0.7152 -1.9623 -2.7427
  152SAPE    C316816   6.850   4.501   6.589  0.7030  0.0825 -0.4420
  152SAPE    HX16817   6.770   4.425   6.602  0.4769  0.0469 -1.8989
  152SAPE    HY16818   6.824   4.563   6.501  2.2789  2.2127  0.4929
  152SAPE   O3116819   6.858   4.584   6.711  0.6668  0.0258 -0.1623
  152SAPE   C3116820   6.748   4.667   6.727 -0.1140  0.6980 -0.1820
  152SAPE   O3216821   6.638   4.639   6.690 -0.7104  0.5149 -0.3446
  152SAPE   C3216822   6.785   4.785   6.810  0.6535  0.3623 -0.4152
  152SAPE   H2X16823   6.784   4.882   6.756 -0.3061  0.8506  0.4354
  152SAPE   H2Y16824   6.892   4.771   6.834  0.5888 -1.9573 -1.2320
  152SAPE   C2316825   7.128   4.307   6.970 -0.3038 -0.3135  0.3219
  152SAPE   H3R16826   7.177   4.407   6.967 -1.8462  0.5409  1.8725
  152SAPE   H3S16827   7.176   4.254   7.055  0.5477  0.5731  0.4070
  152SAPE   C2416828   6.983   4.330   6.998  0.2868  0.4898  0.5683
  152SAPE   H4R16829   6.924   4.239   6.978  1.0357  0.2374 -0.6068
  152SAPE   H4S16830   6.962   4.394   6.910 -2.2177 -0.4549  0.4067
  152SAPE   C2516831   6.973   4.394   7.135 -0.2582  0.0419  0.2440
  152SAPE   H5R16832   7.051   4.468   7.160  1.5686 -2.1032  1.2970
  152SAPE   C2616833   6.889   4.362   7.234  0.2060 -0.0297 -0.5469
  152SAPE   H6R16834   6.899   4.428   7.321  0.8096  2.5249 -2.4309
  152SAPE   C2716835   6.792   4.251   7.235  0.2444 -0.5511  0.1790
  152SAPE   H7R16836   6.760   4.238   7.129 -0.0951  0.4941  0.1412
  152SAPE   H7S16837   6.697   4.285   7.283 -1.8444 -2.5654 -2.2119
  152SAPE   C2816838   6.843   4.119   7.276  0.4825  0.1904 -0.5758
  152SAPE   H8R16839   6.902   4.062   7.203  0.4149  0.4428 -0.8310
  152SAPE   C2916840   6.827   4.071   7.398 -0.3147 -0.0072  0.3399
  152SAPE   H9R16841   6.863   3.971   7.423 -0.7027 -1.2726 -3.4612
  152SAPE  C21016842   6.751   4.145   7.505  0.7255 -0.2915  0.2596
  152SAPE  H10R16843   6.780   4.253   7.503  2.2411 -0.6834  0.2450
  152SAPE  H10S16844   6.780   4.113   7.608 -1.3143  1.6209  1.5371
  152SAPE  C21116845   6.598   4.139   7.508  0.5620  0.5719 -0.0645
  152SAPE  H11R16846   6.527   4.221   7.491 -0.1782 -0.1403 -0.4874
  152SAPE  C21216847   6.531   4.024   7.536  0.2907 -0.5708 -0.0832
  152SAPE  H12R16848   6.422   4.014   7.545  0.3518 -1.8884 -0.6149
  152SAPE  C21316849   6.598   3.890   7.565 -0.4370 -0.0403 -0.6513
  152SAPE  H13R16850   6.548   3.844   7.652 -0.0899 -1.4013 -1.1535
  152SAPE  H13S16851   6.705   3.906   7.591 -0.5305 -0.2950 -0.1054
  152SAPE  C21416852   6.580   3.807   7.437 -0.1863 -0.3920 -0.1997
  152SAPE  H14R16853   6.529   3.851   7.350  1.3454  1.2623 -0.3336
  152SAPE  C21516854   6.616   3.678   7.429 -0.1875 -0.1423  0.5545
  152SAPE  H15R16855   6.596   3.629   7.333 -0.5320  0.3839  0.3508
  152SAPE  C21616856   6.672   3.588   7.532 -0.3008 -0.4186 -0.7804
  152SAPE  H16R16857   6.604   3.502   7.552  0.9616 -0.7881  2.5827
  152SAPE  H16S16858   6.687   3.641   7.629 -0.0525 -1.5996 -0.1481
  152SAPE  C21716859   6.806   3.533   7.490 -0.2015  0.3967  0.4206
  152SAPE  H17R16860   6.880   3.613   7.468  0.2682 -0.2795 -0.5125
  152SAPE  H17S16861   6.798   3.485   7.390 -2.7612 -0.0591  0.7827
  152SAPE  C21816862   6.876   3.437   7.592 -0.2825  0.8882 -0.2643
  152SAPE  H18R16863   6.795   3.380   7.643  0.9357 -0.1250  0.6007
  152SAPE  H18S16864   6.929   3.496   7.670  1.3956  0.9283 -1.3917
  152SAPE  C21916865   6.972   3.333   7.533  0.3517  0.3150  0.4140
  152SAPE  H19R16866   6.918   3.287   7.448 -0.9472  2.5944 -0.0765
  152SAPE  H19S16867   7.005   3.249   7.597 -0.1217 -0.6869 -0.6374
  152SAPE  C22016868   7.094   3.400   7.475  0.0990  0.7248  0.0530
  152SAPE  H20R16869   7.172   3.325   7.451 -0.3848  0.3136 -0.2679
  152SAPE  H20S16870   7.135   3.471   7.550  0.3262 -1.2889  1.9407
  152SAPE  H20T16871   7.073   3.441   7.375 -0.0133 -2.1605 -1.2108
  152SAPE   C3316872   6.695   4.805   6.933  0.1363 -0.1960 -0.3650
  152SAPE   H3X16873   6.592   4.825   6.897  1.4131  0.3181 -4.1579
  152SAPE   H3Y16874   6.724   4.899   6.984  1.2079  0.0890 -1.4417
  152SAPE   C3416875   6.696   4.693   7.045  0.4753  0.1022  0.3733
  152SAPE   H4X16876   6.804   4.677   7.065  0.8642  0.5363 -1.2103
  152SAPE   H4Y16877   6.660   4.595   7.007  0.6942  0.6737 -1.4328
  152SAPE   C3516878   6.613   4.719   7.174 -0.0795 -0.1761  0.3273
  152SAPE   H5X16879   6.512   4.760   7.150  0.0104  0.1557  0.5065
  152SAPE   H5Y16880   6.658   4.810   7.219  0.4870  1.2792 -2.8821
  152SAPE   C3616881   6.604   4.596   7.268  0.0773 -0.6655  0.2127
  152SAPE   H6X16882   6.706   4.550   7.266  0.5152  0.2943 -1.9084
  152SAPE   H6Y16883   6.532   4.516   7.241 -1.9447  0.8370  0.9501
  152SAPE   C3716884   6.585   4.644   7.420 -0.2457 -0.4678  0.6232
  152SAPE   H7X16885   6.484   4.689   7.438  0.2666  0.7015  0.6693
  152SAPE   H7Y16886   6.661   4.722   7.441 -0.2311 -0.1630 -0.4879
  152SAPE   C3816887   6.607   4.540   7.527  0.3166  0.5319  0.6208
  152SAPE   H8X16888   6.712   4.522   7.557  0.1210  1.7488  2.1120
  152SAPE   H8Y16889   6.573   4.440   7.491 -1.3328  1.5593 -0.8239
  152SAPE   C3916890   6.549   4.581   7.663 -0.2263 -0.5830 -0.4991
  152SAPE   H9X16891   6.440   4.598   7.645 -0.2647  0.7421  0.8186
  152SAPE   H9Y16892   6.600   4.676   7.689 -2.2928  0.6770 -0.7513
  152SAPE  C31016893   6.569   4.473   7.770 -0.0003 -0.0369  0.1319
  152SAPE  H10X16894   6.521   4.379   7.738 -3.2367  1.2669  0.7790
  152SAPE  H10Y16895   6.507   4.505   7.857 -0.3036  2.5279 -0.9213
  152SAPE  C31116896   6.711   4.474   7.826  0.1346  0.1857 -0.0488
  152SAPE  H11X16897   6.744   4.575   7.860 -2.1960  0.9896  0.0325
  152SAPE  H11Y16898   6.783   4.465   7.742  0.4015  2.8694 -0.1939
  152SAPE  C31216899   6.736   4.378   7.939  0.6764 -0.7746  0.0438
  152SAPE  H12X16900   6.657   4.407   8.012  1.4670  0.0410  0.5980
  152SAPE  H12Y16901   6.832   4.403   7.989  0.6740  0.8611 -0.6906
  152SAPE  C31316902   6.743   4.228   7.894 -0.1379  0.0053  0.3427
  152SAPE  H13X16903   6.800   4.218   7.799 -0.2384  2.9881 -0.1145
  152SAPE  H13Y16904   6.639   4.199   7.869 -0.2394  1.7620 -1.5062
  152SAPE  C31416905   6.806   4.141   8.007  0.6693  0.4727 -0.3231
  152SAPE  H14X16906   6.744   4.140   8.099  2.3734 -0.9300  0.8625
  152SAPE  H14Y16907   6.894   4.198   8.043  0.9207 -1.1241  1.7409
  152SAPE  C31516908   6.838   3.997   7.975  0.4828 -0.3154  0.2809
  152SAPE  H15X16909   6.759   3.938   7.924  3.3637 -4.9070  0.4936
  152SAPE  H15Y16910   6.861   3.926   8.058  0.8234 -0.2354  0.2551
  152SAPE  C31616911   6.960   3.986   7.886  0.6798 -0.3846 -0.1676
  152SAPE  H16X16912   7.046   4.045   7.925  0.9854 -0.3052 -0.9339
  152SAPE  H16Y16913   6.933   4.045   7.795 -0.3228 -1.3285 -0.5049
  152SAPE  C31716914   7.005   3.845   7.846 -0.0899 -0.2532  0.3106
  152SAPE  H17X16915   6.917   3.787   7.810 -0.9818 -1.1906  3.6169
  152SAPE  H17Y16916   7.028   3.785   7.937 -1.8447 -1.3132  0.1010
  152SAPE  C31816917   7.122   3.841   7.737  0.9750 -0.1774  0.2646
  152SAPE  H18X16918   7.200   3.914   7.767  0.2160  0.2278  1.3045
  152SAPE  H18Y16919   7.084   3.877   7.639 -0.5810  0.6259  1.1238
  152SAPE  H18Z16920   7.164   3.738   7.741 -0.3517 -0.8523 -1.7979
  153SAPE     N16921   1.063   6.353   5.860 -0.5303  0.0731  0.1050
  153SAPE   HN116922   1.080   6.269   5.802 -0.7599 -0.7423  1.1794
  153SAPE   HN216923   0.961   6.348   5.884 -0.3620  2.6086  1.6881
  153SAPE   HN316924   1.073   6.435   5.798  0.8751 -0.8345 -0.9356
  153SAPE   C1216925   1.152   6.336   5.981 -0.0709  0.4420  0.2691
  153SAPE  H12A16926   1.174   6.424   6.044  0.4062 -0.0792  0.8507
  153SAPE  H12B16927   1.252   6.321   5.936  0.4612 -1.0252  1.8257
  153SAPE   C1116928   1.119   6.208   6.065 -0.6162  0.5119  0.1338
  153SAPE  H11A16929   1.114   6.131   5.985  2.5544  0.1864  0.1509
  153SAPE  H11B16930   1.019   6.221   6.111 -0.8493 -2.6402  0.6834
  153SAPE     P16931   1.249   6.232   6.298  0.1811 -0.0974 -0.0648
  153SAPE   O1316932   1.115   6.248   6.357 -0.7742 -0.7365 -0.0585
  153SAPE   O1416933   1.351   6.148   6.362 -0.4281 -0.6752 -0.1683
  153SAPE   O1216934   1.237   6.172   6.152  0.2913 -0.4476  0.6366
  153SAPE   O1116935   1.308   6.382   6.267  0.1818  0.2654 -0.7072
  153SAPE    C116936   1.448   6.406   6.248  1.1019  0.1515 -0.8226
  153SAPE    HA16937   1.506   6.317   6.217  0.6524 -0.9649  1.2826
  153SAPE    HB16938   1.449   6.487   6.172 -1.6804 -0.4314 -1.5994
  153SAPE    C216939   1.509   6.466   6.385  0.3507  0.2824 -0.0265
  153SAPE    HS16940   1.521   6.367   6.435  2.2778  0.4539 -0.0597
  153SAPE   O2116941   1.415   6.566   6.431  0.7780 -0.7315 -0.0531
  153SAPE   C2116942   1.408   6.572   6.562 -0.4705 -0.1582  1.2678
  153SAPE   O2216943   1.439   6.478   6.633 -0.3812 -0.4780  0.0615
  153SAPE   C2216944   1.363   6.711   6.594  0.2085 -0.3462 -0.4967
  153SAPE   H2R16945   1.433   6.789   6.557  0.7944 -0.3450  0.5637
  153SAPE   H2S16946   1.273   6.731   6.532  0.3946 -0.5337 -0.8355
  153SAPE    C316947   1.644   6.541   6.368  0.1062  0.3436  0.4780
  153SAPE    HX16948   1.616   6.632   6.310 -0.0961 -1.3935 -2.3417
  153SAPE    HY16949   1.700   6.478   6.296 -1.4209 -0.3412 -0.1572
  153SAPE   O3116950   1.713   6.552   6.493  0.1095  0.6204  0.2433
  153SAPE   C3116951   1.721   6.673   6.528  0.4086  0.2953 -0.0439
  153SAPE   O3216952   1.701   6.772   6.455  0.3445 -0.6200 -0.3764
  153SAPE   C3216953   1.758   6.695   6.677 -0.3534  0.3261 -0.1152
  153SAPE   H2X16954   1.678   6.640   6.731  2.4136 -1.6237  2.3678
  153SAPE   H2Y16955   1.741   6.801   6.704 -1.0306  0.1943  0.0008
  153SAPE   C2316956   1.337   6.722   6.746 -0.9379 -0.4938  0.3982
  153SAPE   H3R16957   1.417   6.673   6.805  0.6510  0.9232 -0.5262
  153SAPE   H3S16958   1.238   6.675   6.765 -0.5650 -0.6123  2.2742
  153SAPE   C2416959   1.318   6.860   6.796 -0.1991  0.1169  0.1317
  153SAPE   H4R16960   1.274   6.842   6.897 -0.4532  0.5662  0.1064
  153SAPE   H4S16961   1.244   6.908   6.729  1.9115  2.7628 -0.4818
  153SAPE   C2516962   1.448   6.936   6.813  0.8183 -0.5476 -0.8980
  153SAPE   H5R16963   1.483   7.009   6.739 -1.5675  1.5621 -0.0793
  153SAPE   C2616964   1.527   6.935   6.928 -0.7513 -0.4953  0.0552
  153SAPE   H6R16965   1.623   6.988   6.919 -0.7654  0.6610  4.1920
  153SAPE   C2716966   1.508   6.862   7.055 -0.3788 -0.1743 -0.4043
  153SAPE   H7R16967   1.478   6.757   7.035 -0.4575 -0.5874  1.6897
  153SAPE   H7S16968   1.420   6.896   7.114 -0.8582 -3.2882  0.8614
  153SAPE   C2816969   1.626   6.875   7.156  0.5012 -0.1600  0.4178
  153SAPE   H8R16970   1.710   6.820   7.111 -0.6395 -1.2023 -0.5066
  153SAPE   C2916971   1.625   6.917   7.279 -1.5978 -0.1183 -0.0528
  153SAPE   H9R16972   1.715   6.914   7.342 -2.4021 -1.8304  1.1016
  153SAPE  C21016973   1.503   6.962   7.360  0.5921 -1.0749 -0.0323
  153SAPE  H10R16974   1.411   6.961   7.297  0.5173  0.6380 -0.0174
  153SAPE  H10S16975   1.509   7.068   7.395  3.2938 -1.5944  1.3038
  153SAPE  C21116976   1.489   6.849   7.470  0.1623 -0.1044  0.0306
  153SAPE  H11R16977   1.451   6.756   7.426 -0.5907  0.2909 -0.1726
  153SAPE  C21216978   1.511   6.862   7.604  0.8450 -0.0523 -0.1317
  153SAPE  H12R16979   1.493   6.776   7.671  1.0829 -2.6329 -3.1241
  153SAPE  C21316980   1.540   6.981   7.685 -0.1661 -0.6204 -0.0020
  153SAPE  H13R16981   1.547   7.071   7.620  1.8099  0.6926  1.9070
  153SAPE  H13S16982   1.641   6.970   7.729  0.4809 -1.4572 -1.6151
  153SAPE  C21416983   1.441   7.020   7.791  0.5358  0.6025 -0.2334
  153SAPE  H14R16984   1.334   7.021   7.764  0.2309 -1.6603  0.6271
  153SAPE  C21516985   1.475   7.058   7.913  0.3446 -0.0200  0.0877
  153SAPE  H15R16986   1.390   7.093   7.974 -0.3900 -1.5123 -0.0462
  153SAPE  C21616987   1.607   7.080   7.969 -0.1981  0.2957  0.1902
  153SAPE  H16R16988   1.589   7.160   8.043  0.4544  1.7665 -1.1847
  153SAPE  H16S16989   1.667   7.123   7.886 -0.8310 -0.6421 -0.7950
  153SAPE  C21716990   1.677   6.964   8.046 -0.5850 -0.3602  0.2077
  153SAPE  H17R16991   1.776   6.999   8.080 -0.3058 -0.3074 -0.6351
  153SAPE  H17S16992   1.687   6.878   7.977  0.5469  2.1851 -3.0703
  153SAPE  C21816993   1.605   6.916   8.170 -0.7553  0.0969 -0.1556
  153SAPE  H18R16994   1.512   6.867   8.135 -1.3053  1.0654 -0.0875
  153SAPE  H18S16995   1.572   7.002   8.231  0.3882  1.0480 -0.8432
  153SAPE  C21916996   1.696   6.819   8.246  0.1733  0.4085  0.0154
  153SAPE  H19R16997   1.793   6.856   8.286 -0.5982  1.5225  0.9059
  153SAPE  H19S16998   1.720   6.742   8.169  0.6219 -0.5355  1.0832
  153SAPE  C22016999   1.631   6.758   8.370  0.1019 -0.2748  0.0814
  153SAPE  H20R17000   1.589   6.832   8.442 -0.8404 -0.9527  0.2396
  153SAPE  H20S17001   1.690   6.688   8.432 -1.0485  1.5518  3.4568
  153SAPE  H20T17002   1.549   6.693   8.334  0.3993 -0.0142 -1.1323
  153SAPE   C3317003   1.901   6.633   6.706  0.1610 -0.3890 -0.0482
  153SAPE   H3X17004   1.967   6.687   6.635 -1.2455  2.0307  0.3393
  153SAPE   H3Y17005   1.893   6.524   6.685  0.1271  0.2208 -3.9703
  153SAPE   C3417006   1.951   6.667   6.853  0.4311 -0.3386 -0.2153
  153SAPE   H4X17007   1.954   6.778   6.857  1.8525 -0.3114 -1.4373
  153SAPE   H4Y17008   2.057   6.635   6.862  1.3157  2.0679 -1.3857
  153SAPE   C3517009   1.856   6.603   6.955  0.1911  0.6075 -0.4124
  153SAPE   H5X17010   1.820   6.499   6.940 -1.6204  1.0441  0.5855
  153SAPE   H5Y17011   1.764   6.666   6.959 -0.6246 -0.5695  0.2198
  153SAPE   C3617012   1.913   6.599   7.099  0.1239 -0.4483 -0.1651
  153SAPE   H6X17013   1.952   6.702   7.110 -0.0554 -0.1738 -1.8528
  153SAPE   H6Y17014   2.008   6.541   7.109  0.2241 -0.3117 -0.3208
  153SAPE   C3717015   1.813   6.554   7.203  0.8384  0.1984 -0.3120
  153SAPE   H7X17016   1.775   6.451   7.185  0.2746  0.3916 -0.2593
  153SAPE   H7Y17017   1.729   6.625   7.187  0.5270 -0.5216 -2.1230
  153SAPE   C3817018   1.873   6.564   7.344  0.2218 -0.0781 -0.2229
  153SAPE   H8X17019   1.881   6.672   7.366 -3.3938  0.4649 -0.8503
  153SAPE   H8Y17020   1.978   6.529   7.341  0.7694  1.4753 -0.2286
  153SAPE   C3917021   1.784   6.513   7.454  0.1469 -0.5045 -0.3946
  153SAPE   H9X17022   1.766   6.403   7.447 -1.9343 -0.3316  1.4687
  153SAPE   H9Y17023   1.684   6.561   7.448  0.1533 -0.4049  0.2767
  153SAPE  C31017024   1.849   6.545   7.598  0.3056 -0.1298  0.3178
  153SAPE  H10X17025   1.881   6.651   7.604 -1.5238  0.3830  2.0296
  153SAPE  H10Y17026   1.933   6.478   7.623 -1.6597 -2.2271  1.6868
  153SAPE  C31117027   1.741   6.518   7.700 -0.7196 -0.8118 -0.2575
  153SAPE  H11X17028   1.686   6.423   7.684  0.4547 -1.2718 -1.7718
  153SAPE  H11Y17029   1.670   6.601   7.680  2.5740  2.3251 -0.1058
  153SAPE  C31217030   1.785   6.519   7.847  0.2055 -0.0263  0.8367
  153SAPE  H12X17031   1.696   6.522   7.914 -2.1638 -0.4902 -2.0793
  153SAPE  H12Y17032   1.835   6.617   7.863  0.8179  0.1745 -1.8069
  153SAPE  C31317033   1.867   6.393   7.881  0.2078 -0.5726  0.0206
  153SAPE  H13X17034   1.966   6.419   7.838 -0.1038  0.2077 -0.2493
  153SAPE  H13Y17035   1.809   6.309   7.836 -0.0008 -0.1626 -0.4890
  153SAPE  C31417036   1.879   6.385   8.035  1.1995 -0.7132 -0.1731
  153SAPE  H14X17037   1.781   6.371   8.087  1.0726  1.0610  0.1113
  153SAPE  H14Y17038   1.916   6.482   8.072 -0.8942  0.1000 -0.0482
  153SAPE  C31517039   1.968   6.269   8.077  0.6234  0.2654  0.1068
  153SAPE  H15X17040   2.066   6.291   8.029  0.1449 -1.3720 -1.7462
  153SAPE  H15Y17041   1.930   6.174   8.033 -1.9505 -0.2295  3.0099
  153SAPE  C31617042   1.972   6.261   8.232 -0.6451 -0.2175 -0.5494
  153SAPE  H16X17043   1.869   6.244   8.268 -0.3296  1.4149  1.3099
  153SAPE  H16Y17044   2.005   6.358   8.276  0.0667 -1.0023  0.7044
  153SAPE  C31717045   2.064   6.151   8.284 -0.1146 -0.2527 -0.2902
  153SAPE  H17X17046   2.028   6.047   8.271 -0.8187 -0.0175 -0.2673
  153SAPE  H17Y17047   2.058   6.162   8.395 -0.0102 -1.0545 -0.2004
  153SAPE  C31817048   2.208   6.163   8.238  0.3593  0.2381 -0.0803
  153SAPE  H18X17049   2.241   6.250   8.299  0.8776 -1.7430  2.6186
  153SAPE  H18Y17050   2.212   6.188   8.130 -0.1903 -1.6196 -0.5651
  153SAPE  H18Z17051   2.273   6.081   8.274 -0.0192  0.6175  1.5743
  154SAPE     N17052   6.088   5.675   5.811 -0.1984  0.2367  0.1767
  154SAPE   HN117053   6.054   5.771   5.792 -0.7612 -0.4677 -2.9309
  154SAPE   HN217054   6.164   5.645   5.746 -0.6783 -2.8331  0.8464
  154SAPE   HN317055   6.006   5.615   5.789  0.5980 -0.2482 -1.6635
  154SAPE   C1217056   6.130   5.660   5.955 -0.2045 -0.1649 -0.0622
  154SAPE  H12A17057   6.050   5.682   6.029  0.8787  0.9254  0.8339
  154SAPE  H12B17058   6.212   5.733   5.971 -0.2606  0.5814 -2.8055
  154SAPE   C1117059   6.175   5.513   5.996  0.3915  0.5637  0.1917
  154SAPE  H11A17060   6.267   5.487   5.940 -1.8821 -1.7469 -2.8018
  154SAPE  H11B17061   6.100   5.438   5.962  1.9463 -2.5099  3.0005
  154SAPE     P17062   6.158   5.379   6.224  0.2895 -0.0952  0.2434
  154SAPE   O1317063   6.071   5.280   6.150 -0.4660 -0.1938 -0.1230
  154SAPE   O1417064   6.287   5.329   6.277 -0.3854 -0.4654 -0.4413
  154SAPE   O1217065   6.187   5.508   6.134 -0.5399  0.8484 -0.0269
  154SAPE   O1117066   6.075   5.431   6.341 -0.5807 -0.1459  0.3236
  154SAPE    C117067   6.087   5.559   6.398  0.3124 -0.5955  0.4716
  154SAPE    HA17068   6.115   5.635   6.322 -3.9057  1.5202  0.7781
  154SAPE    HB17069   5.993   5.606   6.435  1.4409  1.8628  0.4066
  154SAPE    C217070   6.189   5.561   6.522  0.0384  0.6822  0.1313
  154SAPE    HS17071   6.275   5.497   6.494  1.6570  1.4666  2.9413
  154SAPE   O2117072   6.118   5.515   6.631  0.5053  0.3688 -0.9377
  154SAPE   C2117073   6.193   5.446   6.720  0.9620  0.4471 -0.3290
  154SAPE   O2217074   6.315   5.418   6.714  0.1448 -0.3820 -0.4169
  154SAPE   C2217075   6.108   5.409   6.846  0.7072 -0.3140  0.0053
  154SAPE   H2R17076   6.000   5.437   6.837  0.7488  0.6167  1.9418
  154SAPE   H2S17077   6.117   5.299   6.841  1.1612 -0.2376 -3.5891
  154SAPE    C317078   6.238   5.705   6.546  0.7964  0.7402 -0.4158
  154SAPE    HX17079   6.146   5.767   6.553  0.5370  0.1623  2.4763
  154SAPE    HY17080   6.288   5.742   6.455  3.6893 -1.2767  0.2203
  154SAPE   O3117081   6.328   5.722   6.657 -0.5427 -0.1213  0.0801
  154SAPE   C3117082   6.451   5.682   6.633  0.2097 -0.2336 -0.4701
  154SAPE   O3217083   6.494   5.654   6.526 -0.2908 -0.1872  0.4557
  154SAPE   C3217084   6.536   5.697   6.755 -0.5213 -0.6240 -0.5729
  154SAPE   H2X17085   6.533   5.808   6.766  0.5041 -0.7168  0.9825
  154SAPE   H2Y17086   6.638   5.675   6.717 -1.1310 -2.0131 -1.4637
  154SAPE   C2317087   6.163   5.487   6.976  0.3981  1.0198  0.0466
  154SAPE   H3R17088   6.178   5.596   6.962 -1.6442  1.4948  1.1329
  154SAPE   H3S17089   6.259   5.438   7.003 -0.9132 -1.7627  0.0614
  154SAPE   C2417090   6.059   5.469   7.092 -0.5305 -0.2677  0.2729
  154SAPE   H4R17091   5.955   5.485   7.056 -0.3698 -0.5904 -0.3547
  154SAPE   H4S17092   6.077   5.552   7.162  1.4711  0.5832 -1.1749
  154SAPE   C2517093   6.064   5.338   7.164  0.3842  0.2434 -0.0261
  154SAPE   H5R17094   6.064   5.249   7.099 -2.3047  1.7967 -2.3895
  154SAPE   C2617095   6.094   5.328   7.294 -0.1714  0.2747 -0.1110
  154SAPE   H6R17096   6.110   5.226   7.334  0.4937  0.4738  0.1398
  154SAPE   C2717097   6.120   5.444   7.389 -0.1789  0.1506 -0.0948
  154SAPE   H7R17098   6.031   5.476   7.447  0.6608 -0.7162  1.7735
  154SAPE   H7S17099   6.166   5.523   7.326 -0.0314 -0.8384 -1.2854
  154SAPE   C2817100   6.230   5.409   7.488  0.9561 -0.0879  0.3589
  154SAPE   H8R17101   6.330   5.388   7.446 -0.2136 -2.9614 -1.2594
  154SAPE   C2917102   6.210   5.404   7.624 -0.9914 -0.0960  0.6312
  154SAPE   H9R17103   6.288   5.357   7.685 -1.8859 -0.8449  1.2234
  154SAPE  C21017104   6.083   5.417   7.703  0.0861  0.0124 -0.1828
  154SAPE  H10R17105   6.000   5.463   7.645 -0.1293 -0.5545 -0.3352
  154SAPE  H10S17106   6.095   5.487   7.788 -1.5707  0.8842 -0.6144
  154SAPE  C21117107   6.032   5.276   7.739  0.1673 -0.2870  0.4143
  154SAPE  H11R17108   5.994   5.214   7.657  0.2330 -1.9967  1.6404
  154SAPE  C21217109   6.026   5.225   7.870  0.3136 -0.9623 -0.0082
  154SAPE  H12R17110   5.992   5.121   7.883 -2.3325 -0.0837  0.5966
  154SAPE  C21317111   6.066   5.307   7.987  0.0025 -0.5431 -0.2319
  154SAPE  H13R17112   6.023   5.408   7.973  1.5554 -0.0143 -1.4227
  154SAPE  H13S17113   6.176   5.324   7.989 -0.0386 -0.1781 -0.9899
  154SAPE  C21417114   6.025   5.244   8.117  0.4665  0.0920 -0.7502
  154SAPE  H14R17115   5.915   5.238   8.124  0.4173 -0.6835 -1.8720
  154SAPE  C21517116   6.107   5.201   8.213  0.9434  0.4882  0.5142
  154SAPE  H15R17117   6.060   5.160   8.304  0.1198  0.8215  0.2508
  154SAPE  C21617118   6.257   5.208   8.212  0.0533  0.0212 -0.0734
  154SAPE  H16R17119   6.283   5.316   8.204  0.6022 -0.1543 -0.7906
  154SAPE  H16S17120   6.283   5.162   8.114  0.2316 -0.2341  0.0925
  154SAPE  C21717121   6.324   5.154   8.341  0.9166  0.5033  0.2580
  154SAPE  H17R17122   6.434   5.146   8.326  0.8483  0.3542 -0.1785
  154SAPE  H17S17123   6.279   5.054   8.359 -0.6710  0.9182 -1.1882
  154SAPE  C21817124   6.304   5.243   8.468  0.1580 -0.2042 -0.0113
  154SAPE  H18R17125   6.203   5.227   8.512  0.9142  1.2009  2.3919
  154SAPE  H18S17126   6.320   5.349   8.441  1.6035 -0.6287 -0.9337
  154SAPE  C21917127   6.394   5.194   8.578  0.0206 -0.4834 -0.0400
  154SAPE  H19R17128   6.375   5.260   8.666  1.0104 -0.1935 -0.0235
  154SAPE  H19S17129   6.493   5.225   8.538  0.2769 -2.2830 -0.8792
  154SAPE  C22017130   6.389   5.049   8.609 -0.0040  0.3548  0.1091
  154SAPE  H20R17131   6.384   4.986   8.518 -0.6383  0.0035  0.3830
  154SAPE  H20S17132   6.294   5.030   8.664 -0.4761 -1.0400 -1.1288
  154SAPE  H20T17133   6.458   5.007   8.685 -1.8025 -2.1767  0.4717
  154SAPE   C3317134   6.502   5.620   6.889  0.3417  0.1456  0.2212
  154SAPE   H3X17135   6.486   5.513   6.866  1.0918 -0.8041  3.5275
  154SAPE   H3Y17136   6.401   5.664   6.908  1.0681  2.0672 -0.1500
  154SAPE   C3417137   6.608   5.636   6.993 -0.3670 -0.0198 -0.9325
  154SAPE   H4X17138   6.611   5.739   7.035  0.4700 -0.9750  1.5492
  154SAPE   H4Y17139   6.704   5.622   6.939 -0.0615  1.4244 -0.7907
  154SAPE   C3517140   6.588   5.556   7.123  0.7458 -0.6535 -0.0070
  154SAPE   H5X17141   6.652   5.467   7.102 -0.2573 -1.5856  0.7475
  154SAPE   H5Y17142   6.485   5.514   7.126  0.7193 -0.5667  0.3730
  154SAPE   C3617143   6.633   5.635   7.244  0.5381  0.2648 -0.6283
  154SAPE   H6X17144   6.552   5.710   7.259  0.5183  0.4663 -1.6431
  154SAPE   H6Y17145   6.727   5.694   7.240  0.3980  0.4566 -1.1770
  154SAPE   C3717146   6.657   5.555   7.368 -0.2227  0.6201 -0.5337
  154SAPE   H7X17147   6.714   5.464   7.341 -2.0046 -0.0738 -2.1825
  154SAPE   H7Y17148   6.565   5.500   7.396  0.6816 -0.6499  0.0157
  154SAPE   C3817149   6.720   5.624   7.491  0.6634 -0.7421  0.5446
  154SAPE   H8X17150   6.701   5.585   7.593  0.3364 -0.3351  0.6478
  154SAPE   H8Y17151   6.701   5.733   7.505  1.8414 -0.5348  0.5929
  154SAPE   C3917152   6.873   5.624   7.480 -0.8521  0.8496  0.4364
  154SAPE   H9X17153   6.912   5.652   7.379 -2.8785  1.1506 -0.3213
  154SAPE   H9Y17154   6.899   5.516   7.490  1.1487  1.2307 -0.1645
  154SAPE  C31017155   6.954   5.698   7.591 -0.1374  0.9098  0.4204
  154SAPE  H10X17156   6.947   5.806   7.563 -1.9975  1.3297  2.2438
  154SAPE  H10Y17157   7.060   5.666   7.588 -0.5024 -0.3081 -1.4381
  154SAPE  C31117158   6.882   5.694   7.720 -0.5264  0.5662  0.6045
  154SAPE  H11X17159   6.865   5.586   7.741  2.1448 -0.1346 -0.3934
  154SAPE  H11Y17160   6.786   5.750   7.718 -2.4162 -2.2470  3.2336
  154SAPE  C31217161   6.957   5.769   7.820  0.5687 -0.0828 -0.2570
  154SAPE  H12X17162   6.974   5.870   7.777 -1.5803 -0.4559 -2.1543
  154SAPE  H12Y17163   7.053   5.718   7.843  0.4473  0.5385  1.9115
  154SAPE  C31317164   6.900   5.772   7.959  0.2011  0.4425 -0.4260
  154SAPE  H13X17165   6.987   5.768   8.028  0.8969 -3.1051 -1.3465
  154SAPE  H13Y17166   6.839   5.680   7.971  3.2151 -1.7170 -0.6810
  154SAPE  C31417167   6.823   5.901   7.980  1.0756  0.2102 -0.6647
  154SAPE  H14X17168   6.771   5.942   7.891  1.7602  1.8634 -0.3253
  154SAPE  H14Y17169   6.893   5.980   8.011  1.5621  0.0212 -1.2748
  154SAPE  C31517170   6.707   5.878   8.081 -0.2271 -0.3439  0.1189
  154SAPE  H15X17171   6.661   5.778   8.070 -1.1666  0.1388 -0.4472
  154SAPE  H15Y17172   6.626   5.951   8.062  1.6118  1.8853  0.3532
  154SAPE  C31617173   6.760   5.880   8.219  0.1331 -0.1344 -0.7632
  154SAPE  H16X17174   6.843   5.953   8.230  0.7744 -0.7963 -1.1206
  154SAPE  H16Y17175   6.808   5.787   8.256 -1.5493 -0.2014  1.4870
  154SAPE  C31717176   6.647   5.884   8.326  0.1545 -0.7412 -0.6132
  154SAPE  H17X17177   6.590   5.979   8.315 -0.2496 -0.7971  0.7491
  154SAPE  H17Y17178   6.681   5.876   8.432  1.1255 -2.3505 -1.0189
  154SAPE  C31817179   6.538   5.783   8.305  0.3208 -0.3861  0.4071
  154SAPE  H18X17180   6.582   5.681   8.309 -1.4875 -1.2224  0.1025
  154SAPE  H18Y17181   6.498   5.789   8.202 -2.2858  1.5985  1.4091
  154SAPE  H18Z17182   6.451   5.796   8.373 -0.9027 -0.5493 -1.0809
  155SAPE     N17183   2.464   5.266   6.247 -0.1478  0.7106  0.0213
  155SAPE   HN117184   2.385   5.305   6.191  1.4923  0.8576 -2.3741
  155SAPE   HN217185   2.549   5.293   6.194 -1.4239  3.0946 -0.9983
  155SAPE   HN317186   2.456   5.162   6.253  0.3019  0.5290 -1.8564
  155SAPE   C1217187   2.474   5.347   6.369  0.4324 -0.0461  0.2675
  155SAPE  H12A17188   2.566   5.405   6.346  1.8133 -2.2803 -0.1681
  155SAPE  H12B17189   2.494   5.281   6.456 -0.3334 -2.4601 -1.2788
  155SAPE   C1117190   2.340   5.430   6.388 -1.0333  0.5734 -0.0262
  155SAPE  H11A17191   2.353   5.480   6.487 -1.0137  0.2438  0.1394
  155SAPE  H11B17192   2.249   5.366   6.387 -3.2855  3.5695 -0.4685
  155SAPE     P17193   2.338   5.675   6.289 -0.0636 -0.3328 -0.4241
  155SAPE   O1317194   2.480   5.719   6.310 -0.3510  0.2385  0.3431
  155SAPE   O1417195   2.264   5.737   6.174 -0.2498  0.1368 -0.2551
  155SAPE   O1217196   2.331   5.520   6.277  0.6425  0.1971 -0.0456
  155SAPE   O1117197   2.261   5.708   6.429 -0.0951  0.4836 -0.3020
  155SAPE    C117198   2.130   5.670   6.424  0.2421  0.2938 -0.1013
  155SAPE    HA17199   2.073   5.747   6.367 -2.8101 -0.7126  1.3590
  155SAPE    HB17200   2.106   5.576   6.370  0.8490  0.2359 -0.2736
  155SAPE    C217201   2.064   5.671   6.568 -0.6983  0.8522 -0.0556
  155SAPE    HS17202   1.953   5.667   6.564 -0.6198 -0.1592 -2.7981
  155SAPE   O2117203   2.109   5.780   6.656 -0.0264  0.8435  0.3289
  155SAPE   C2117204   2.057   5.896   6.612 -0.2839  0.7245  0.5380
  155SAPE   O2217205   1.977   5.904   6.516  0.3724 -0.0363  0.2081
  155SAPE   C2217206   2.093   6.002   6.716 -0.0068  0.5866  0.5056
  155SAPE   H2R17207   2.057   5.984   6.820  2.4635 -0.2296  1.3211
  155SAPE   H2S17208   2.203   5.996   6.735 -0.2062 -0.5467  1.4487
  155SAPE    C317209   2.111   5.540   6.644  0.4367 -0.1700 -0.1573
  155SAPE    HX17210   2.218   5.556   6.666  0.6230  0.1550 -1.2369
  155SAPE    HY17211   2.088   5.454   6.577 -0.8196  1.4776 -1.9696
  155SAPE   O3117212   2.039   5.522   6.769 -0.3878 -0.1598 -0.5340
  155SAPE   C3117213   2.102   5.431   6.848  0.3685  0.0895  0.2735
  155SAPE   O3217214   2.203   5.367   6.821  0.2661 -0.7916  0.0235
  155SAPE   C3217215   2.025   5.410   6.976  0.3097  0.2692 -0.0139
  155SAPE   H2X17216   1.915   5.426   6.965  0.3768  1.4053  0.8675
  155SAPE   H2Y17217   2.053   5.489   7.048  0.3961 -1.9920  2.5737
  155SAPE   C2317218   2.057   6.146   6.668 -0.3161 -0.4685  0.4192
  155SAPE   H3R17219   1.946   6.153   6.666 -0.2414  1.3276  0.9911
  155SAPE   H3S17220   2.099   6.147   6.565 -1.6060  1.8865 -0.1636
  155SAPE   C2417221   2.120   6.270   6.735  0.8498  0.0149 -0.8724
  155SAPE   H4R17222   2.096   6.359   6.672 -0.6987  0.3514  0.1197
  155SAPE   H4S17223   2.230   6.267   6.727  0.9277  1.2858 -0.5513
  155SAPE   C2517224   2.070   6.295   6.878 -0.5409 -0.8010 -0.0633
  155SAPE   H5R17225   1.966   6.328   6.889 -0.6594 -1.3426  0.5719
  155SAPE   C2617226   2.144   6.280   6.987 -0.1798 -0.4158  0.2587
  155SAPE   H6R17227   2.085   6.286   7.080 -1.6625 -3.9609 -0.2977
  155SAPE   C2717228   2.284   6.230   7.015 -0.1483 -0.0640  0.2130
  155SAPE   H7R17229   2.317   6.158   6.937  1.6120  1.1976 -0.2784
  155SAPE   H7S17230   2.298   6.176   7.111 -3.1637 -1.9748 -0.2837
  155SAPE   C2817231   2.390   6.342   6.991 -0.1655  0.9099  0.3678
  155SAPE   H8R17232   2.422   6.354   6.886  1.8626  1.4429  1.0040
  155SAPE   C2917233   2.437   6.424   7.080 -0.0935  0.6525  0.1931
  155SAPE   H9R17234   2.514   6.497   7.052  1.6363 -1.1743 -0.0547
  155SAPE  C21017235   2.413   6.427   7.228  0.8095  0.1924  0.6196
  155SAPE  H10R17236   2.434   6.532   7.256  0.8079  0.8202 -1.5467
  155SAPE  H10S17237   2.492   6.365   7.276  0.2748 -1.5159 -0.6187
  155SAPE  C21117238   2.281   6.380   7.292 -0.5426 -0.2918  0.3535
  155SAPE  H11R17239   2.254   6.276   7.270  0.8511 -0.8012  0.9917
  155SAPE  C21217240   2.222   6.454   7.381 -0.3652 -0.4431 -0.0641
  155SAPE  H12R17241   2.130   6.410   7.422 -0.0295 -0.1932  0.9912
  155SAPE  C21317242   2.274   6.581   7.448 -0.5983 -0.3132 -0.4327
  155SAPE  H13R17243   2.263   6.670   7.382 -0.3209 -1.3735 -1.9820
  155SAPE  H13S17244   2.381   6.570   7.474 -0.9506 -2.4193  0.3227
  155SAPE  C21417245   2.204   6.617   7.580 -0.1804  0.5318  0.9486
  155SAPE  H14R17246   2.163   6.719   7.577 -0.6567  0.3335  0.0622
  155SAPE  C21517247   2.191   6.540   7.692 -0.6825  0.1749 -0.2246
  155SAPE  H15R17248   2.132   6.585   7.773  0.0184 -0.4033  0.6122
  155SAPE  C21617249   2.254   6.403   7.728  0.0229 -0.4612  0.3259
  155SAPE  H16R17250   2.327   6.378   7.648 -0.4667  0.5568 -0.4668
  155SAPE  H16S17251   2.176   6.325   7.714  0.1309 -0.2560 -1.8177
  155SAPE  C21717252   2.328   6.403   7.863  0.3492  0.4118  0.6448
  155SAPE  H17R17253   2.353   6.295   7.875 -1.6753 -0.2534 -0.5410
  155SAPE  H17S17254   2.264   6.441   7.946 -1.5663  1.3556 -1.1931
  155SAPE  C21817255   2.448   6.496   7.864 -0.0293  0.8518  0.6510
  155SAPE  H18R17256   2.419   6.593   7.818 -0.5572 -0.1752 -1.2710
  155SAPE  H18S17257   2.518   6.452   7.790 -0.5252 -1.2001  1.3307
  155SAPE  C21917258   2.512   6.516   7.999 -0.7393 -0.2106 -0.4168
  155SAPE  H19R17259   2.550   6.421   8.042 -2.3642 -1.2254 -1.1339
  155SAPE  H19S17260   2.445   6.550   8.080  0.6050 -1.7356  1.4144
  155SAPE  C22017261   2.623   6.622   8.000 -0.3448 -0.4380  0.6160
  155SAPE  H20R17262   2.704   6.601   7.927  0.3895  1.1353  0.9588
  155SAPE  H20S17263   2.667   6.630   8.102 -0.7765  1.2716  0.6926
  155SAPE  H20T17264   2.572   6.715   7.967 -2.4870 -1.5927  0.4687
  155SAPE   C3317265   2.051   5.273   7.043 -1.2861  0.0539 -0.6135
  155SAPE   H3X17266   2.028   5.285   7.151 -3.2725 -2.9415 -0.5808
  155SAPE   H3Y17267   2.160   5.258   7.027 -0.3688  2.4454  2.4485
  155SAPE   C3417268   1.966   5.165   6.989 -0.8977  0.5865 -0.3496
  155SAPE   H4X17269   1.986   5.141   6.882 -0.4323 -0.0776 -0.1255
  155SAPE   H4Y17270   1.861   5.200   7.000 -1.1556 -0.2914  0.0884
  155SAPE   C3517271   2.000   5.026   7.060  0.3413  0.4540  0.6001
  155SAPE   H5X17272   2.003   5.044   7.169 -0.2886  2.3508  0.3392
  155SAPE   H5Y17273   2.098   4.988   7.026  0.1205  0.5499 -0.1686
  155SAPE   C3617274   1.899   4.914   7.039  0.0312  0.8817 -0.2601
  155SAPE   H6X17275   1.881   4.876   6.937 -0.6245 -0.5969  0.3854
  155SAPE   H6Y17276   1.797   4.954   7.058 -0.4562 -0.9573  1.3470
  155SAPE   C3717277   1.918   4.789   7.128 -0.2513 -0.6682  0.5559
  155SAPE   H7X17278   2.022   4.751   7.116 -0.4199 -1.0673  0.3316
  155SAPE   H7Y17279   1.869   4.697   7.089  0.0800 -0.3578 -0.6363
  155SAPE   C3817280   1.908   4.808   7.276  1.2265  0.0112 -0.8878
  155SAPE   H8X17281   1.799   4.822   7.294  1.0513 -1.1479 -0.9583
  155SAPE   H8Y17282   1.957   4.901   7.311  0.2544  0.2214 -0.0417
  155SAPE   C3917283   1.958   4.693   7.366 -0.0101  0.0466  0.3844
  155SAPE   H9X17284   2.062   4.671   7.334 -0.6244 -2.0209 -0.3118
  155SAPE   H9Y17285   1.909   4.596   7.342 -1.7920  0.9414  0.1818
  155SAPE  C31017286   1.964   4.737   7.509  0.5122  0.4037 -0.8096
  155SAPE  H10X17287   1.861   4.767   7.539  0.3051 -0.0407 -1.0726
  155SAPE  H10Y17288   2.040   4.815   7.531  0.7933 -0.1903  0.4456
  155SAPE  C31117289   2.015   4.618   7.596  0.4748  0.0376  0.8470
  155SAPE  H11X17290   2.105   4.585   7.540 -0.8823 -0.2449 -1.2943
  155SAPE  H11Y17291   1.941   4.536   7.605 -0.5090  1.0351  2.3193
  155SAPE  C31217292   2.052   4.650   7.739 -0.1874 -0.4989 -0.3719
  155SAPE  H12X17293   2.094   4.752   7.736 -1.6074  0.1335  0.3705
  155SAPE  H12Y17294   2.128   4.576   7.772 -0.5365 -1.4785 -1.6638
  155SAPE  C31317295   1.930   4.647   7.836  0.0765 -0.0341  0.7420
  155SAPE  H13X17296   1.887   4.548   7.813  1.6085  0.2201 -4.6455
  155SAPE  H13Y17297   1.852   4.713   7.792  1.2008  0.6053 -0.3852
  155SAPE  C31417298   1.972   4.682   7.974 -0.5186 -0.1482  0.3215
  155SAPE  H14X17299   1.980   4.793   7.979 -0.1006 -0.1445 -0.3734
  155SAPE  H14Y17300   2.075   4.643   7.990  0.1902  1.2292 -0.7208
  155SAPE  C31517301   1.876   4.624   8.076 -0.5448  0.2480 -0.4050
  155SAPE  H15X17302   1.895   4.514   8.078 -0.2893  0.2851  2.3033
  155SAPE  H15Y17303   1.775   4.628   8.030 -0.4108 -0.9552 -0.8552
  155SAPE  C31617304   1.884   4.701   8.200 -0.9959  0.1902 -0.1257
  155SAPE  H16X17305   1.993   4.713   8.220 -0.5145 -2.9386 -0.3132
  155SAPE  H16Y17306   1.856   4.635   8.285  0.9148 -0.4229  0.0912
  155SAPE  C31717307   1.810   4.841   8.201 -0.0867  0.3976  0.7359
  155SAPE  H17X17308   1.702   4.832   8.179  0.0622  1.1108 -0.3769
  155SAPE  H17Y17309   1.850   4.899   8.115 -0.6971 -0.3490 -0.0550
  155SAPE  C31817310   1.834   4.923   8.329 -0.3120 -0.1289  0.3387
  155SAPE  H18X17311   1.944   4.924   8.344 -0.0407 -1.9687 -1.1267
  155SAPE  H18Y17312   1.783   4.871   8.414 -0.1237  0.1784  0.6422
  155SAPE  H18Z17313   1.793   5.026   8.321  2.0147  0.8332  0.0885
  156SAPE     N17314   5.901   6.337   6.619 -0.2098  0.7977  0.3580
  156SAPE   HN117315   5.951   6.416   6.665  0.5252  0.0592  0.8482
  156SAPE   HN217316   5.979   6.278   6.584  1.1138  0.9635  2.7950
  156SAPE   HN317317   5.845   6.377   6.541 -0.6980 -0.0604  0.2589
  156SAPE   C1217318   5.822   6.267   6.714 -0.2522  0.0056 -0.0900
  156SAPE  H12A17319   5.755   6.338   6.767 -1.2000  0.3119 -1.6482
  156SAPE  H12B17320   5.891   6.225   6.790  1.3116  1.8691 -0.4133
  156SAPE   C1117321   5.746   6.152   6.645  0.0957  0.1528  0.2044
  156SAPE  H11A17322   5.647   6.184   6.608 -0.3748 -1.9193 -0.4221
  156SAPE  H11B17323   5.714   6.087   6.729  0.5370 -1.2604 -0.6885
  156SAPE     P17324   5.773   5.942   6.495  0.0340 -0.0237  0.1129
  156SAPE   O1317325   5.656   5.986   6.421  0.7463  0.3362  0.5557
  156SAPE   O1417326   5.883   5.867   6.425  0.2160 -0.6314  0.3615
  156SAPE   O1217327   5.824   6.080   6.544 -0.6004  0.3477 -0.4690
  156SAPE   O1117328   5.735   5.868   6.626  1.0076 -0.2951  0.4185
  156SAPE    C117329   5.780   5.736   6.662 -0.2748  0.4284  0.5260
  156SAPE    HA17330   5.692   5.672   6.641 -0.5286  0.7057  0.7368
  156SAPE    HB17331   5.860   5.690   6.600 -0.4101 -3.0774  2.6483
  156SAPE    C217332   5.832   5.722   6.804  0.1252  0.1786 -0.4585
  156SAPE    HS17333   5.901   5.635   6.812  0.8990  0.6891 -1.3076
  156SAPE   O2117334   5.720   5.699   6.892  0.3926  0.1708  0.4579
  156SAPE   C2117335   5.682   5.576   6.905  0.1635 -0.6716 -0.2000
  156SAPE   O2217336   5.723   5.479   6.848  0.1679  0.2370  0.5516
  156SAPE   C2217337   5.572   5.561   7.009 -0.7115  0.3574 -0.0779
  156SAPE   H2R17338   5.508   5.652   7.008 -0.6885  0.3661 -0.5658
  156SAPE   H2S17339   5.513   5.468   6.990 -1.1501  0.9565 -1.7502
  156SAPE    C317340   5.904   5.848   6.851 -1.4373 -1.2895  0.7049
  156SAPE    HX17341   5.830   5.920   6.893  0.3124 -0.1521  1.9565
  156SAPE    HY17342   5.957   5.895   6.766  1.7261 -3.3830  1.3750
  156SAPE   O3117343   5.998   5.813   6.951 -0.2450  0.2467 -0.4226
  156SAPE   C3117344   6.032   5.919   7.026 -0.3983  0.4427 -0.1356
  156SAPE   O3217345   5.994   6.031   6.995 -0.9156  0.1175  0.1872
  156SAPE   C3217346   6.118   5.870   7.135  0.5704  0.0407 -0.4927
  156SAPE   H2X17347   6.214   5.845   7.085  1.2641  0.3510  0.6357
  156SAPE   H2Y17348   6.072   5.787   7.193 -0.5571 -0.1560 -1.6440
  156SAPE   C2317349   5.645   5.548   7.152 -0.7886 -0.4719 -0.7483
  156SAPE   H3R17350   5.719   5.629   7.167  1.5338 -2.5124 -0.6433
  156SAPE   H3S17351   5.696   5.449   7.154  1.0826  0.4678  0.5885
  156SAPE   C2417352   5.549   5.548   7.272  0.2389  0.1362  0.0936
  156SAPE   H4R17353   5.484   5.636   7.259  0.8427  0.7073  0.8503
  156SAPE   H4S17354   5.601   5.548   7.370 -0.5712  3.0810  0.6129
  156SAPE   C2517355   5.457   5.429   7.268  0.1679  0.8846  0.2484
  156SAPE   H5R17356   5.515   5.336   7.283  0.9573  1.2858 -0.2157
  156SAPE   C2617357   5.324   5.424   7.232  0.8416 -0.4873  0.1131
  156SAPE   H6R17358   5.271   5.330   7.251 -0.2329 -0.0334 -0.5458
  156SAPE   C2717359   5.240   5.544   7.197 -0.3814  0.5825  0.1605
  156SAPE   H7R17360   5.150   5.496   7.152  0.1652 -1.1387  0.8355
  156SAPE   H7S17361   5.286   5.609   7.119  1.8476 -0.9647  0.1120
  156SAPE   C2817362   5.213   5.627   7.318 -0.4115 -0.9151  0.0333
  156SAPE   H8R17363   5.272   5.719   7.325 -0.2406 -0.8345 -2.0054
  156SAPE   C2917364   5.118   5.602   7.413 -0.6218  0.0608 -0.0651
  156SAPE   H9R17365   5.089   5.675   7.490  3.4982 -0.5762  2.4033
  156SAPE  C21017366   5.023   5.484   7.415 -0.2360  0.0505 -0.1722
  156SAPE  H10R17367   5.010   5.425   7.322 -0.5428 -1.4470  0.7815
  156SAPE  H10S17368   4.922   5.528   7.428 -0.2471  0.8745 -2.4743
  156SAPE  C21117369   5.064   5.377   7.514  0.0400  0.2132  0.9648
  156SAPE  H11R17370   5.107   5.289   7.463 -2.3367 -0.0986 -0.6313
  156SAPE  C21217371   5.054   5.393   7.650  0.7271  0.0167  1.4038
  156SAPE  H12R17372   5.082   5.309   7.715  1.9289 -1.5926 -1.0270
  156SAPE  C21317373   4.995   5.512   7.719 -0.4027  0.0997  0.0986
  156SAPE  H13R17374   4.892   5.527   7.682 -0.4900  3.3291  1.3291
  156SAPE  H13S17375   5.063   5.596   7.694  0.3222 -0.3163  0.6022
  156SAPE  C21417376   4.993   5.488   7.867  0.5312 -0.7300 -0.1531
  156SAPE  H14R17377   4.959   5.387   7.893 -0.4453 -0.3202  0.1992
  156SAPE  C21517378   5.014   5.581   7.958 -0.7959 -0.4316 -0.3833
  156SAPE  H15R17379   4.994   5.556   8.063  1.3695 -0.2585  0.1091
  156SAPE  C21617380   5.053   5.730   7.933  0.0957 -0.5614 -0.4691
  156SAPE  H16R17381   4.960   5.789   7.943  0.7738  0.7927 -1.7324
  156SAPE  H16S17382   5.092   5.745   7.830  0.3218 -0.8516 -0.4262
  156SAPE  C21717383   5.157   5.789   8.036 -0.0345  0.1171  0.2255
  156SAPE  H17R17384   5.202   5.881   7.991  2.9800 -1.2875  0.1156
  156SAPE  H17S17385   5.242   5.719   8.047 -1.9373 -2.4693 -0.6556
  156SAPE  C21817386   5.095   5.834   8.172  0.2836  0.2585  0.2646
  156SAPE  H18R17387   5.049   5.746   8.222  0.1210 -0.9783 -1.9301
  156SAPE  H18S17388   5.025   5.915   8.142  1.6065  0.7727 -1.6771
  156SAPE  C21917389   5.215   5.886   8.259 -0.2207 -0.0650  0.3726
  156SAPE  H19R17390   5.275   5.957   8.198 -0.2707 -0.0420  0.3499
  156SAPE  H19S17391   5.290   5.806   8.275 -1.2286 -0.6415  2.5222
  156SAPE  C22017392   5.168   5.947   8.390  0.2286 -0.0289 -0.5625
  156SAPE  H20R17393   5.143   5.869   8.465 -1.3970  0.7561 -0.2421
  156SAPE  H20S17394   5.085   6.020   8.379 -0.5402 -0.5932  1.1952
  156SAPE  H20T17395   5.249   6.005   8.441  0.2431  0.0026 -0.6218
  156SAPE   C3317396   6.144   5.980   7.242  0.4830  0.0367  0.6877
  156SAPE   H3X17397   6.051   6.021   7.286  1.3351  2.1487  0.6662
  156SAPE   H3Y17398   6.184   6.071   7.191 -1.0808  0.7454  0.6653
  156SAPE   C3417399   6.235   5.932   7.352 -0.2301  0.0246 -0.2041
  156SAPE   H4X17400   6.300   6.010   7.396  0.8439 -0.5820 -0.6706
  156SAPE   H4Y17401   6.308   5.858   7.313 -0.4511 -1.1204  1.4090
  156SAPE   C3517402   6.159   5.884   7.479  0.8936 -0.5565  0.3283
  156SAPE   H5X17403   6.084   5.804   7.462 -0.3931 -0.1294  3.2782
  156SAPE   H5Y17404   6.107   5.977   7.512  0.7129  0.0570 -1.5427
  156SAPE   C3617405   6.267   5.836   7.584 -0.2752 -0.5428 -0.5493
  156SAPE   H6X17406   6.363   5.816   7.532  1.0714  0.7550  1.3146
  156SAPE   H6Y17407   6.244   5.732   7.613 -1.4302  0.2797  1.6773
  156SAPE   C3717408   6.289   5.938   7.695 -0.3767 -0.2261  0.0853
  156SAPE   H7X17409   6.187   5.951   7.737 -1.1348  2.8907 -2.3306
  156SAPE   H7Y17410   6.323   6.036   7.654  0.8314 -1.6561 -2.5908
  156SAPE   C3817411   6.393   5.901   7.799 -0.0778  0.2952  0.1855
  156SAPE   H8X17412   6.401   5.988   7.867 -0.2992  1.8046 -1.6298
  156SAPE   H8Y17413   6.491   5.908   7.746 -0.6062  0.8182 -0.7472
  156SAPE   C3917414   6.388   5.770   7.874  0.0806  0.2569  0.5768
  156SAPE   H9X17415   6.473   5.736   7.937  0.3301 -2.5326 -1.0902
  156SAPE   H9Y17416   6.372   5.692   7.796 -0.1211  0.9821 -0.1186
  156SAPE  C31017417   6.276   5.764   7.977 -0.6572 -0.3979  0.4196
  156SAPE  H10X17418   6.184   5.780   7.916  0.9159  1.7662 -1.5591
  156SAPE  H10Y17419   6.294   5.850   8.046 -1.0214  1.1705 -1.3676
  156SAPE  C31117420   6.256   5.629   8.048  0.1898 -0.8006  0.5709
  156SAPE  H11X17421   6.353   5.608   8.099  0.2062 -1.0597  0.4329
  156SAPE  H11Y17422   6.226   5.559   7.968 -0.8999  0.9289 -0.6106
  156SAPE  C31217423   6.139   5.644   8.154  0.3375 -0.0127  0.1896
  156SAPE  H12X17424   6.098   5.554   8.204  3.1164  0.0806  2.9717
  156SAPE  H12Y17425   6.053   5.690   8.102 -0.6362  0.4390  2.1014
  156SAPE  C31317426   6.169   5.731   8.286 -0.1715 -0.5003 -0.2269
  156SAPE  H13X17427   6.228   5.821   8.259 -2.2200  0.4755 -1.7196
  156SAPE  H13Y17428   6.231   5.670   8.356  1.7981 -0.8069 -2.1241
  156SAPE  C31417429   6.054   5.790   8.363 -0.9290  0.4717  0.2180
  156SAPE  H14X17430   6.084   5.843   8.456 -0.8033 -0.0578  0.4762
  156SAPE  H14Y17431   5.974   5.720   8.392  0.6744 -1.7291 -0.3748
  156SAPE  C31517432   5.979   5.905   8.288 -0.0667 -0.0270 -0.1470
  156SAPE  H15X17433   5.944   5.861   8.192 -0.5045  0.5532 -0.2540
  156SAPE  H15Y17434   6.035   5.997   8.263 -0.3331  0.1360 -0.1480
  156SAPE  C31617435   5.848   5.937   8.358 -0.3244  0.3528  0.1658
  156SAPE  H16X17436   5.860   5.965   8.465 -0.0425 -0.0702  0.2502
  156SAPE  H16Y17437   5.781   5.848   8.359 -0.6549  0.5941 -0.5296
  156SAPE  C31717438   5.772   6.037   8.275 -0.1181 -0.0296 -0.4577
  156SAPE  H17X17439   5.789   6.009   8.169  0.6523 -0.5096 -0.2152
  156SAPE  H17Y17440   5.824   6.131   8.304  0.5642 -1.1806  2.3303
  156SAPE  C31817441   5.627   6.066   8.309 -0.7366 -0.1541  0.3825
  156SAPE  H18X17442   5.610   6.126   8.400 -3.3977 -0.5586  0.2301
  156SAPE  H18Y17443   5.576   5.968   8.325  1.8771 -1.8891 -1.1541
  156SAPE  H18Z17444   5.579   6.123   8.227 -1.3479 -0.7556  0.3099
  157SAPE     N17445   1.480   1.552   6.480  0.0823 -0.6561  0.3412
  157SAPE   HN117446   1.380   1.527   6.473 -0.1053 -0.0927  0.8771
  157SAPE   HN217447   1.521   1.556   6.576  2.2196 -0.3566 -0.5152
  157SAPE   HN317448   1.496   1.645   6.438  0.2589 -0.5624  0.6073
  157SAPE   C1217449   1.550   1.438   6.404  0.1745 -0.3926 -0.4381
  157SAPE  H12A17450   1.503   1.349   6.452 -2.3158  1.8414  1.6337
  157SAPE  H12B17451   1.657   1.449   6.432  0.6304 -0.9932 -1.8842
  157SAPE   C1117452   1.516   1.444   6.248 -0.4318 -0.2580  0.2686
  157SAPE  H11A17453   1.409   1.418   6.237 -0.4171 -1.0534  1.7193
  157SAPE  H11B17454   1.582   1.361   6.212  2.2163  1.7149  0.2550
  157SAPE     P17455   1.693   1.613   6.146 -0.2360 -0.0444 -0.2348
  157SAPE   O1317456   1.748   1.517   6.046 -0.0420  0.0810  0.1423
  157SAPE   O1417457   1.678   1.757   6.111  0.1694 -0.9998 -0.0776
  157SAPE   O1217458   1.551   1.563   6.185  1.1245  0.1144 -0.4532
  157SAPE   O1117459   1.758   1.616   6.289  0.0323 -0.4647 -0.3420
  157SAPE    C117460   1.872   1.714   6.307  0.0481 -0.1837  0.3186
  157SAPE    HA17461   1.964   1.667   6.268 -0.4206  0.5699 -1.8422
  157SAPE    HB17462   1.859   1.803   6.242 -2.4831  0.5633  1.7140
  157SAPE    C217463   1.889   1.766   6.447  0.0850  0.7413 -0.3985
  157SAPE    HS17464   1.976   1.836   6.448  2.3705 -1.9046 -1.8254
  157SAPE   O2117465   1.895   1.661   6.543 -0.2540  0.0767  0.3474
  157SAPE   C2117466   2.005   1.588   6.538 -0.4949  0.1594 -0.0198
  157SAPE   O2217467   2.095   1.588   6.456  0.0270  0.0316 -0.0402
  157SAPE   C2217468   1.993   1.493   6.657  0.3933 -1.0885  0.2190
  157SAPE   H2R17469   1.998   1.549   6.753 -0.5517  1.6463 -1.2239
  157SAPE   H2S17470   1.890   1.455   6.644 -0.2981  1.1623 -1.6036
  157SAPE    C317471   1.776   1.863   6.488  0.0197 -0.1609 -0.1164
  157SAPE    HX17472   1.689   1.799   6.517 -0.0751  0.1977  0.3892
  157SAPE    HY17473   1.737   1.925   6.405  3.4952  2.1534 -0.2296
  157SAPE   O3117474   1.811   1.954   6.592 -0.5509 -0.0036 -0.4857
  157SAPE   C3117475   1.776   1.934   6.715 -0.2256  0.4785  0.5035
  157SAPE   O3217476   1.699   1.847   6.747 -0.2206  0.1553  0.0914
  157SAPE   C3217477   1.847   2.026   6.818 -0.1590  0.0503  0.5815
  157SAPE   H2X17478   1.807   2.127   6.796 -2.9935 -1.0069  0.5731
  157SAPE   H2Y17479   1.956   2.030   6.792 -0.4573  2.1934 -0.5588
  157SAPE   C2317480   2.081   1.365   6.647  0.3747  0.1534 -0.0334
  157SAPE   H3R17481   2.182   1.405   6.621 -0.0152  0.8784 -0.4592
  157SAPE   H3S17482   2.051   1.310   6.555 -1.3556  1.2574 -0.1642
  157SAPE   C2417483   2.091   1.266   6.766  0.0557 -0.3098 -0.7880
  157SAPE   H4R17484   2.151   1.180   6.729  2.3407  0.9437 -0.1937
  157SAPE   H4S17485   1.988   1.234   6.792 -1.0680  3.1528 -0.5053
  157SAPE   C2517486   2.167   1.328   6.878 -0.5864  0.0394  0.1617
  157SAPE   H5R17487   2.277   1.325   6.867 -0.3142 -0.8326  2.6529
  157SAPE   C2617488   2.103   1.390   6.983 -0.0302  0.7760  0.1892
  157SAPE   H6R17489   2.168   1.421   7.066  2.2608 -0.9457 -0.8629
  157SAPE   C2717490   1.950   1.402   7.000 -0.0850  0.5902  0.2065
  157SAPE   H7R17491   1.916   1.323   7.071 -1.6078  0.8488 -0.2033
  157SAPE   H7S17492   1.895   1.389   6.905  0.0025 -1.0706  0.3583
  157SAPE   C2817493   1.895   1.530   7.066 -0.1432 -0.4350 -0.4478
  157SAPE   H8R17494   1.903   1.613   6.994 -3.3966 -1.4685 -2.1808
  157SAPE   C2917495   1.833   1.543   7.188 -0.1650 -0.0444 -0.5243
  157SAPE   H9R17496   1.792   1.636   7.227  2.1060  0.6479  0.4044
  157SAPE  C21017497   1.816   1.426   7.274 -0.8154  0.2349  0.5000
  157SAPE  H10R17498   1.821   1.470   7.376 -2.2931  1.6592 -0.0093
  157SAPE  H10S17499   1.907   1.362   7.270 -1.1628 -0.3569  1.5337
  157SAPE  C21117500   1.693   1.342   7.256 -0.6473  0.5125  0.0355
  157SAPE  H11R17501   1.643   1.353   7.159 -1.3406  0.3309  0.3654
  157SAPE  C21217502   1.636   1.264   7.350 -0.2147  0.7704  0.0510
  157SAPE  H12R17503   1.552   1.203   7.312  1.5245 -1.0633 -1.1112
  157SAPE  C21317504   1.687   1.242   7.487 -0.5270 -0.1272 -0.4035
  157SAPE  H13R17505   1.641   1.327   7.542  0.1275  0.5283 -0.8501
  157SAPE  H13S17506   1.797   1.262   7.492 -0.4802 -0.4059 -0.2866
  157SAPE  C21417507   1.672   1.105   7.540  0.2672 -0.5678  0.3177
  157SAPE  H14R17508   1.764   1.045   7.538  1.0931  0.5190  2.4443
  157SAPE  C21517509   1.554   1.060   7.579  0.7101 -0.2832  0.0141
  157SAPE  H15R17510   1.552   0.958   7.622  1.9854 -0.0947  0.5904
  157SAPE  C21617511   1.420   1.140   7.579 -0.5953  0.4008 -0.1133
  157SAPE  H16R17512   1.340   1.062   7.581 -1.8111  1.6239  0.4791
  157SAPE  H16S17513   1.411   1.206   7.490  2.0333  2.3627  0.9423
  157SAPE  C21717514   1.410   1.217   7.710 -0.5013 -0.5772 -0.0818
  157SAPE  H17R17515   1.321   1.281   7.725 -0.7449 -0.8125 -0.5152
  157SAPE  H17S17516   1.491   1.293   7.717 -1.2848  0.3326 -0.7894
  157SAPE  C21817517   1.416   1.125   7.836  0.1301 -0.0535 -0.8506
  157SAPE  H18R17518   1.501   1.057   7.858  0.5925  1.7402  4.0818
  157SAPE  H18S17519   1.321   1.067   7.832 -1.2097  2.0091 -0.6507
  157SAPE  C21917520   1.401   1.206   7.960 -0.0434 -0.1154 -0.5048
  157SAPE  H19R17521   1.346   1.298   7.934  1.8459  0.6751 -1.9623
  157SAPE  H19S17522   1.502   1.229   8.001  1.2374 -0.4372 -3.2517
  157SAPE  C22017523   1.322   1.135   8.072 -0.1508  0.2856  0.4693
  157SAPE  H20R17524   1.338   1.196   8.163  2.7087  0.0751  0.2124
  157SAPE  H20S17525   1.364   1.034   8.091  0.7704  0.8997  1.8113
  157SAPE  H20T17526   1.213   1.125   8.053 -0.2215  0.6293  0.6920
  157SAPE   C3317527   1.842   1.966   6.960 -0.4339 -0.2323 -0.3111
  157SAPE   H3X17528   1.899   1.871   6.959 -0.0177  0.0096 -1.5569
  157SAPE   H3Y17529   1.733   1.956   6.981 -0.7493  0.8354 -1.2912
  157SAPE   C3417530   1.900   2.056   7.064 -0.5031 -0.0956  0.2059
  157SAPE   H4X17531   1.847   2.154   7.071 -1.4682 -0.6185  0.3112
  157SAPE   H4Y17532   1.998   2.094   7.029 -0.7076  1.3763  1.1535
  157SAPE   C3517533   1.915   1.989   7.202  0.5667 -0.0980  0.8145
  157SAPE   H5X17534   1.967   2.058   7.272  0.3305  1.6451 -0.6575
  157SAPE   H5Y17535   1.980   1.899   7.190  0.6421  0.2518 -2.0047
  157SAPE   C3617536   1.777   1.956   7.269  0.2766  0.8619 -0.2020
  157SAPE   H6X17537   1.763   1.846   7.263  0.1935  0.8617  0.0130
  157SAPE   H6Y17538   1.693   2.014   7.226 -1.1819 -1.9017 -1.3676
  157SAPE   C3717539   1.775   1.966   7.418  0.3756 -0.8509 -0.6397
  157SAPE   H7X17540   1.825   2.060   7.448  1.2325 -1.4163 -0.2715
  157SAPE   H7Y17541   1.833   1.888   7.472  0.4911 -0.3296 -0.0028
  157SAPE   C3817542   1.637   1.985   7.474  0.2250 -0.3224  0.1260
  157SAPE   H8X17543   1.590   1.893   7.431  0.4836 -0.4580  0.1349
  157SAPE   H8Y17544   1.592   2.084   7.450  1.5776  0.7053  1.6583
  157SAPE   C3917545   1.637   1.978   7.627  0.7794 -0.0067  0.0972
  157SAPE   H9X17546   1.715   2.044   7.671  0.1911  0.1776  0.8948
  157SAPE   H9Y17547   1.670   1.876   7.656 -2.3403 -1.4961 -1.0783
  157SAPE  C31017548   1.500   2.013   7.700  0.1613  0.1904 -0.4378
  157SAPE  H10X17549   1.424   1.989   7.623 -1.4024  2.6151  0.2392
  157SAPE  H10Y17550   1.494   2.123   7.711  1.8224  0.3831 -1.1568
  157SAPE  C31117551   1.479   1.929   7.829 -0.4126 -0.5010 -0.5081
  157SAPE  H11X17552   1.479   1.819   7.812  3.1296 -1.2208  2.6451
  157SAPE  H11Y17553   1.373   1.952   7.856 -0.8627  0.9800 -3.1622
  157SAPE  C31217554   1.579   1.964   7.940 -0.4053 -0.4808  0.0640
  157SAPE  H12X17555   1.573   2.073   7.959  0.4358 -0.8503  2.8729
  157SAPE  H12Y17556   1.680   1.935   7.903 -0.9024 -1.0443 -0.9205
  157SAPE  C31317557   1.530   1.900   8.075  0.3858 -0.1353 -0.3813
  157SAPE  H13X17558   1.512   1.791   8.063  0.2468 -0.0628 -0.8295
  157SAPE  H13Y17559   1.443   1.960   8.108  1.0945 -0.6598  2.8610
  157SAPE  C31417560   1.616   1.924   8.196 -0.2225  0.1283  0.6877
  157SAPE  H14X17561   1.706   1.858   8.190  0.3206  0.9017  0.0127
  157SAPE  H14Y17562   1.552   1.902   8.284 -2.7469  0.2057 -1.0191
  157SAPE  C31517563   1.675   2.072   8.209 -0.4512  0.5711  0.1216
  157SAPE  H15X17564   1.582   2.132   8.224 -0.0566  1.0525  0.6487
  157SAPE  H15Y17565   1.744   2.093   8.124  1.4393 -0.0525  1.4515
  157SAPE  C31617566   1.762   2.084   8.336 -0.4964  0.1348 -0.0741
  157SAPE  H16X17567   1.835   2.000   8.342 -0.1908  0.4162  0.2236
  157SAPE  H16Y17568   1.690   2.081   8.420 -2.4027  0.3319 -1.6413
  157SAPE  C31717569   1.845   2.216   8.341 -0.3978  0.0906  0.1734
  157SAPE  H17X17570   1.938   2.209   8.281  0.1635 -0.6709  1.1045
  157SAPE  H17Y17571   1.880   2.230   8.446 -1.8386  0.1046  0.6766
  157SAPE  C31817572   1.764   2.339   8.319 -0.3582 -0.1531  0.2655
  157SAPE  H18X17573   1.684   2.346   8.396 -1.6337  0.5341 -1.0722
  157SAPE  H18Y17574   1.715   2.346   8.220  0.3171 -0.6903 -0.1178
  157SAPE  H18Z17575   1.823   2.433   8.329 -2.1853  1.1598 -0.5932
  158SAPE     N17576   3.597   6.448   5.849  0.0129 -0.5279 -0.1743
  158SAPE   HN117577   3.608   6.547   5.819  1.9349 -0.6407 -0.0092
  158SAPE   HN217578   3.697   6.425   5.865  1.4373  2.8682 -2.7613
  158SAPE   HN317579   3.571   6.395   5.763  0.4907 -0.8771 -0.1118
  158SAPE   C1217580   3.511   6.430   5.972  0.1926  0.5109 -0.2230
  158SAPE  H12A17581   3.514   6.322   5.997  1.5783  0.0602 -2.0396
  158SAPE  H12B17582   3.412   6.456   5.928 -0.2496  0.3991  0.6855
  158SAPE   C1117583   3.546   6.530   6.082  0.0181  0.0037 -0.2796
  158SAPE  H11A17584   3.482   6.512   6.170  0.5334 -0.1202  0.0754
  158SAPE  H11B17585   3.531   6.636   6.052 -1.2445  0.0647  0.5310
  158SAPE     P17586   3.728   6.412   6.221 -0.1684  0.5881  0.1527
  158SAPE   O1317587   3.679   6.282   6.183 -0.3764 -0.0124  0.2845
  158SAPE   O1417588   3.869   6.425   6.248 -0.1909 -0.3787  0.0533
  158SAPE   O1217589   3.685   6.522   6.117  0.5877 -0.1698  0.5014
  158SAPE   O1117590   3.643   6.445   6.350 -0.9032 -0.1950 -1.1187
  158SAPE    C117591   3.654   6.582   6.400 -0.4879 -0.3612 -0.3080
  158SAPE    HA17592   3.684   6.649   6.317  2.7981  1.7511  2.3490
  158SAPE    HB17593   3.554   6.615   6.437  1.2093  2.0315  2.6036
  158SAPE    C217594   3.752   6.589   6.526  0.0243 -0.1829  0.0435
  158SAPE    HS17595   3.850   6.553   6.485  0.6201  1.3869  0.0198
  158SAPE   O2117596   3.702   6.506   6.636  0.2016 -0.6877  0.8107
  158SAPE   C2117597   3.806   6.474   6.713  0.2679  0.4045 -0.6668
  158SAPE   O2217598   3.927   6.492   6.695 -0.1580 -0.0892  0.0266
  158SAPE   C2217599   3.743   6.408   6.835  0.5412  0.1859 -0.0437
  158SAPE   H2R17600   3.654   6.466   6.867  0.7047  0.2234  0.3431
  158SAPE   H2S17601   3.715   6.306   6.801  0.7528 -0.1308  0.7076
  158SAPE    C317602   3.772   6.732   6.579 -0.2366 -0.0880  0.5861
  158SAPE    HX17603   3.829   6.786   6.500 -1.2471 -0.8233 -0.6871
  158SAPE    HY17604   3.834   6.726   6.671 -2.7679 -0.2615  2.3682
  158SAPE   O3117605   3.644   6.799   6.592 -0.2550  0.2550  0.1637
  158SAPE   C3117606   3.601   6.812   6.712 -0.2870 -0.3183  0.4067
  158SAPE   O3217607   3.659   6.777   6.814 -0.4426  0.2624 -0.1064
  158SAPE   C3217608   3.469   6.875   6.698  0.1696  0.1921  0.1067
  158SAPE   H2X17609   3.418   6.816   6.619  1.6336  0.7082 -1.2744
  158SAPE   H2Y17610   3.484   6.974   6.651  0.9169 -0.0430 -0.1678
  158SAPE   C2317611   3.829   6.404   6.959 -0.6927  0.2622  0.3675
  158SAPE   H3R17612   3.938   6.406   6.940  0.0117  0.4892  3.7666
  158SAPE   H3S17613   3.794   6.317   7.019  1.4569  0.2935  1.7764
  158SAPE   C2417614   3.801   6.524   7.058  1.0825  0.5605  0.0925
  158SAPE   H4R17615   3.693   6.529   7.084  0.3814  1.3284 -2.6036
  158SAPE   H4S17616   3.823   6.614   6.997  3.0235 -0.4521 -0.8108
  158SAPE   C2517617   3.888   6.521   7.173  0.9349  0.4155 -0.5758
  158SAPE   H5R17618   3.994   6.527   7.144  1.4650  0.9191  1.3095
  158SAPE   C2617619   3.866   6.528   7.306 -0.5665  0.5617 -0.6486
  158SAPE   H6R17620   3.955   6.525   7.370 -0.2738 -0.3289 -1.0884
  158SAPE   C2717621   3.739   6.523   7.385  0.1296  0.2678  0.4654
  158SAPE   H7R17622   3.647   6.508   7.325 -0.4741 -0.6729  1.6014
  158SAPE   H7S17623   3.708   6.612   7.443 -1.6974 -0.5486  0.8092
  158SAPE   C2817624   3.754   6.392   7.465 -1.1542  0.1540 -1.1320
  158SAPE   H8R17625   3.742   6.297   7.410  0.9509 -1.5234  1.1068
  158SAPE   C2917626   3.772   6.389   7.602 -0.2132 -0.7806 -0.0425
  158SAPE   H9R17627   3.780   6.294   7.657  0.0451 -1.0927 -0.6042
  158SAPE  C21017628   3.793   6.519   7.675  1.0628 -0.0807 -0.0177
  158SAPE  H10R17629   3.842   6.601   7.618 -1.2108  1.5032  0.1733
  158SAPE  H10S17630   3.868   6.488   7.751  0.3337 -1.5396  0.1457
  158SAPE  C21117631   3.661   6.569   7.736 -0.2922 -0.1888  0.4416
  158SAPE  H11R17632   3.582   6.604   7.669 -1.2221 -2.3644  0.3114
  158SAPE  C21217633   3.630   6.566   7.865 -1.0679 -0.6183  0.8680
  158SAPE  H12R17634   3.527   6.597   7.888 -1.5021  1.1587 -2.6552
  158SAPE  C21317635   3.711   6.513   7.989 -0.1840 -0.1555  0.0659
  158SAPE  H13R17636   3.687   6.565   8.084 -0.3737 -2.5670  1.4268
  158SAPE  H13S17637   3.818   6.540   7.978  0.1847 -1.4990  0.1660
  158SAPE  C21417638   3.690   6.364   8.004 -0.1303 -0.6125  0.5734
  158SAPE  H14R17639   3.728   6.300   7.922  2.1723  1.3182  0.0212
  158SAPE  C21517640   3.613   6.301   8.097 -0.4668  0.2792 -0.2374
  158SAPE  H15R17641   3.594   6.193   8.101  4.5985 -0.8411  1.4561
  158SAPE  C21617642   3.536   6.386   8.204 -0.1506 -0.1689 -0.7514
  158SAPE  H16R17643   3.435   6.346   8.227  0.0985 -0.7429 -0.6378
  158SAPE  H16S17644   3.527   6.495   8.185  1.2470  0.2249  0.6473
  158SAPE  C21717645   3.614   6.380   8.338 -0.3383 -0.1183  0.4378
  158SAPE  H17R17646   3.716   6.423   8.327 -0.2030 -0.8651 -1.6521
  158SAPE  H17S17647   3.640   6.275   8.362 -0.2588  0.0907  1.2982
  158SAPE  C21817648   3.533   6.449   8.444 -0.2845 -0.5898 -0.1902
  158SAPE  H18R17649   3.429   6.410   8.442 -0.4605 -0.0972 -1.1994
  158SAPE  H18S17650   3.535   6.559   8.427 -1.7565 -0.9889 -3.7005
  158SAPE  C21917651   3.588   6.416   8.590  0.4774  0.1346  0.8319
  158SAPE  H19R17652   3.598   6.306   8.590 -0.0720  0.0529 -0.8685
  158SAPE  H19S17653   3.506   6.453   8.655  1.1531 -0.0259  1.8025
  158SAPE  C22017654   3.720   6.476   8.630  0.3946 -0.2724  0.3457
  158SAPE  H20R17655   3.708   6.569   8.689 -0.6858 -0.4013  0.3369
  158SAPE  H20S17656   3.783   6.487   8.539 -0.8201 -3.1505 -0.9702
  158SAPE  H20T17657   3.773   6.397   8.688  0.2731 -1.1449 -0.7120
  158SAPE   C3317658   3.394   6.882   6.826 -0.2882 -0.0736  0.5098
  158SAPE   H3X17659   3.357   6.782   6.857  0.4086 -0.7695 -0.8137
  158SAPE   H3Y17660   3.297   6.930   6.804 -2.6972 -3.8368  1.8565
  158SAPE   C3417661   3.453   6.965   6.941 -0.1824  0.3716 -0.3524
  158SAPE   H4X17662   3.491   7.062   6.903  1.3163  0.2597  0.7435
  158SAPE   H4Y17663   3.544   6.920   6.985 -0.7889 -0.0438  0.4931
  158SAPE   C3517664   3.359   6.986   7.065 -0.3739  0.5458  0.0985
  158SAPE   H5X17665   3.360   6.891   7.122  2.2859  0.4106 -0.0736
  158SAPE   H5Y17666   3.259   7.017   7.027 -1.0320 -4.2513 -2.9091
  158SAPE   C3617667   3.413   7.082   7.168 -0.0609 -0.3371 -1.1253
  158SAPE   H6X17668   3.400   7.184   7.125 -0.1373  0.5478  0.8727
  158SAPE   H6Y17669   3.523   7.078   7.185  0.0440 -1.1654 -1.9298
  158SAPE   C3717670   3.326   7.066   7.297  0.1380  0.1055 -0.1426
  158SAPE   H7X17671   3.218   7.087   7.276  0.4694 -0.8657 -3.3296
  158SAPE   H7Y17672   3.331   6.958   7.322  2.3481  0.4630  1.2528
  158SAPE   C3817673   3.389   7.145   7.410  0.5824  0.1215  0.6451
  158SAPE   H8X17674   3.421   7.246   7.375 -0.0250 -0.0470 -0.4111
  158SAPE   H8Y17675   3.480   7.096   7.452  2.1965  2.5570  0.2070
  158SAPE   C3917676   3.299   7.159   7.532  0.2832 -0.0822 -0.3524
  158SAPE   H9X17677   3.280   7.052   7.555 -1.5768  0.5392  1.1946
  158SAPE   H9Y17678   3.201   7.211   7.520 -1.6869 -3.8365 -2.3453
  158SAPE  C31017679   3.369   7.208   7.658  0.0767  0.1765  0.4310
  158SAPE  H10X17680   3.395   7.315   7.640  1.7666 -0.3125 -0.2742
  158SAPE  H10Y17681   3.454   7.138   7.667 -1.4379 -1.8409 -0.2453
  158SAPE  C31117682   3.275   7.205   7.780  0.9390 -0.1701 -0.5643
  158SAPE  H11X17683   3.233   7.104   7.797 -0.6304  0.6339  0.6907
  158SAPE  H11Y17684   3.182   7.258   7.749  1.8492  0.0455 -3.1694
  158SAPE  C31217685   3.321   7.288   7.894  0.0307 -0.7206  0.1540
  158SAPE  H12X17686   3.342   7.389   7.853  0.0231 -0.6362  0.3570
  158SAPE  H12Y17687   3.424   7.259   7.925 -0.7666 -1.8084  1.9530
  158SAPE  C31317688   3.218   7.311   8.006 -0.4465  0.1147 -0.4033
  158SAPE  H13X17689   3.173   7.214   8.035 -2.4615  0.9344 -0.6699
  158SAPE  H13Y17690   3.145   7.391   7.982 -0.5124  0.1897  0.0445
  158SAPE  C31417691   3.295   7.373   8.127 -0.1451  0.3613  0.1585
  158SAPE  H14X17692   3.326   7.475   8.096 -1.1165  0.5812 -0.1380
  158SAPE  H14Y17693   3.384   7.309   8.144 -0.3543 -0.4613 -1.5964
  158SAPE  C31517694   3.216   7.384   8.258  0.3159  0.1474  0.2737
  158SAPE  H15X17695   3.167   7.286   8.273 -0.7529  0.5180 -0.6650
  158SAPE  H15Y17696   3.143   7.467   8.246 -1.9152 -1.8621 -0.7846
  158SAPE  C31617697   3.318   7.400   8.369 -0.6573 -0.2193  0.1885
  158SAPE  H16X17698   3.361   7.503   8.371  0.4153 -0.6614  0.8923
  158SAPE  H16Y17699   3.404   7.331   8.354 -0.2596  0.2779  0.1300
  158SAPE  C31717700   3.243   7.391   8.505  0.0286 -0.5066  0.7812
  158SAPE  H17X17701   3.154   7.457   8.509  1.3861  1.3645  1.7067
  158SAPE  H17Y17702   3.313   7.429   8.583  0.1845  0.3535  0.2308
  158SAPE  C31817703   3.185   7.252   8.541 -0.0692 -0.4122 -0.2014
  158SAPE  H18X17704   3.158   7.247   8.648 -2.6948 -2.2068 -0.8466
  158SAPE  H18Y17705   3.268   7.179   8.530 -0.7303 -1.2231  0.1215
  158SAPE  H18Z17706   3.094   7.229   8.482  0.0500 -1.6584  0.0810
  159SAPE     N17707   3.410   2.398   6.174 -0.0100  0.1929  0.2318
  159SAPE   HN117708   3.491   2.458   6.200  0.1113  0.3339 -0.4360
  159SAPE   HN217709   3.348   2.383   6.255 -2.9747  0.0123 -1.8976
  159SAPE   HN317710   3.448   2.307   6.141  0.9043  0.8187 -0.5003
  159SAPE   C1217711   3.341   2.460   6.059 -0.4562  0.2973 -0.7445
  159SAPE  H12A17712   3.402   2.442   5.969 -1.1019 -1.9722 -0.7959
  159SAPE  H12B17713   3.346   2.568   6.087 -0.2354 -0.2455  1.4775
  159SAPE   C1117714   3.204   2.397   6.028  0.2218  0.5264 -0.0599
  159SAPE  H11A17715   3.221   2.295   5.987 -2.6932  0.6721 -1.9745
  159SAPE  H11B17716   3.155   2.459   5.949  2.7125  2.9786  0.1590
  159SAPE     P17717   2.975   2.326   6.122  0.3201 -0.3573  0.0477
  159SAPE   O1317718   2.886   2.447   6.093 -1.0091  0.2685  0.3874
  159SAPE   O1417719   2.975   2.225   6.016  0.9562 -0.0836  0.7254
  159SAPE   O1217720   3.121   2.374   6.142 -0.1194  0.0222  0.2512
  159SAPE   O1117721   2.934   2.255   6.256  0.2317  0.0832 -0.5761
  159SAPE    C117722   2.943   2.342   6.373  0.2133 -0.7815  1.3726
  159SAPE    HA17723   3.049   2.373   6.390  0.8147 -0.1132 -2.6098
  159SAPE    HB17724   2.874   2.429   6.366 -0.7369 -1.5075  1.5701
  159SAPE    C217725   2.887   2.270   6.499  0.0633 -0.1319  0.2346
  159SAPE    HS17726   2.913   2.329   6.589 -1.0086  0.7092  0.0090
  159SAPE   O2117727   2.929   2.129   6.502 -0.3860  0.2295  0.0505
  159SAPE   C2117728   3.053   2.119   6.536  0.0051 -0.1747 -0.1880
  159SAPE   O2217729   3.126   2.212   6.564  0.3849  0.4335 -0.1489
  159SAPE   C2217730   3.081   1.968   6.544  0.5566  0.2854  0.2966
  159SAPE   H2R17731   3.022   1.925   6.461 -1.3806 -0.4421  1.9493
  159SAPE   H2S17732   3.189   1.948   6.527  0.3884 -0.5838  0.2272
  159SAPE    C317733   2.733   2.275   6.492  0.4737  0.1461  0.0482
  159SAPE    HX17734   2.701   2.237   6.393  0.0294 -0.4056  0.3973
  159SAPE    HY17735   2.701   2.381   6.502  2.7710  0.9110 -0.0529
  159SAPE   O3117736   2.669   2.199   6.596  0.1061 -0.1775 -0.0887
  159SAPE   C3117737   2.672   2.254   6.714 -0.1800 -0.2631 -0.0331
  159SAPE   O3217738   2.713   2.363   6.747  0.3289  0.1626  0.5705
  159SAPE   C3217739   2.615   2.154   6.813 -0.4137 -0.8373  0.5465
  159SAPE   H2X17740   2.630   2.049   6.779  1.7802  0.0296 -1.4152
  159SAPE   H2Y17741   2.510   2.184   6.833 -0.0359  2.8058 -2.0623
  159SAPE   C2317742   3.048   1.908   6.686  0.2515  0.6504  0.0242
  159SAPE   H3R17743   3.029   1.801   6.662  0.0032  0.5901  0.4741
  159SAPE   H3S17744   2.955   1.953   6.726 -0.7404 -1.6636  0.4641
  159SAPE   C2417745   3.164   1.921   6.789  0.8002  0.6092  0.0439
  159SAPE   H4R17746   3.257   1.901   6.731  0.3807 -2.9476  0.3648
  159SAPE   H4S17747   3.159   1.838   6.863  0.6306  1.8254  1.4326
  159SAPE   C2517748   3.176   2.057   6.855  0.6489 -0.1887  0.1455
  159SAPE   H5R17749   3.175   2.145   6.790  2.6792  1.5000  2.2322
  159SAPE   C2617750   3.171   2.077   6.990  0.4620  0.2690 -0.6598
  159SAPE   H6R17751   3.171   2.180   7.029 -3.3731  0.5419 -1.0100
  159SAPE   C2717752   3.162   1.984   7.112 -0.5517 -0.2242 -0.1612
  159SAPE   H7R17753   3.242   2.017   7.182  0.2710 -0.0433 -1.1656
  159SAPE   H7S17754   3.194   1.883   7.079  0.5262 -0.2389  0.8724
  159SAPE   C2817755   3.016   1.976   7.168 -0.4243  0.2772 -0.1371
  159SAPE   H8R17756   2.932   1.985   7.097 -1.0369 -0.8824  0.4197
  159SAPE   C2917757   2.975   1.953   7.294 -0.1772 -0.2890 -0.2441
  159SAPE   H9R17758   2.867   1.950   7.312  0.1885  0.3163  2.4417
  159SAPE  C21017759   3.056   1.921   7.420  0.1745 -0.3258 -0.3265
  159SAPE  H10R17760   3.014   1.989   7.497 -0.3436 -0.6169 -0.3443
  159SAPE  H10S17761   3.161   1.952   7.400  0.5863 -2.3983 -1.6832
  159SAPE  C21117762   3.048   1.770   7.442 -0.6001 -0.0051 -0.5154
  159SAPE  H11R17763   3.035   1.706   7.354  3.2224 -1.5553 -0.1327
  159SAPE  C21217764   3.063   1.707   7.562  0.4849 -0.4856  0.1496
  159SAPE  H12R17765   3.044   1.599   7.568  0.5291 -0.4833  0.3207
  159SAPE  C21317766   3.091   1.778   7.691 -0.5724  0.4438  0.3391
  159SAPE  H13R17767   3.168   1.855   7.669 -0.5782  1.9422  4.5596
  159SAPE  H13S17768   3.135   1.702   7.759  0.5002  0.0447 -0.7763
  159SAPE  C21417769   2.977   1.837   7.762 -0.2155 -0.5685 -1.2363
  159SAPE  H14R17770   2.876   1.830   7.720 -1.3839  0.8548  1.1808
  159SAPE  C21517771   2.995   1.921   7.870  0.3801 -0.0991 -0.5019
  159SAPE  H15R17772   2.904   1.968   7.910  0.3946 -0.8544  0.4440
  159SAPE  C21617773   3.115   1.959   7.952  0.1120  0.2665  0.1841
  159SAPE  H16R17774   3.145   2.062   7.922 -0.4187  0.3921  0.0760
  159SAPE  H16S17775   3.199   1.889   7.931 -0.2644  0.1359 -0.9762
  159SAPE  C21717776   3.099   1.964   8.105  0.1796  0.4095 -0.1187
  159SAPE  H17R17777   3.091   1.856   8.130 -0.0520  0.4058 -0.2141
  159SAPE  H17S17778   3.014   2.026   8.141  1.1317  1.4931  0.3104
  159SAPE  C21817779   3.230   2.016   8.170 -0.3206  0.5588 -0.5008
  159SAPE  H18R17780   3.306   2.005   8.089 -1.0957  1.6267 -1.4034
  159SAPE  H18S17781   3.270   1.957   8.255 -1.0489  0.2330 -0.3728
  159SAPE  C21917782   3.231   2.159   8.227  0.1829 -0.6400  0.5091
  159SAPE  H19R17783   3.320   2.174   8.292  1.0706  1.5938 -1.1043
  159SAPE  H19S17784   3.146   2.171   8.298 -1.1834  0.8354 -1.2839
  159SAPE  C22017785   3.233   2.271   8.119 -0.5231 -0.1450  0.0335
  159SAPE  H20R17786   3.134   2.269   8.068  0.1154  0.8978 -1.2865
  159SAPE  H20S17787   3.318   2.253   8.051 -0.5489 -2.2116  0.4750
  159SAPE  H20T17788   3.256   2.364   8.175  0.5844 -0.3127 -0.1307
  159SAPE   C3317789   2.670   2.167   6.961  0.0644  0.2664 -1.0014
  159SAPE   H3X17790   2.664   2.271   6.999 -1.9150  0.5692 -2.0545
  159SAPE   H3Y17791   2.772   2.126   6.943 -0.3724 -1.4631  0.1873
  159SAPE   C3417792   2.592   2.074   7.049 -0.1402 -0.1065  0.1953
  159SAPE   H4X17793   2.609   1.967   7.025  0.9769  0.3976 -1.3950
  159SAPE   H4Y17794   2.487   2.111   7.049 -0.0348  0.4005 -2.4442
  159SAPE   C3517795   2.626   2.082   7.197  0.0953 -0.1151  0.0010
  159SAPE   H5X17796   2.611   2.184   7.238  0.3845 -0.0586 -0.0303
  159SAPE   H5Y17797   2.735   2.058   7.200 -0.2265 -1.6398  1.6039
  159SAPE   C3617798   2.554   1.984   7.289  0.1447  0.4432 -0.4941
  159SAPE   H6X17799   2.565   1.886   7.237  2.8751  1.5674 -2.2769
  159SAPE   H6Y17800   2.449   2.019   7.296  0.5200  1.5630 -0.3239
  159SAPE   C3717801   2.612   1.998   7.429 -0.0541  0.3093 -0.5939
  159SAPE   H7X17802   2.540   2.052   7.494  0.7070  1.9961 -1.1101
  159SAPE   H7Y17803   2.704   2.061   7.425  0.0802  0.1014 -0.7888
  159SAPE   C3817804   2.667   1.868   7.485 -0.0131 -0.7837 -0.1990
  159SAPE   H8X17805   2.757   1.890   7.547  0.2640  0.7870 -1.0806
  159SAPE   H8Y17806   2.700   1.784   7.420  1.0411 -1.7279  1.5044
  159SAPE   C3917807   2.566   1.812   7.594  0.4208 -0.2426 -0.2442
  159SAPE   H9X17808   2.466   1.805   7.548  0.7033  2.0844 -1.3905
  159SAPE   H9Y17809   2.550   1.868   7.689  0.4614  0.6790 -0.7647
  159SAPE  C31017810   2.617   1.671   7.639  0.5430  0.1376  0.4956
  159SAPE  H10X17811   2.728   1.670   7.638  0.6099  2.4218  1.2169
  159SAPE  H10Y17812   2.573   1.598   7.568 -0.4394  1.3628 -0.1830
  159SAPE  C31117813   2.587   1.634   7.790  0.6616  0.3475 -0.2734
  159SAPE  H11X17814   2.646   1.713   7.841 -2.1460  1.8408  0.8800
  159SAPE  H11Y17815   2.633   1.536   7.813 -0.8064 -0.3927 -0.3675
  159SAPE  C31217816   2.436   1.632   7.801 -0.3817 -1.0103  0.2136
  159SAPE  H12X17817   2.385   1.596   7.710  0.6811  0.1182 -0.8588
  159SAPE  H12Y17818   2.399   1.737   7.805  2.5894  0.1825 -0.3124
  159SAPE  C31317819   2.393   1.572   7.934  0.1838  0.1393 -0.1892
  159SAPE  H13X17820   2.282   1.574   7.940  0.0278 -0.4605 -2.1313
  159SAPE  H13Y17821   2.425   1.640   8.016  0.7441  0.1319 -0.3992
  159SAPE  C31417822   2.429   1.425   7.949  0.3987  0.0178  0.4768
  159SAPE  H14X17823   2.539   1.428   7.965  0.7464 -1.1910 -1.3192
  159SAPE  H14Y17824   2.391   1.373   7.858  0.8167  0.9201 -0.2362
  159SAPE  C31517825   2.358   1.354   8.064  0.3632  0.1213  0.2838
  159SAPE  H15X17826   2.251   1.378   8.044 -0.6112 -3.8969 -0.3016
  159SAPE  H15Y17827   2.378   1.388   8.168 -0.3404 -1.6720  1.0470
  159SAPE  C31617828   2.364   1.202   8.058 -1.0055 -0.2048 -0.2026
  159SAPE  H16X17829   2.470   1.169   8.058 -1.4955 -1.8762  0.7504
  159SAPE  H16Y17830   2.326   1.165   7.960 -0.8471 -1.9355  0.3419
  159SAPE  C31717831   2.285   1.136   8.178  0.2912  0.0598  0.4440
  159SAPE  H17X17832   2.179   1.167   8.170 -0.2424 -1.2598  1.9438
  159SAPE  H17Y17833   2.323   1.183   8.271 -2.1137  2.7814  0.2099
  159SAPE  C31817834   2.296   0.979   8.185 -0.4228 -0.1048 -0.1955
  159SAPE  H18X17835   2.215   0.940   8.250 -1.4889  1.6463 -0.4202
  159SAPE  H18Y17836   2.397   0.943   8.214 -1.1212 -3.7638 -1.6910
  159SAPE  H18Z17837   2.278   0.930   8.086  0.0635 -0.1056 -0.2862
  160SAPE     N17838   4.587   1.963   6.368  0.3426  0.9242 -0.2776
  160SAPE   HN117839   4.627   1.902   6.294 -1.8296 -2.5194  1.1468
  160SAPE   HN217840   4.486   1.961   6.345  0.1435 -0.2115  0.6209
  160SAPE   HN317841   4.626   2.056   6.343 -0.2567  1.1515 -0.3878
  160SAPE   C1217842   4.616   1.931   6.507  0.0605 -0.5539 -1.1304
  160SAPE  H12A17843   4.569   1.834   6.536  1.1305 -0.7830 -0.0423
  160SAPE  H12B17844   4.572   2.006   6.576  2.3373 -0.5036  0.3973
  160SAPE   C1117845   4.763   1.913   6.534 -0.3061  0.4093 -0.8012
  160SAPE  H11A17846   4.774   1.936   6.642  1.4512 -0.3577 -0.7858
  160SAPE  H11B17847   4.818   2.002   6.498 -2.7620  1.8056 -1.2818
  160SAPE     P17848   4.931   1.715   6.545  0.4068 -0.0428  0.0066
  160SAPE   O1317849   4.953   1.595   6.461  0.4782  0.1311 -0.1073
  160SAPE   O1417850   5.046   1.806   6.545 -0.8561  0.4869  0.5849
  160SAPE   O1217851   4.802   1.787   6.483 -0.3817 -0.3622 -0.3671
  160SAPE   O1117852   4.884   1.668   6.694  0.1418  0.3944  0.7349
  160SAPE    C117853   4.756   1.601   6.703 -0.1910 -0.8619 -0.3624
  160SAPE    HA17854   4.682   1.657   6.642 -1.3787  0.1572  1.8668
  160SAPE    HB17855   4.764   1.493   6.680 -0.3629 -0.8645 -0.4130
  160SAPE    C217856   4.688   1.620   6.840 -0.7304  0.0011  0.0409
  160SAPE    HS17857   4.583   1.582   6.833 -1.0211  1.0541 -2.4973
  160SAPE   O2117858   4.686   1.759   6.881 -0.5408 -0.0863 -0.6194
  160SAPE   C2117859   4.582   1.839   6.847 -0.8326  0.5987  0.4891
  160SAPE   O2217860   4.494   1.805   6.768  0.0773  0.2839 -0.2858
  160SAPE   C2217861   4.580   1.966   6.928 -0.4020  0.2646  0.0209
  160SAPE   H2R17862   4.652   1.953   7.012  0.8232  0.3197 -0.9994
  160SAPE   H2S17863   4.608   2.053   6.866 -1.7420 -0.1261 -1.2005
  160SAPE    C317864   4.773   1.543   6.947  0.5405 -0.6832  0.6771
  160SAPE    HX17865   4.880   1.557   6.924  0.6166 -2.6861 -0.4840
  160SAPE    HY17866   4.761   1.434   6.925  1.0752 -0.6924  0.4340
  160SAPE   O3117867   4.734   1.581   7.080 -0.0240 -0.0964 -0.2295
  160SAPE   C3117868   4.800   1.685   7.132 -0.7078 -0.6210 -0.4099
  160SAPE   O3217869   4.888   1.747   7.078 -0.9615  0.1718  0.2339
  160SAPE   C3217870   4.780   1.707   7.281 -0.6425 -0.0280 -0.0890
  160SAPE   H2X17871   4.677   1.746   7.293 -0.4795  0.0108  1.4703
  160SAPE   H2Y17872   4.841   1.796   7.310 -1.6054  0.1469  1.5424
  160SAPE   C2317873   4.441   1.999   6.990  1.1295 -0.0913 -0.0460
  160SAPE   H3R17874   4.361   2.025   6.917 -0.0971  0.6834  1.5218
  160SAPE   H3S17875   4.442   2.086   7.059 -1.6900  1.3967 -1.6956
  160SAPE   C2417876   4.404   1.879   7.087  0.1611 -0.3469 -0.3290
  160SAPE   H4R17877   4.499   1.871   7.145  0.5314  1.4777 -0.6474
  160SAPE   H4S17878   4.383   1.780   7.041  0.1698 -0.4078 -0.2035
  160SAPE   C2517879   4.292   1.909   7.176  0.3838  0.1323  0.4569
  160SAPE   H5R17880   4.204   1.949   7.123  0.6877 -0.1364 -0.2618
  160SAPE   C2617881   4.284   1.892   7.307  0.3902  0.0246 -0.5181
  160SAPE   H6R17882   4.196   1.926   7.363 -1.3728 -1.1703 -2.4438
  160SAPE   C2717883   4.399   1.843   7.395 -0.0986  0.2825 -0.4417
  160SAPE   H7R17884   4.469   1.927   7.415  1.2830 -1.3340  1.9496
  160SAPE   H7S17885   4.447   1.753   7.349  0.0063  0.3530 -0.4709
  160SAPE   C2817886   4.350   1.799   7.529 -0.5021  0.1589 -0.6714
  160SAPE   H8R17887   4.246   1.826   7.553 -1.4102 -2.8536 -0.7629
  160SAPE   C2917888   4.422   1.727   7.619  0.5328 -0.3699 -0.3363
  160SAPE   H9R17889   4.379   1.699   7.716  0.2028  0.6345 -0.1797
  160SAPE  C21017890   4.560   1.681   7.601 -0.5987  0.2657 -0.3193
  160SAPE  H10R17891   4.593   1.725   7.504 -1.4995  0.9243 -0.3464
  160SAPE  H10S17892   4.553   1.571   7.590 -0.8302  0.1273  1.0195
  160SAPE  C21117893   4.649   1.725   7.716  0.3737 -0.4825  0.4066
  160SAPE  H11R17894   4.633   1.826   7.756 -2.7029 -0.5526 -0.4248
  160SAPE  C21217895   4.744   1.650   7.770 -0.0375  0.1609 -0.2163
  160SAPE  H12R17896   4.807   1.690   7.850  1.4902 -2.3206 -0.0810
  160SAPE  C21317897   4.782   1.510   7.724  0.4813  0.6683  0.1892
  160SAPE  H13R17898   4.861   1.504   7.647  0.9257  0.3253  0.6576
  160SAPE  H13S17899   4.690   1.458   7.689  0.2954  1.2272 -0.1490
  160SAPE  C21417900   4.837   1.418   7.833  0.0025  0.3162  0.3853
  160SAPE  H14R17901   4.767   1.344   7.874  1.1687 -0.9544  0.1544
  160SAPE  C21517902   4.964   1.409   7.876  0.5929 -0.0719 -0.3423
  160SAPE  H15R17903   4.997   1.330   7.944 -1.5674 -1.3179 -0.6552
  160SAPE  C21617904   5.076   1.478   7.813 -0.2975 -0.0607  0.2177
  160SAPE  H16R17905   5.050   1.535   7.722 -0.5176  1.9387  1.4716
  160SAPE  H16S17906   5.149   1.400   7.781  0.0223  0.8366 -1.3431
  160SAPE  C21717907   5.152   1.575   7.910 -0.1042  0.4434  0.4540
  160SAPE  H17R17908   5.077   1.651   7.942 -1.7724 -0.5128 -1.0283
  160SAPE  H17S17909   5.228   1.624   7.846 -1.2205  0.1029 -1.1804
  160SAPE  C21817910   5.214   1.507   8.035  0.3263 -0.1087 -0.5093
  160SAPE  H18R17911   5.242   1.400   8.018  1.6233 -0.0572  1.0294
  160SAPE  H18S17912   5.140   1.512   8.118  2.0694 -1.7975  1.2614
  160SAPE  C21917913   5.344   1.576   8.078  1.7533  0.4327 -0.1971
  160SAPE  H19R17914   5.307   1.680   8.094  0.1501 -0.2502  0.6843
  160SAPE  H19S17915   5.423   1.563   8.001  2.0426 -2.5053  0.4797
  160SAPE  C22017916   5.392   1.509   8.210  0.0011 -0.2786 -0.3515
  160SAPE  H20R17917   5.414   1.400   8.197 -0.5929 -0.5523  0.8392
  160SAPE  H20S17918   5.314   1.513   8.288  1.0666 -0.6764  0.7660
  160SAPE  H20T17919   5.477   1.567   8.251 -1.7618  1.1540  1.4661
  160SAPE   C3317920   4.797   1.577   7.356 -0.6100  0.0730  0.6499
  160SAPE   H3X17921   4.717   1.508   7.320  0.1461 -0.5695  0.1677
  160SAPE   H3Y17922   4.788   1.590   7.466 -0.6772 -0.7166  0.7478
  160SAPE   C3417923   4.937   1.513   7.338 -0.0627 -0.2725 -0.0574
  160SAPE   H4X17924   4.968   1.506   7.232  1.0601 -2.3094  0.3656
  160SAPE   H4Y17925   4.930   1.411   7.382  0.3510 -0.3364 -0.1337
  160SAPE   C3517926   5.056   1.587   7.404 -0.1692  0.5425  0.7579
  160SAPE   H5X17927   5.019   1.628   7.501  1.1325  0.0316  1.4961
  160SAPE   H5Y17928   5.087   1.673   7.341 -0.8317 -0.5043 -1.0708
  160SAPE   C3617929   5.185   1.501   7.419  0.4819  0.0109  0.3583
  160SAPE   H6X17930   5.211   1.476   7.314  0.1437 -0.8097  0.4651
  160SAPE   H6Y17931   5.163   1.412   7.481 -2.1621 -1.0913 -1.9627
  160SAPE   C3717932   5.295   1.569   7.500 -0.2225 -0.3385  0.4196
  160SAPE   H7X17933   5.251   1.620   7.589  0.7253  0.7697  0.2769
  160SAPE   H7Y17934   5.336   1.650   7.437  0.5507  0.2342  1.6163
  160SAPE   C3817935   5.414   1.488   7.539  0.2149 -0.6586  0.2411
  160SAPE   H8X17936   5.480   1.458   7.455  1.3438 -0.5652  1.0737
  160SAPE   H8Y17937   5.373   1.393   7.580 -1.2078 -0.7846 -1.3828
  160SAPE   C3917938   5.503   1.561   7.639 -0.4934 -0.1020  0.0085
  160SAPE   H9X17939   5.458   1.568   7.740 -1.2345  0.1989 -0.3366
  160SAPE   H9Y17940   5.520   1.666   7.607 -1.7849  0.1352  0.0569
  160SAPE  C31017941   5.640   1.489   7.651  0.4864  0.2825  0.0820
  160SAPE  H10X17942   5.675   1.486   7.546 -0.4880 -2.0642 -0.2420
  160SAPE  H10Y17943   5.629   1.388   7.696 -0.3350  0.1151 -0.4841
  160SAPE  C31117944   5.748   1.567   7.737 -0.3268  0.0907  0.0468
  160SAPE  H11X17945   5.703   1.565   7.838 -2.2310 -1.5730 -0.7482
  160SAPE  H11Y17946   5.749   1.672   7.701  1.7739 -0.0893 -0.5060
  160SAPE  C31217947   5.888   1.511   7.728  0.2022 -1.1160 -0.8827
  160SAPE  H12X17948   5.925   1.531   7.625  0.4668 -1.0596 -0.7766
  160SAPE  H12Y17949   5.875   1.406   7.760 -0.5928 -0.2301  2.0210
  160SAPE  C31317950   5.977   1.582   7.832 -0.1838  0.0238 -0.8610
  160SAPE  H13X17951   5.976   1.691   7.807 -1.0736  0.2370  0.0251
  160SAPE  H13Y17952   6.081   1.551   7.813 -0.3933 -1.5409  0.3385
  160SAPE  C31417953   5.955   1.574   7.984 -0.0812 -0.3407  0.2403
  160SAPE  H14X17954   5.971   1.468   8.015  1.7098 -0.4059 -0.7587
  160SAPE  H14Y17955   5.851   1.588   8.018  0.2127  1.5968  0.4664
  160SAPE  C31517956   6.043   1.664   8.066  0.4999  0.1604 -0.4572
  160SAPE  H15X17957   6.007   1.767   8.043  0.2327  0.0512 -0.5416
  160SAPE  H15Y17958   6.146   1.648   8.029  0.9709 -2.1998  1.6712
  160SAPE  C31617959   6.037   1.635   8.222  0.1734 -0.3727  0.2474
  160SAPE  H16X17960   6.135   1.662   8.268  1.5425 -0.7859 -2.1971
  160SAPE  H16Y17961   6.022   1.525   8.233  2.5415 -0.8887 -0.9281
  160SAPE  C31717962   5.928   1.717   8.298  0.1410 -0.4283 -0.6864
  160SAPE  H17X17963   5.950   1.825   8.292  0.4951 -0.5236 -1.1336
  160SAPE  H17Y17964   5.949   1.696   8.405  2.5133  0.3511 -0.9539
  160SAPE  C31817965   5.783   1.692   8.251 -0.7899  0.1165 -0.0644
  160SAPE  H18X17966   5.774   1.752   8.158  0.6759  1.0377  0.3405
  160SAPE  H18Y17967   5.708   1.706   8.332  0.5641  1.3266  1.0540
  160SAPE  H18Z17968   5.777   1.583   8.236 -1.0504 -0.1987  2.0760
  161SOPE     N17969   2.004   2.674  10.730 -0.6223 -0.2137  0.5823
  161SOPE   HN117970   1.914   2.718  10.758 -0.3099 -0.4781  2.0645
  161SOPE   HN217971   2.018   2.595  10.796 -3.2687 -1.6448 -0.3881
  161SOPE   HN317972   2.071   2.750  10.752 -1.5036  0.4057  1.2209
  161SOPE   C1217973   2.017   2.625  10.586 -0.5538 -0.2346 -0.2013
  161SOPE  H12A17974   2.056   2.707  10.522 -0.4551  0.0125  0.1644
  161SOPE  H12B17975   1.922   2.586  10.545  0.6482 -2.3054 -1.1424
  161SOPE   C1117976   2.122   2.517  10.579 -0.6298 -0.8065 -0.1249
  161SOPE  H11A17977   2.121   2.458  10.485  1.1427 -1.5922  0.3173
  161SOPE  H11B17978   2.101   2.435  10.652  1.5573 -0.3920  1.0436
  161SOPE     P17979   2.383   2.479  10.590  0.0167  0.1359  0.1973
  161SOPE   O1317980   2.405   2.408  10.716 -0.1086 -0.3933  0.2752
  161SOPE   O1417981   2.502   2.554  10.536  0.3136  0.0179  0.7106
  161SOPE   O1217982   2.256   2.576  10.601 -0.0847  0.7438  0.5724
  161SOPE   O1117983   2.330   2.371  10.485 -0.3123 -0.5001  0.7506
  161SOPE    C117984   2.285   2.240  10.520  0.3747  0.0876 -0.2326
  161SOPE    HA17985   2.177   2.243  10.543 -0.2194 -1.3214 -2.5135
  161SOPE    HB17986   2.342   2.199  10.606 -1.0786  1.0105  1.2299
  161SOPE    C217987   2.306   2.138  10.398  0.0097  0.6402  0.1584
  161SOPE    HS17988   2.414   2.110  10.396 -0.6486 -2.2043 -1.4434
  161SOPE   O2117989   2.236   2.189  10.278 -0.2731 -0.2965  0.2873
  161SOPE   C2117990   2.321   2.187  10.171 -0.0052 -0.4943  0.3000
  161SOPE   O2217991   2.436   2.166  10.186  0.0796  0.7900 -0.1846
  161SOPE   C2217992   2.245   2.227  10.044 -1.2400  0.6578  0.5370
  161SOPE   H2R17993   2.157   2.295  10.052 -1.2232  1.0453 -1.7308
  161SOPE   H2S17994   2.208   2.132   9.998 -1.3715  0.8481  0.2485
  161SOPE    C317995   2.224   2.013  10.447  0.0561 -0.7246 -0.6018
  161SOPE    HX17996   2.115   2.033  10.455  0.4522  1.3919  0.3044
  161SOPE    HY17997   2.255   1.984  10.550 -2.2080 -0.9437  0.0583
  161SOPE   O3117998   2.249   1.899  10.356 -0.1607  0.2086  0.1424
  161SOPE   C3117999   2.365   1.833  10.361  0.4773  0.6352  0.5834
  161SOPE   O3218000   2.459   1.874  10.422 -0.8148  0.0012  0.3191
  161SOPE   C3218001   2.358   1.705  10.272  0.8664 -0.4231 -0.1549
  161SOPE   H2X18002   2.373   1.620  10.342 -1.0861 -1.5413 -0.9953
  161SOPE   H2Y18003   2.440   1.699  10.197  1.1252  1.9663 -0.1413
  161SOPE   C2318004   2.338   2.304   9.943  1.1481  0.6923 -0.3759
  161SOPE   H3R18005   2.423   2.242   9.908  0.0905  0.3175 -2.4195
  161SOPE   H3S18006   2.374   2.398   9.990 -1.2998  1.6330 -0.2110
  161SOPE   C2418007   2.262   2.345   9.821 -0.0990  0.7027 -0.0484
  161SOPE   H4R18008   2.197   2.258   9.799  0.5164  0.8195 -2.6945
  161SOPE   H4S18009   2.194   2.430   9.842 -0.0665  0.7458 -0.1179
  161SOPE   C2518010   2.346   2.366   9.695  0.5869  0.9544  0.2772
  161SOPE   H5R18011   2.419   2.447   9.710  1.4892  0.0234  1.0379
  161SOPE   H5S18012   2.405   2.273   9.680 -1.7815 -1.0413  2.2662
  161SOPE   C2618013   2.261   2.377   9.565  0.1384 -0.8091 -0.2469
  161SOPE   H6R18014   2.235   2.275   9.530  0.1215 -0.3002 -1.8079
  161SOPE   H6S18015   2.166   2.432   9.582 -1.0996 -2.6582 -0.8791
  161SOPE   C2718016   2.353   2.440   9.454 -0.6176 -0.2881  0.3305
  161SOPE   H7R18017   2.394   2.540   9.480 -0.4727 -0.5938  1.3050
  161SOPE   H7S18018   2.447   2.380   9.445 -1.2435 -1.5888  2.0137
  161SOPE   C2818019   2.285   2.446   9.306  0.1441  0.3432 -1.1348
  161SOPE   H8R18020   2.196   2.512   9.309  0.2149  0.4923 -1.9820
  161SOPE   H8S18021   2.361   2.502   9.247 -1.0257  2.7634 -0.4404
  161SOPE   C2918022   2.253   2.311   9.251  0.6836 -0.6886  0.8159
  161SOPE   H9118023   2.275   2.229   9.321  2.6586  0.1674  1.2681
  161SOPE  C21018024   2.215   2.286   9.123 -0.9109  0.4324 -0.1918
  161SOPE  H10118025   2.207   2.182   9.089  0.0954  0.1763  0.3190
  161SOPE  C21118026   2.196   2.379   9.012  0.0243 -0.3787  0.3384
  161SOPE  H11R18027   2.290   2.405   8.958 -1.0687  0.0594 -1.4404
  161SOPE  H11S18028   2.153   2.473   9.052  1.1830  0.6768 -0.8106
  161SOPE  C21218029   2.095   2.331   8.905  0.0754  0.2691  0.0702
  161SOPE  H12R18030   2.009   2.281   8.954  1.1022  0.3657  2.1107
  161SOPE  H12S18031   2.144   2.260   8.834  1.8487 -0.1864  1.6586
  161SOPE  C21318032   2.050   2.444   8.813  0.1466 -0.0643 -0.2322
  161SOPE  H13R18033   2.137   2.494   8.765  1.3159  0.2094  2.0197
  161SOPE  H13S18034   1.997   2.518   8.875  0.2842  0.8512 -1.1834
  161SOPE  C21418035   1.953   2.400   8.703  0.2317  0.0496  0.0033
  161SOPE  H14R18036   1.869   2.338   8.741 -0.1315 -0.0981 -1.0285
  161SOPE  H14S18037   1.996   2.339   8.621  1.3205 -1.9160  1.9357
  161SOPE  C21518038   1.889   2.525   8.646 -0.1107  0.1396  0.1273
  161SOPE  H15R18039   1.863   2.505   8.540  3.2094  0.0500 -0.7656
  161SOPE  H15S18040   1.963   2.604   8.625  0.4538 -1.0977 -3.2326
  161SOPE  C21618041   1.767   2.573   8.729  0.1401  0.1385  0.2513
  161SOPE  H16R18042   1.808   2.627   8.817 -2.2014  3.0729 -0.2929
  161SOPE  H16S18043   1.716   2.480   8.762  0.6782 -0.7387 -1.2957
  161SOPE  C21718044   1.668   2.670   8.677 -0.5259 -0.5434  0.1647
  161SOPE  H17R18045   1.627   2.635   8.581  0.8142 -1.1230 -0.2185
  161SOPE  H17S18046   1.730   2.754   8.639 -2.5768  0.7822 -0.3911
  161SOPE  C21818047   1.555   2.720   8.777  0.5954  0.6887 -0.7384
  161SOPE  H18R18048   1.482   2.776   8.715 -0.1789  0.6663  0.1358
  161SOPE  H18S18049   1.600   2.789   8.852  2.5750 -1.2172 -0.0729
  161SOPE  H18T18050   1.516   2.629   8.826  2.1877  1.3086  1.8849
  161SOPE   C3318051   2.216   1.672  10.221  0.7328 -0.6027 -0.9007
  161SOPE   H3X18052   2.142   1.668  10.303  2.8802 -1.4125  1.1248
  161SOPE   H3Y18053   2.229   1.567  10.186  0.8233 -1.0434  0.4137
  161SOPE   C3418054   2.166   1.750  10.098 -0.4731  0.2179  0.8396
  161SOPE   H4X18055   2.154   1.857  10.123  0.1558  0.6729 -0.7028
  161SOPE   H4Y18056   2.068   1.716  10.058 -0.4275  0.8385  0.1892
  161SOPE   C3518057   2.273   1.754   9.990 -0.2729  0.4846  0.2628
  161SOPE   H5X18058   2.322   1.654   9.994 -1.9693 -0.3654  1.0670
  161SOPE   H5Y18059   2.361   1.813  10.024  0.5423  0.2841 -1.3812
  161SOPE   C3618060   2.227   1.801   9.848  0.4743 -0.1156 -0.0968
  161SOPE   H6X18061   2.203   1.909   9.860  0.0151 -0.2172 -0.0838
  161SOPE   H6Y18062   2.126   1.766   9.818 -1.5582  4.0404  1.1344
  161SOPE   C3718063   2.313   1.781   9.731  0.3709  0.0885  0.7792
  161SOPE   H7X18064   2.317   1.671   9.715 -2.4245 -0.0028  0.1290
  161SOPE   H7Y18065   2.413   1.822   9.756  0.1965  1.0628 -0.0191
  161SOPE   C3818066   2.256   1.833   9.604 -0.2211  0.0329 -0.4658
  161SOPE   H8X18067   2.242   1.944   9.606 -0.1897  0.0640 -1.5724
  161SOPE   H8Y18068   2.157   1.792   9.575 -1.5194  2.0969  0.7100
  161SOPE   C3918069   2.350   1.807   9.486  0.0148  0.3161  0.2420
  161SOPE   H9X18070   2.383   1.701   9.477 -2.6044 -0.5259 -0.1100
  161SOPE   H9Y18071   2.440   1.869   9.508  0.1562  0.3971 -0.5364
  161SOPE  C31018072   2.288   1.847   9.353 -0.3862 -0.3139  0.7887
  161SOPE  H10X18073   2.274   1.957   9.349  0.1619 -0.2693 -1.5421
  161SOPE  H10Y18074   2.190   1.794   9.349  0.7004 -2.3492 -0.8030
  161SOPE  C31118075   2.373   1.808   9.235  0.3811 -0.2769 -0.7313
  161SOPE  H11X18076   2.346   1.704   9.204  0.1845 -0.0619 -1.2908
  161SOPE  H11Y18077   2.482   1.809   9.251  0.7410 -0.8778 -2.8145
  161SOPE  C31218078   2.341   1.896   9.107  0.4324  0.1368  0.0561
  161SOPE  H12X18079   2.371   2.001   9.127  2.9395 -0.3574 -0.8175
  161SOPE  H12Y18080   2.231   1.907   9.093  0.4332 -1.3972 -1.4634
  161SOPE  C31318081   2.415   1.855   8.986 -0.2600  0.4748 -0.2460
  161SOPE  H13X18082   2.392   1.747   8.970 -1.6654  1.0168 -2.3177
  161SOPE  H13Y18083   2.525   1.857   8.999 -0.4245  1.1431  1.2907
  161SOPE  C31418084   2.390   1.917   8.848  0.0698 -0.3234  0.4162
  161SOPE  H14X18085   2.470   1.903   8.772  0.1360  2.0476 -0.0220
  161SOPE  H14Y18086   2.373   2.025   8.868  0.8483 -0.0503 -0.3404
  161SOPE  C31518087   2.267   1.861   8.775 -0.5178 -0.6488  0.6493
  161SOPE  H15X18088   2.169   1.888   8.819 -1.8106  1.9020 -3.2258
  161SOPE  H15Y18089   2.284   1.752   8.768 -0.2090 -0.5322 -0.7576
  161SOPE  C31618090   2.259   1.918   8.629  0.1482  0.0223  0.0063
  161SOPE  H16X18091   2.187   1.857   8.569 -1.3677  1.9819 -0.2622
  161SOPE  H16Y18092   2.360   1.905   8.583  0.5644  2.0963  0.2511
  161SOPE  C31718093   2.217   2.062   8.625  0.2406 -0.4726 -0.0799
  161SOPE  H17X18094   2.307   2.113   8.666  1.1324 -0.4810 -1.8796
  161SOPE  H17Y18095   2.135   2.065   8.699 -0.9488 -1.2318 -1.3051
  161SOPE  C31818096   2.180   2.119   8.489  0.1448  0.9117 -0.0588
  161SOPE  H18X18097   2.156   2.227   8.493  1.2236  1.2170 -1.1008
  161SOPE  H18Y18098   2.094   2.074   8.435 -0.5160  1.2829  0.6741
  161SOPE  H18Z18099   2.273   2.099   8.431  1.8018 -0.2799  2.8284
  162SOPE     N18100   2.405   3.167  11.098 -0.5819 -0.4712  0.7798
  162SOPE   HN118101   2.304   3.183  11.081 -0.7761  0.0169  2.2727
  162SOPE   HN218102   2.423   3.065  11.088 -0.3115 -0.2919 -0.7113
  162SOPE   HN318103   2.409   3.186  11.200 -1.1084  1.1226  0.5239
  162SOPE   C1218104   2.493   3.251  11.011  0.3528 -0.3202 -0.0852
  162SOPE  H12A18105   2.582   3.278  11.071  0.5540 -1.7394  0.2911
  162SOPE  H12B18106   2.432   3.341  10.985  1.9679  1.4439  1.8400
  162SOPE   C1118107   2.538   3.181  10.879 -0.3721  0.6313  0.0778
  162SOPE  H11A18108   2.590   3.255  10.815  1.9873 -0.8142  0.1830
  162SOPE  H11B18109   2.466   3.130  10.811  1.3486 -0.6086 -0.9154
  162SOPE     P18110   2.603   2.935  10.922 -0.0928 -0.2060 -0.0516
  162SOPE   O1318111   2.502   2.924  11.033 -0.1812 -0.2017  0.0124
  162SOPE   O1418112   2.718   2.844  10.924 -0.0139 -0.0994 -0.6075
  162SOPE   O1218113   2.643   3.087  10.925 -0.0458 -0.0532 -0.6166
  162SOPE   O1118114   2.530   2.911  10.780 -0.0588 -0.0229 -0.0904
  162SOPE    C118115   2.599   2.915  10.654 -0.7008 -0.0505 -0.3405
  162SOPE    HA18116   2.591   2.814  10.609 -0.4404 -0.0582 -0.3652
  162SOPE    HB18117   2.706   2.944  10.661 -0.2166 -1.6134 -0.8504
  162SOPE    C218118   2.535   3.023  10.562 -0.3469 -0.3773 -0.0734
  162SOPE    HS18119   2.540   3.117  10.621 -0.7633  0.1876 -0.9223
  162SOPE   O2118120   2.396   2.986  10.529 -0.5483  1.0130 -0.0618
  162SOPE   C2118121   2.320   3.075  10.477  0.8877 -0.5403 -0.0408
  162SOPE   O2218122   2.343   3.191  10.476 -0.0683 -0.2445  0.1914
  162SOPE   C2218123   2.188   3.007  10.435 -0.0215  0.6389  0.2350
  162SOPE   H2R18124   2.104   3.034  10.503  0.1147  0.6078  0.4162
  162SOPE   H2S18125   2.198   2.896  10.445 -3.2741  0.2738  0.8374
  162SOPE    C318126   2.617   3.062  10.435 -0.1608  0.1467  0.0106
  162SOPE    HX18127   2.722   3.077  10.468 -0.2636  1.3977 -0.1803
  162SOPE    HY18128   2.578   3.164  10.416 -0.4461  0.1003  0.3139
  162SOPE   O3118129   2.597   2.985  10.320  0.2354  0.0075 -0.6235
  162SOPE   C3118130   2.691   2.989  10.232  0.1535 -0.8612  0.8096
  162SOPE   O3218131   2.793   3.054  10.233 -0.3336  0.1741 -0.0467
  162SOPE   C3218132   2.663   2.891  10.118  0.2756 -0.8373 -0.2131
  162SOPE   H2X18133   2.580   2.825  10.151 -0.8689  0.9293  0.6104
  162SOPE   H2Y18134   2.749   2.826  10.093 -1.0100 -2.5850 -0.2917
  162SOPE   C2318135   2.137   3.026  10.287  0.0285 -0.0744  0.7497
  162SOPE   H3R18136   2.158   3.129  10.253 -2.8992  0.7974  1.3478
  162SOPE   H3S18137   2.028   3.012  10.271  0.0175  0.0410  0.7250
  162SOPE   C2418138   2.210   2.925  10.189  0.3904 -0.1716 -0.1260
  162SOPE   H4R18139   2.320   2.942  10.192  0.4756 -0.4274 -1.2647
  162SOPE   H4S18140   2.191   2.821  10.222  0.6680  0.6573  2.9256
  162SOPE   C2518141   2.150   2.928  10.049  0.0081  0.2343 -0.5153
  162SOPE   H5R18142   2.048   2.888  10.063 -0.6087  1.7638 -0.4370
  162SOPE   H5S18143   2.143   3.031  10.006 -2.4398 -0.2691 -1.4736
  162SOPE   C2618144   2.219   2.845   9.940 -0.0601 -0.2193  0.0944
  162SOPE   H6R18145   2.323   2.878   9.920  0.4716 -1.4448  0.7230
  162SOPE   H6S18146   2.236   2.742   9.977 -1.4643 -0.0397  1.3470
  162SOPE   C2718147   2.145   2.838   9.815 -0.0161 -0.2406  0.0699
  162SOPE   H7R18148   2.044   2.793   9.819 -0.1278 -0.4307 -2.8036
  162SOPE   H7S18149   2.130   2.943   9.781  0.1889  0.0735  0.9255
  162SOPE   C2818150   2.227   2.755   9.708  0.0402 -0.2257 -0.8455
  162SOPE   H8R18151   2.307   2.823   9.675 -0.3701 -0.8024 -3.2040
  162SOPE   H8S18152   2.278   2.664   9.747 -1.9622 -1.1753 -0.3099
  162SOPE   C2918153   2.147   2.730   9.590 -0.4529 -0.6755  0.2512
  162SOPE   H9118154   2.098   2.632   9.581  1.1829 -1.5601  0.6293
  162SOPE  C21018155   2.135   2.799   9.477  0.5495 -1.0423  0.0074
  162SOPE  H10118156   2.072   2.754   9.399 -0.3532  0.8830 -0.4247
  162SOPE  C21118157   2.199   2.932   9.444  0.4668 -0.5016  0.5771
  162SOPE  H11R18158   2.220   2.991   9.536  1.5558  0.2118 -0.0951
  162SOPE  H11S18159   2.139   2.989   9.370  1.3338 -1.3325 -0.8166
  162SOPE  C21218160   2.342   2.913   9.385 -0.2593 -0.1530 -0.1969
  162SOPE  H12R18161   2.415   2.861   9.451  1.9462 -1.2476 -3.2757
  162SOPE  H12S18162   2.374   3.020   9.380 -0.6659 -0.0611 -0.9811
  162SOPE  C21318163   2.342   2.856   9.247  0.3753 -0.0200  0.5401
  162SOPE  H13R18164   2.270   2.920   9.191 -1.2475 -2.0374  0.2433
  162SOPE  H13S18165   2.297   2.755   9.242 -1.0046  0.6124 -0.5773
  162SOPE  C21418166   2.471   2.866   9.170  0.2464 -0.4734  0.5793
  162SOPE  H14R18167   2.557   2.830   9.230  1.1818  0.2421 -0.3019
  162SOPE  H14S18168   2.492   2.973   9.150  1.0843 -0.5258  1.1615
  162SOPE  C21518169   2.476   2.773   9.043  0.1633  0.1547  0.1762
  162SOPE  H15R18170   2.441   2.671   9.069 -1.7724  0.7713  0.1805
  162SOPE  H15S18171   2.582   2.781   9.011  0.1756  0.1459  0.2159
  162SOPE  C21618172   2.396   2.817   8.922 -0.3532  0.5147  0.2535
  162SOPE  H16R18173   2.446   2.903   8.872  2.0433 -0.9338  0.0446
  162SOPE  H16S18174   2.286   2.829   8.939 -0.2297  2.0861  0.1143
  162SOPE  C21718175   2.414   2.712   8.812  0.7403 -0.0703 -0.3394
  162SOPE  H17R18176   2.366   2.619   8.850 -1.5255  1.5786  1.0863
  162SOPE  H17S18177   2.517   2.700   8.772  0.8424  0.5669 -0.2830
  162SOPE  C21818178   2.320   2.738   8.690 -0.2667  0.4935  0.2088
  162SOPE  H18R18179   2.219   2.749   8.734  1.3641  0.7939  4.3450
  162SOPE  H18S18180   2.313   2.650   8.622  0.9591  0.8398 -0.3979
  162SOPE  H18T18181   2.341   2.840   8.651 -1.1923  0.3554 -0.6782
  162SOPE   C3318182   2.621   2.959   9.987 -0.5201 -0.1921  0.1207
  162SOPE   H3X18183   2.544   3.038  10.000 -2.4332 -2.1053  0.9745
  162SOPE   H3Y18184   2.564   2.874   9.944 -0.2361 -1.4615  2.1487
  162SOPE   C3418185   2.744   3.007   9.896  0.7297  0.4160 -0.3789
  162SOPE   H4X18186   2.827   2.934   9.884  0.8903  0.0525  2.4357
  162SOPE   H4Y18187   2.799   3.089   9.947  2.5965 -1.0355  0.0633
  162SOPE   C3518188   2.687   3.066   9.764  0.2683  0.5857 -0.3796
  162SOPE   H5X18189   2.640   3.165   9.778 -0.2103  0.2585  0.4176
  162SOPE   H5Y18190   2.608   2.992   9.739  1.2316 -0.9007  0.7982
  162SOPE   C3618191   2.790   3.069   9.656  0.3661 -0.3630  0.0171
  162SOPE   H6X18192   2.842   2.971   9.650  0.9307 -0.6316  5.0945
  162SOPE   H6Y18193   2.861   3.150   9.683 -0.4059  1.5974 -3.2240
  162SOPE   C3718194   2.732   3.106   9.518 -0.4254 -0.3246 -0.6305
  162SOPE   H7X18195   2.650   3.032   9.529 -0.4607 -0.0150  2.0426
  162SOPE   H7Y18196   2.804   3.078   9.438 -2.4662  1.0110 -3.0466
  162SOPE   C3818197   2.674   3.245   9.505  0.6880  0.2057  0.5296
  162SOPE   H8X18198   2.751   3.321   9.530 -0.3569  0.9904  1.4752
  162SOPE   H8Y18199   2.585   3.251   9.572 -1.6082 -0.2657 -2.3052
  162SOPE   C3918200   2.610   3.280   9.375 -0.1824  0.5185  0.7575
  162SOPE   H9X18201   2.525   3.213   9.352  1.3970 -0.9432 -1.2216
  162SOPE   H9Y18202   2.688   3.254   9.300  0.5884  0.4814  1.5411
  162SOPE  C31018203   2.561   3.424   9.375  0.3152  0.3887 -0.1562
  162SOPE  H10X18204   2.517   3.440   9.476  1.8115  1.6395  0.3284
  162SOPE  H10Y18205   2.476   3.436   9.305 -0.6279  2.3015  1.2161
  162SOPE  C31118206   2.668   3.523   9.351 -0.2145  0.1915 -0.7596
  162SOPE  H11X18207   2.760   3.511   9.412 -0.1397 -0.2422 -0.9596
  162SOPE  H11Y18208   2.629   3.621   9.387 -1.7305 -0.9672  0.9927
  162SOPE  C31218209   2.709   3.541   9.204 -0.1019 -0.5134 -0.8885
  162SOPE  H12X18210   2.632   3.592   9.142  0.4482  0.7324 -0.5771
  162SOPE  H12Y18211   2.735   3.440   9.167  1.3968 -0.2920 -0.4819
  162SOPE  C31318212   2.837   3.624   9.206 -0.3986  0.3546 -0.2074
  162SOPE  H13X18213   2.908   3.570   9.273 -1.1761 -2.8489 -1.7435
  162SOPE  H13Y18214   2.825   3.726   9.248 -0.3818  0.8764 -1.4218
  162SOPE  C31418215   2.906   3.627   9.068 -0.1788 -0.4225  0.3543
  162SOPE  H14X18216   2.829   3.644   8.989 -0.4924  0.3017  0.8094
  162SOPE  H14Y18217   2.934   3.520   9.058 -0.5283 -0.6588  1.6848
  162SOPE  C31518218   3.018   3.734   9.052 -0.3863  0.3238  0.1560
  162SOPE  H15X18219   3.092   3.722   9.134 -0.3008  1.9322  0.3399
  162SOPE  H15Y18220   2.971   3.835   9.058 -0.5615  0.1660  3.7435
  162SOPE  C31618221   3.096   3.719   8.921 -0.6287 -0.3253  0.7190
  162SOPE  H16X18222   3.158   3.810   8.915 -1.6599  0.3393 -3.4048
  162SOPE  H16Y18223   3.038   3.718   8.826  0.2058  2.1144  0.1303
  162SOPE  C31718224   3.192   3.594   8.916  0.2049  0.0949 -0.1017
  162SOPE  H17X18225   3.142   3.496   8.922 -0.2438  0.0577 -3.0077
  162SOPE  H17Y18226   3.266   3.602   8.999  0.0237 -1.8567  0.2871
  162SOPE  C31818227   3.271   3.600   8.786 -0.8891 -0.3385  0.3941
  162SOPE  H18X18228   3.353   3.526   8.775 -0.8118 -0.3337  0.9168
  162SOPE  H18Y18229   3.316   3.701   8.788  0.9820 -1.1556  1.0166
  162SOPE  H18Z18230   3.201   3.595   8.699 -0.8174 -2.5115  0.4025
  163SOPE     N18231   1.565   1.033  10.810 -0.0766  0.2058  0.0451
  163SOPE   HN118232   1.500   1.115  10.806 -1.8282 -1.1492 -0.8814
  163SOPE   HN218233   1.536   0.984  10.897  0.1127  1.0365  0.5851
  163SOPE   HN318234   1.666   1.051  10.826 -0.0634  0.1104  0.0705
  163SOPE   C1218235   1.554   0.936  10.693  0.5061 -0.0886 -0.2175
  163SOPE  H12A18236   1.634   0.862  10.717  0.1222  0.2220  2.2880
  163SOPE  H12B18237   1.586   0.990  10.601 -1.8301  1.5720 -0.1398
  163SOPE   C1118238   1.411   0.879  10.702  0.3594  0.9043 -0.6022
  163SOPE  H11A18239   1.409   0.799  10.779 -0.1582  0.9654 -0.5494
  163SOPE  H11B18240   1.388   0.826  10.607  0.4632  0.6376 -0.4815
  163SOPE     P18241   1.164   0.930  10.750  0.2686  0.0244 -0.1306
  163SOPE   O1318242   1.098   1.032  10.839 -0.4659 -0.0953 -0.3732
  163SOPE   O1418243   1.171   0.791  10.798  0.0139 -0.3729 -0.6528
  163SOPE   O1218244   1.313   0.980  10.722 -0.1101  0.0168  0.6470
  163SOPE   O1118245   1.096   0.945  10.604  0.1295 -0.3853  0.0973
  163SOPE    C118246   1.116   1.060  10.523  0.1491  0.2624 -0.7873
  163SOPE    HA18247   1.188   1.133  10.566 -0.5447  0.3778  0.2254
  163SOPE    HB18248   1.020   1.115  10.511 -0.6191 -1.0484 -0.7340
  163SOPE    C218249   1.152   1.019  10.380 -0.0733  0.0422 -0.6161
  163SOPE    HS18250   1.126   1.100  10.309  0.1525  0.6405 -0.0289
  163SOPE   O2118251   1.079   0.902  10.343 -0.6806  0.4806  0.1567
  163SOPE   C2118252   0.945   0.910  10.338  0.4885  0.0913 -0.5441
  163SOPE   O2218253   0.885   1.013  10.354  0.2616  0.4142  0.1613
  163SOPE   C2218254   0.894   0.776  10.280  0.4543  0.7017 -0.9054
  163SOPE   H2R18255   0.921   0.712  10.367 -1.9535  2.5682  1.3767
  163SOPE   H2S18256   0.947   0.754  10.185 -0.7552 -1.6647 -1.0931
  163SOPE    C318257   1.305   1.002  10.364 -0.0164  0.7399 -0.8565
  163SOPE    HX18258   1.352   0.933  10.437  2.6577  2.8572 -0.4492
  163SOPE    HY18259   1.345   1.096  10.405 -0.6034  1.0219 -0.9152
  163SOPE   O3118260   1.343   0.962  10.232  0.2508  0.1838  0.5836
  163SOPE   C3118261   1.356   1.051  10.147  0.3953 -0.4596  0.3833
  163SOPE   O3218262   1.340   1.174  10.156 -0.4335 -0.2964 -0.8480
  163SOPE   C3218263   1.426   0.991  10.030 -0.0466  0.1636  0.5507
  163SOPE   H2X18264   1.346   0.934   9.978 -1.5981  1.6983  1.1643
  163SOPE   H2Y18265   1.511   0.926  10.059 -1.1833 -2.7035 -1.9913
  163SOPE   C2318266   0.748   0.776  10.263  0.1696 -0.6038 -0.0552
  163SOPE   H3R18267   0.695   0.837  10.339 -1.3586 -1.9703  0.0220
  163SOPE   H3S18268   0.690   0.682  10.271  0.8513 -0.9384  1.1102
  163SOPE   C2418269   0.703   0.828  10.122 -0.3792 -0.7246 -0.4168
  163SOPE   H4R18270   0.594   0.812  10.111 -0.9276  2.8791 -1.6907
  163SOPE   H4S18271   0.717   0.938  10.119 -1.5409 -0.5317  0.7687
  163SOPE   C2518272   0.772   0.754  10.011 -0.2502 -0.3306  0.5169
  163SOPE   H5R18273   0.874   0.789   9.982  0.0457 -3.0475 -2.3141
  163SOPE   H5S18274   0.778   0.646  10.034 -0.7637 -0.3657  0.4956
  163SOPE   C2618275   0.699   0.789   9.877  0.1290 -0.0787  0.0522
  163SOPE   H6R18276   0.589   0.773   9.884  0.1157  0.4345  1.1485
  163SOPE   H6S18277   0.717   0.897   9.862 -1.1638  0.1102 -0.2892
  163SOPE   C2718278   0.739   0.715   9.755  0.8743  0.2519  0.0204
  163SOPE   H7R18279   0.841   0.747   9.724  0.9638 -0.0668 -0.0233
  163SOPE   H7S18280   0.757   0.608   9.782 -0.6792  0.2616  1.2335
  163SOPE   C2818281   0.642   0.720   9.637 -0.5710 -0.0144 -0.3084
  163SOPE   H8R18282   0.538   0.693   9.663 -0.4690  0.8091  1.0871
  163SOPE   H8S18283   0.635   0.829   9.612  0.3823 -0.3352 -2.1634
  163SOPE   C2918284   0.689   0.641   9.520 -0.2335  0.4530  0.7144
  163SOPE   H9118285   0.721   0.539   9.547 -0.9211  0.8665  3.3486
  163SOPE  C21018286   0.702   0.672   9.393  0.0347 -0.7863  0.0981
  163SOPE  H10118287   0.735   0.593   9.324 -0.2089 -1.5750  0.8720
  163SOPE  C21118288   0.668   0.803   9.327  0.0247  0.0139 -0.2976
  163SOPE  H11R18289   0.715   0.888   9.381 -0.6330  1.1432 -1.4595
  163SOPE  H11S18290   0.558   0.814   9.334 -0.0118 -1.0788  2.4128
  163SOPE  C21218291   0.717   0.805   9.180  0.1717  0.1935 -0.5881
  163SOPE  H12R18292   0.655   0.888   9.141 -0.4472 -0.0665 -0.1860
  163SOPE  H12S18293   0.684   0.707   9.139 -2.2515  1.7488 -2.6060
  163SOPE  C21318294   0.870   0.835   9.169 -0.3790 -0.1865 -0.0117
  163SOPE  H13R18295   0.919   0.738   9.193  3.3882  1.1541 -1.5276
  163SOPE  H13S18296   0.908   0.919   9.231 -0.9913  0.5992 -0.6879
  163SOPE  C21418297   0.932   0.858   9.026 -0.5471 -0.1499  0.7561
  163SOPE  H14R18298   0.865   0.930   8.975 -1.2670 -1.3680 -0.0538
  163SOPE  H14S18299   0.942   0.768   8.962  0.8465  1.6383 -1.6828
  163SOPE  C21518300   1.062   0.922   9.039  0.0288 -0.4772 -0.2682
  163SOPE  H15R18301   1.126   0.850   9.096 -0.1442 -1.3848 -1.2021
  163SOPE  H15S18302   1.056   1.019   9.092  2.8121 -1.2721  1.8203
  163SOPE  C21618303   1.134   0.940   8.908 -0.2669  0.2936  0.1342
  163SOPE  H16R18304   1.067   0.997   8.840 -0.1507  0.7829  0.4254
  163SOPE  H16S18305   1.146   0.839   8.864  1.1068  1.7106 -3.0238
  163SOPE  C21718306   1.258   1.019   8.903 -0.4423  0.2121 -0.0358
  163SOPE  H17R18307   1.242   1.122   8.940  0.6416  0.7801 -1.0675
  163SOPE  H17S18308   1.294   1.032   8.798 -0.9522 -1.4249 -0.4523
  163SOPE  C21818309   1.374   0.947   8.975  0.3217 -0.6803  0.2286
  163SOPE  H18R18310   1.466   1.002   8.947 -0.1842  0.8035  1.3204
  163SOPE  H18S18311   1.370   0.843   8.937 -2.6405 -0.1249 -1.2365
  163SOPE  H18T18312   1.366   0.950   9.086 -1.4359 -0.0573  0.1146
  163SOPE   C3318313   1.476   1.100   9.929 -0.9073 -0.3246 -0.2684
  163SOPE   H3X18314   1.561   1.162   9.963 -1.4769  1.5887 -2.1014
  163SOPE   H3Y18315   1.401   1.180   9.912 -0.2845  0.1985 -0.5888
  163SOPE   C3418316   1.510   1.052   9.788 -0.5307 -0.2587 -0.3355
  163SOPE   H4X18317   1.422   0.999   9.745 -0.3971  0.9944 -2.3286
  163SOPE   H4Y18318   1.589   0.980   9.816 -0.1229  0.8181  1.4303
  163SOPE   C3518319   1.564   1.170   9.695  0.2657  0.3387 -0.3343
  163SOPE   H5X18320   1.626   1.248   9.744 -1.9978  2.5693 -0.8194
  163SOPE   H5Y18321   1.476   1.214   9.644 -1.9187 -1.8924  1.2360
  163SOPE   C3618322   1.651   1.110   9.585  0.0527 -0.2507  0.0906
  163SOPE   H6X18323   1.621   1.006   9.560 -0.9277  0.2971 -1.1092
  163SOPE   H6Y18324   1.753   1.091   9.626  0.3477 -1.8732 -1.2880
  163SOPE   C3718325   1.639   1.188   9.452 -0.0667  0.1671 -0.1487
  163SOPE   H7X18326   1.673   1.293   9.468  0.7092 -0.4385  2.6579
  163SOPE   H7Y18327   1.528   1.193   9.450 -0.0593  2.7073  1.4699
  163SOPE   C3818328   1.709   1.137   9.325  0.6924  0.1444 -0.2279
  163SOPE   H8X18329   1.702   1.027   9.313 -1.2983  0.2919 -0.7370
  163SOPE   H8Y18330   1.817   1.157   9.342  0.9124 -1.7177  0.8644
  163SOPE   C3918331   1.664   1.208   9.201  0.1076 -0.9257 -0.0589
  163SOPE   H9X18332   1.668   1.318   9.213  0.2903 -1.0312  0.9295
  163SOPE   H9Y18333   1.560   1.169   9.190 -0.4905  0.7598 -0.6633
  163SOPE  C31018334   1.737   1.158   9.067  0.4106 -1.0106  0.1874
  163SOPE  H10X18335   1.712   1.051   9.053 -0.6675 -1.0340  1.9827
  163SOPE  H10Y18336   1.846   1.171   9.083  0.5464 -0.3604 -1.1132
  163SOPE  C31118337   1.681   1.233   8.946 -0.5696 -0.5313  0.2226
  163SOPE  H11X18338   1.684   1.339   8.978 -1.6323 -0.6072  0.6268
  163SOPE  H11Y18339   1.575   1.202   8.932 -1.1478  1.9543 -1.5562
  163SOPE  C31218340   1.769   1.203   8.822 -0.1492 -0.0086 -0.2462
  163SOPE  H12X18341   1.753   1.096   8.796  0.7147 -0.3165  0.4671
  163SOPE  H12Y18342   1.877   1.205   8.846 -0.0804 -1.7373 -0.2848
  163SOPE  C31318343   1.735   1.285   8.700 -0.0808  0.1578 -0.3121
  163SOPE  H13X18344   1.804   1.251   8.620  1.4458  0.5626  0.7755
  163SOPE  H13Y18345   1.756   1.392   8.722 -0.5060  1.1967 -4.3008
  163SOPE  C31418346   1.592   1.273   8.659  0.4971  0.6530  0.3715
  163SOPE  H14X18347   1.514   1.275   8.738  0.1469  1.5951  0.0071
  163SOPE  H14Y18348   1.583   1.172   8.612  1.8715 -0.6502  2.7016
  163SOPE  C31518349   1.558   1.374   8.545  0.2399 -0.6988 -0.0916
  163SOPE  H15X18350   1.640   1.382   8.471 -0.4335 -2.7837 -1.1284
  163SOPE  H15Y18351   1.543   1.472   8.596 -0.2664  0.0404 -1.5878
  163SOPE  C31618352   1.424   1.342   8.480  0.8098  0.0601 -1.0721
  163SOPE  H16X18353   1.429   1.237   8.444  1.7860  0.5980 -2.6397
  163SOPE  H16Y18354   1.401   1.406   8.392  0.9462  2.2063  0.3959
  163SOPE  C31718355   1.305   1.348   8.571 -0.2242 -0.0852 -0.1230
  163SOPE  H17X18356   1.298   1.452   8.609  0.3219  0.6614 -1.9511
  163SOPE  H17Y18357   1.307   1.285   8.662 -2.8097  0.4219  0.3477
  163SOPE  C31818358   1.180   1.316   8.502 -0.5931  0.7257  0.4013
  163SOPE  H18X18359   1.097   1.346   8.570  0.6078  3.3855  0.8401
  163SOPE  H18Y18360   1.170   1.212   8.465  0.0369  0.7542  0.1360
  163SOPE  H18Z18361   1.167   1.379   8.411 -0.9058  0.3009  0.1512
  164SOPE     N18362   5.931   3.639  10.918  0.3825  0.0521  0.8767
  164SOPE   HN118363   5.836   3.638  10.961 -0.6030 -0.4037 -1.1731
  164SOPE   HN218364   6.009   3.639  10.986  2.9043 -0.2639 -1.8070
  164SOPE   HN318365   5.947   3.720  10.854 -0.5836 -1.6934 -1.7370
  164SOPE   C1218366   5.925   3.523  10.824 -0.3748  0.3797 -0.0157
  164SOPE  H12A18367   5.819   3.519  10.790  0.2312  0.1959 -2.0448
  164SOPE  H12B18368   5.945   3.432  10.884 -2.1140  0.4731  0.7492
  164SOPE   C1118369   6.036   3.529  10.712  0.4440 -0.2232  0.2444
  164SOPE  H11A18370   6.002   3.612  10.646  3.0455  0.7093 -0.0328
  164SOPE  H11B18371   6.028   3.426  10.670 -2.6758  0.1334 -0.2695
  164SOPE     P18372   6.294   3.494  10.713 -0.0033 -0.0907 -0.0233
  164SOPE   O1318373   6.306   3.359  10.770 -0.2119 -0.2233 -0.5031
  164SOPE   O1418374   6.398   3.596  10.730 -0.4040  0.0370 -0.0864
  164SOPE   O1218375   6.162   3.556  10.762 -0.1491 -0.3670  0.0130
  164SOPE   O1118376   6.260   3.482  10.565  0.6701  0.1394 -0.5712
  164SOPE    C118377   6.274   3.350  10.503 -0.4295  0.0097 -0.4938
  164SOPE    HA18378   6.201   3.283  10.552 -0.8991 -0.3612 -1.6676
  164SOPE    HB18379   6.377   3.308  10.510 -1.2282 -2.1852 -1.0868
  164SOPE    C218380   6.244   3.348  10.351  0.7065 -0.0707  0.2500
  164SOPE    HS18381   6.237   3.240  10.326 -1.3769 -0.3255  1.6688
  164SOPE   O2118382   6.341   3.415  10.278  0.1294  0.3041 -0.3944
  164SOPE   C2118383   6.387   3.355  10.169  0.4803  0.7354  0.0343
  164SOPE   O2218384   6.356   3.248  10.132 -0.3144 -0.1064  0.3616
  164SOPE   C2218385   6.466   3.468  10.099 -0.2876  0.4780 -0.4471
  164SOPE   H2R18386   6.546   3.504  10.167  0.8462 -0.0053 -1.4862
  164SOPE   H2S18387   6.389   3.547  10.089 -0.0361  0.9964  1.3276
  164SOPE    C318388   6.107   3.407  10.322  0.6809  0.8373  0.2273
  164SOPE    HX18389   6.110   3.513  10.353 -0.8288  0.4001  2.0197
  164SOPE    HY18390   6.026   3.357  10.380  0.0799  2.6898  1.0716
  164SOPE   O3118391   6.071   3.404  10.185 -0.4097  0.6272 -0.1361
  164SOPE   C3118392   6.029   3.286  10.139  0.1171  0.5841  0.3694
  164SOPE   O3218393   5.996   3.191  10.208  0.2319  0.5542 -0.1047
  164SOPE   C3218394   6.032   3.290   9.982  0.0374 -0.4011  0.1957
  164SOPE   H2X18395   6.137   3.293   9.945 -0.2442  1.9446 -0.5957
  164SOPE   H2Y18396   5.980   3.385   9.957 -0.7922 -0.7476  0.5547
  164SOPE   C2318397   6.534   3.416   9.963 -0.4610 -0.1732 -0.0665
  164SOPE   H3R18398   6.559   3.310   9.985 -0.7661 -0.1718  0.2857
  164SOPE   H3S18399   6.635   3.461   9.952 -0.6776  0.5116  0.6649
  164SOPE   C2418400   6.452   3.431   9.837 -0.7340  0.1893 -0.7146
  164SOPE   H4R18401   6.347   3.400   9.855 -0.4154 -0.4645  0.0695
  164SOPE   H4S18402   6.453   3.538   9.808  1.9649  0.3091 -0.4559
  164SOPE   C2518403   6.495   3.341   9.723  0.4290  0.0895 -0.0646
  164SOPE   H5R18404   6.601   3.352   9.694  1.2229 -1.1804  2.1206
  164SOPE   H5S18405   6.485   3.234   9.751  1.6599 -0.3095 -1.0903
  164SOPE   C2618406   6.402   3.375   9.603 -0.2801  0.2786 -0.1996
  164SOPE   H6R18407   6.296   3.351   9.627 -0.1627  1.0162  1.1387
  164SOPE   H6S18408   6.409   3.484   9.586  1.0534  1.0134  4.0061
  164SOPE   C2718409   6.443   3.292   9.471  0.5065  0.3934  0.1719
  164SOPE   H7R18410   6.426   3.185   9.493 -1.5074  0.4290 -0.9925
  164SOPE   H7S18411   6.381   3.318   9.383  1.6264 -0.6589 -0.9665
  164SOPE   C2818412   6.584   3.317   9.420 -0.0571 -0.1117  0.1013
  164SOPE   H8R18413   6.652   3.274   9.496 -0.3439  0.9386  0.9807
  164SOPE   H8S18414   6.605   3.248   9.336  0.4153 -0.0625  0.1783
  164SOPE   C2918415   6.627   3.456   9.378 -0.8386 -0.1760 -0.0802
  164SOPE   H9118416   6.672   3.514   9.459 -1.9550  0.6918 -0.0681
  164SOPE  C21018417   6.604   3.510   9.261  1.1996 -0.3754  0.2409
  164SOPE  H10118418   6.638   3.611   9.236 -0.5466 -0.2425 -1.9862
  164SOPE  C21118419   6.524   3.446   9.146  0.0483 -0.3769  0.4528
  164SOPE  H11R18420   6.461   3.364   9.187  0.1791 -0.4611  0.4891
  164SOPE  H11S18421   6.594   3.407   9.069 -1.0517  0.8528 -1.2194
  164SOPE  C21218422   6.422   3.547   9.089 -0.7382  0.4181 -0.2719
  164SOPE  H12R18423   6.484   3.634   9.059 -2.9069  2.4152  0.7216
  164SOPE  H12S18424   6.356   3.578   9.172  1.1805  1.4420  0.9361
  164SOPE  C21318425   6.334   3.502   8.968 -0.3305 -0.0733  0.2762
  164SOPE  H13R18426   6.393   3.477   8.877 -0.4948  0.9696 -0.1360
  164SOPE  H13S18427   6.260   3.581   8.942  0.9057  0.7880 -0.7481
  164SOPE  C21418428   6.261   3.374   8.996 -0.7774 -0.7038 -0.2138
  164SOPE  H14R18429   6.201   3.388   9.089  1.2898  0.0911  1.0634
  164SOPE  H14S18430   6.329   3.296   9.036  2.7953  2.3425  0.1574
  164SOPE  C21518431   6.164   3.317   8.891  0.5888 -0.3051  0.3972
  164SOPE  H15R18432   6.216   3.285   8.798 -0.6566  0.2064 -0.4897
  164SOPE  H15S18433   6.096   3.396   8.851 -0.2170 -0.1064  2.0884
  164SOPE  C21618434   6.069   3.214   8.936 -0.8328  0.0768 -0.5446
  164SOPE  H16R18435   6.000   3.198   8.851 -1.6655  2.9488 -0.4894
  164SOPE  H16S18436   6.009   3.242   9.025  3.3151 -0.1147  2.6180
  164SOPE  C21718437   6.129   3.081   8.972  0.2715  0.4507  0.5597
  164SOPE  H17R18438   6.203   3.084   9.054  3.4340  1.3882 -2.1227
  164SOPE  H17S18439   6.187   3.045   8.885  0.4341  2.2778 -0.1440
  164SOPE  C21818440   6.033   2.964   8.992  0.6519 -0.3135 -0.1827
  164SOPE  H18R18441   5.978   2.930   8.902 -2.8196  1.8502  0.8840
  164SOPE  H18S18442   5.946   2.977   9.061  0.4193 -2.3850 -0.0128
  164SOPE  H18T18443   6.090   2.875   9.026 -1.6995 -2.4170 -1.4222
  164SOPE   C3318444   5.963   3.163   9.925 -0.6017 -0.2045 -0.1049
  164SOPE   H3X18445   5.853   3.163   9.938 -1.2264 -2.8990 -3.7603
  164SOPE   H3Y18446   5.998   3.072   9.979 -1.3737 -0.6512 -0.3465
  164SOPE   C3418447   5.979   3.149   9.776 -0.8355  0.5503 -0.0161
  164SOPE   H4X18448   6.084   3.131   9.747 -1.7837 -3.4874 -1.6019
  164SOPE   H4Y18449   5.937   3.238   9.725  1.2181  0.0968 -2.6735
  164SOPE   C3518450   5.904   3.026   9.724  0.0254 -0.1675 -0.4404
  164SOPE   H5X18451   5.795   3.025   9.746  0.1452 -0.3925  0.1562
  164SOPE   H5Y18452   5.946   2.935   9.772 -0.0687 -0.2867 -0.5838
  164SOPE   C3618453   5.928   2.994   9.574  0.3942 -0.0044 -0.1800
  164SOPE   H6X18454   6.039   2.996   9.561  0.2866 -1.4016 -1.8149
  164SOPE   H6Y18455   5.883   3.066   9.502  2.5468  1.7963  0.1720
  164SOPE   C3718456   5.891   2.853   9.544 -0.7215 -0.0933  0.1933
  164SOPE   H7X18457   5.784   2.837   9.570 -0.4861 -1.0505  0.6148
  164SOPE   H7Y18458   5.965   2.785   9.593 -0.4315 -1.0996 -1.5422
  164SOPE   C3818459   5.903   2.827   9.386 -0.0462  0.7511 -0.1763
  164SOPE   H8X18460   6.002   2.864   9.351  0.3226  0.5547  0.6517
  164SOPE   H8Y18461   5.820   2.886   9.343 -2.8411 -1.6664  1.5762
  164SOPE   C3918462   5.875   2.685   9.340  0.0504 -0.1635  0.5703
  164SOPE   H9X18463   5.772   2.650   9.358  0.2758 -0.3005  1.6411
  164SOPE   H9Y18464   5.943   2.618   9.397  1.2585  0.1652 -0.4453
  164SOPE  C31018465   5.899   2.670   9.192 -0.4473  0.0781  0.2787
  164SOPE  H10X18466   5.987   2.726   9.156  0.6179 -1.7440 -0.0703
  164SOPE  H10Y18467   5.810   2.717   9.143 -1.5724 -1.2843  0.9398
  164SOPE  C31118468   5.911   2.525   9.148  0.1601  0.6729 -0.3177
  164SOPE  H11X18469   5.821   2.477   9.193 -0.1170  1.1771 -0.3295
  164SOPE  H11Y18470   5.998   2.474   9.195 -1.8416 -1.2207  1.5980
  164SOPE  C31218471   5.904   2.496   8.999 -0.4999 -0.0185 -0.2057
  164SOPE  H12X18472   5.986   2.551   8.948  0.3109 -2.2408 -1.4376
  164SOPE  H12Y18473   5.811   2.545   8.962 -0.3947 -0.2905 -0.8484
  164SOPE  C31318474   5.906   2.348   8.961  0.1086 -1.2374  0.0878
  164SOPE  H13X18475   5.816   2.299   9.003 -0.5730 -0.4830 -0.4485
  164SOPE  H13Y18476   5.990   2.299   9.014  0.8148 -1.0530 -0.8458
  164SOPE  C31418477   5.912   2.324   8.807  0.0484 -0.1186 -0.3877
  164SOPE  H14X18478   6.022   2.332   8.794  0.2105  1.9105  1.4249
  164SOPE  H14Y18479   5.856   2.397   8.744  0.7797  0.8328  0.0395
  164SOPE  C31518480   5.865   2.182   8.767  0.7016 -0.3862 -1.2118
  164SOPE  H15X18481   5.758   2.165   8.743  0.7020 -1.1294 -0.7379
  164SOPE  H15Y18482   5.886   2.101   8.841 -2.0842 -0.0059  0.1316
  164SOPE  C31618483   5.948   2.150   8.636  0.0776  0.0283 -0.5613
  164SOPE  H16X18484   6.055   2.129   8.658 -0.4262 -0.1420  2.1564
  164SOPE  H16Y18485   5.945   2.229   8.558 -0.9362 -0.8827 -1.4689
  164SOPE  C31718486   5.892   2.024   8.562 -0.4141  0.0484  0.0275
  164SOPE  H17X18487   5.971   1.998   8.489 -1.0052  0.3028 -0.7106
  164SOPE  H17Y18488   5.800   2.052   8.507 -0.5504 -1.3718 -0.5107
  164SOPE  C31818489   5.874   1.896   8.648 -0.2755  0.2282  0.1513
  164SOPE  H18X18490   5.965   1.863   8.702 -0.5260 -2.5850 -0.9723
  164SOPE  H18Y18491   5.845   1.812   8.581 -0.5914  0.5630 -0.1428
  164SOPE  H18Z18492   5.795   1.914   8.724 -0.9642 -3.1366  0.3622
  165SOPE     N18493   4.415   5.527  10.670  0.0211 -0.2991 -0.4784
  165SOPE   HN118494   4.368   5.603  10.617 -2.4164  1.2453  3.4627
  165SOPE   HN218495   4.349   5.447  10.668 -1.9499  1.2557 -0.5898
  165SOPE   HN318496   4.424   5.566  10.766  2.0858  2.0345 -1.4917
  165SOPE   C1218497   4.546   5.494  10.608  0.3501 -0.6245 -0.2785
  165SOPE  H12A18498   4.605   5.443  10.686 -1.4370  0.7942  2.1637
  165SOPE  H12B18499   4.605   5.584  10.578  1.5688 -1.2559  0.1657
  165SOPE   C1118500   4.542   5.400  10.487  0.1925 -0.5984  0.2496
  165SOPE  H11A18501   4.645   5.364  10.469  0.7445  0.5398  1.0145
  165SOPE  H11B18502   4.524   5.478  10.410 -0.6379 -0.7626  0.2649
  165SOPE     P18503   4.299   5.293  10.447  0.0419  0.3841 -0.1212
  165SOPE   O1318504   4.228   5.387  10.539  0.0650 -0.1088 -0.1827
  165SOPE   O1418505   4.245   5.154  10.449  0.8290 -0.0291  0.2198
  165SOPE   O1218506   4.446   5.285  10.494 -0.4571 -0.1040 -0.0690
  165SOPE   O1118507   4.294   5.349  10.302 -0.1187 -0.0274  0.3710
  165SOPE    C118508   4.390   5.315  10.207  0.4291  0.8212 -0.3040
  165SOPE    HA18509   4.432   5.215  10.232  1.8317  0.7528 -2.6426
  165SOPE    HB18510   4.464   5.397  10.218  2.5184 -1.2827  3.9953
  165SOPE    C218511   4.342   5.315  10.064  0.3135  0.7668  0.0504
  165SOPE    HS18512   4.427   5.301   9.993  1.2703  1.3452  1.0471
  165SOPE   O2118513   4.298   5.448  10.046  0.3176  0.4885 -0.0672
  165SOPE   C2118514   4.321   5.504   9.929  0.1626  0.6437 -0.7574
  165SOPE   O2218515   4.381   5.453   9.839 -0.2834 -0.1086  0.1309
  165SOPE   C2218516   4.260   5.639   9.928  0.6111  0.0809  0.3258
  165SOPE   H2R18517   4.318   5.704   9.996 -0.7183 -0.8344  2.4533
  165SOPE   H2S18518   4.155   5.626   9.961  0.8059 -1.5735  0.3728
  165SOPE    C318519   4.229   5.209  10.038 -0.2439  0.0166  0.2846
  165SOPE    HX18520   4.134   5.231  10.090 -1.1636 -0.8072 -0.9702
  165SOPE    HY18521   4.270   5.112  10.074 -0.2452  1.0526  3.2987
  165SOPE   O3118522   4.207   5.179   9.893  0.0711 -0.1786 -0.0917
  165SOPE   C3118523   4.100   5.256   9.842  0.1273  0.1243  0.3867
  165SOPE   O3218524   4.034   5.333   9.909  0.4992 -0.4328 -0.1918
  165SOPE   C3218525   4.093   5.230   9.692  0.0790  0.5222  0.2792
  165SOPE   H2X18526   3.994   5.265   9.655 -1.4440 -2.3535  1.2927
  165SOPE   H2Y18527   4.100   5.120   9.676  1.4312  0.2944  2.1592
  165SOPE   C2318528   4.248   5.712   9.790  0.1688  0.8787 -0.5710
  165SOPE   H3R18529   4.159   5.779   9.794 -0.8039 -0.3790 -0.7221
  165SOPE   H3S18530   4.222   5.639   9.711 -1.1048  0.8501 -0.1634
  165SOPE   C2418531   4.381   5.785   9.758 -0.3118  0.7996 -0.1315
  165SOPE   H4R18532   4.421   5.842   9.845  1.9673  0.3707 -0.8087
  165SOPE   H4S18533   4.453   5.704   9.734 -0.3124  1.1830 -1.4829
  165SOPE   C2518534   4.371   5.886   9.638 -0.1151 -0.5393  0.1276
  165SOPE   H5R18535   4.337   5.836   9.545 -0.6308  2.5093 -1.4614
  165SOPE   H5S18536   4.293   5.961   9.666  1.5583  1.4709 -0.2907
  165SOPE   C2618537   4.505   5.968   9.609 -0.0723  0.6187 -0.7111
  165SOPE   H6R18538   4.518   6.014   9.709 -0.9256  0.4971 -0.5396
  165SOPE   H6S18539   4.590   5.902   9.580  1.7096  2.8169 -0.7345
  165SOPE   C2718540   4.483   6.085   9.513  0.1180 -0.3319  0.2765
  165SOPE   H7R18541   4.406   6.157   9.547 -0.8356  0.0003 -2.3234
  165SOPE   H7S18542   4.582   6.137   9.509  0.1569 -0.4519 -1.1482
  165SOPE   C2818543   4.429   6.045   9.373 -0.0752  0.0810  0.2818
  165SOPE   H8R18544   4.336   5.985   9.387  0.6318 -0.8074  1.3248
  165SOPE   H8S18545   4.400   6.139   9.321 -0.3071 -0.1297  0.0228
  165SOPE   C2918546   4.510   5.960   9.283  0.4074  0.0209  0.2828
  165SOPE   H9118547   4.590   5.904   9.335  0.3739  0.7136  1.0979
  165SOPE  C21018548   4.509   5.936   9.149  0.2200  0.5153  0.7757
  165SOPE  H10118549   4.587   5.868   9.112  0.6568  1.8676 -0.9151
  165SOPE  C21118550   4.428   5.999   9.036 -0.6895  0.2728  0.4405
  165SOPE  H11R18551   4.354   6.063   9.088 -1.7486  1.9141 -2.8072
  165SOPE  H11S18552   4.381   5.915   8.981  0.4683  0.4775 -0.9255
  165SOPE  C21218553   4.521   6.079   8.946 -0.2121 -0.6426  0.5380
  165SOPE  H12R18554   4.570   6.159   9.005 -1.1408 -0.4272  1.0445
  165SOPE  H12S18555   4.448   6.126   8.877 -1.2318  1.1384  2.6935
  165SOPE  C21318556   4.631   6.000   8.868  0.2410 -0.8965 -0.6191
  165SOPE  H13R18557   4.608   5.891   8.872 -2.1678 -0.4365 -0.3885
  165SOPE  H13S18558   4.722   6.007   8.931  0.8336 -2.9104 -1.1657
  165SOPE  C21418559   4.651   6.052   8.729  0.1853 -0.1861 -0.0563
  165SOPE  H14R18560   4.698   6.152   8.739  2.8089 -1.5344  3.2317
  165SOPE  H14S18561   4.554   6.075   8.681 -1.0644 -0.7297  2.0455
  165SOPE  C21518562   4.737   5.954   8.651  0.6441 -0.2527 -0.7943
  165SOPE  H15R18563   4.668   5.868   8.639  1.6452 -0.9696 -1.5310
  165SOPE  H15S18564   4.827   5.924   8.708 -1.4433 -2.6334  1.5703
  165SOPE  C21618565   4.776   5.991   8.507  0.6490 -0.2702 -0.5167
  165SOPE  H16R18566   4.855   6.068   8.507  3.0959 -2.6279 -0.1246
  165SOPE  H16S18567   4.684   6.027   8.456  0.1653  1.7981  1.6407
  165SOPE  C21718568   4.832   5.876   8.424 -0.5537  0.7933  0.8439
  165SOPE  H17R18569   4.923   5.832   8.471 -1.9538 -0.4197  2.5295
  165SOPE  H17S18570   4.873   5.905   8.325  0.4555  1.9610  1.5677
  165SOPE  C21818571   4.741   5.761   8.386  0.9527  0.9296 -0.3520
  165SOPE  H18R18572   4.793   5.673   8.343 -2.2178 -0.5866 -1.4535
  165SOPE  H18S18573   4.662   5.801   8.318  0.9679 -0.5485 -1.2896
  165SOPE  H18T18574   4.685   5.728   8.477  1.5425 -2.4564 -1.0726
  165SOPE   C3318575   4.208   5.299   9.616  0.1737 -0.1844  0.1193
  165SOPE   H3X18576   4.304   5.294   9.671 -0.0409 -0.1695  0.4985
  165SOPE   H3Y18577   4.186   5.408   9.606  1.4569  0.1938  1.1454
  165SOPE   C3418578   4.237   5.243   9.476 -0.6237 -0.2408 -0.2069
  165SOPE   H4X18579   4.167   5.290   9.404  0.6513  1.2662 -0.5203
  165SOPE   H4Y18580   4.212   5.134   9.482  0.0756 -0.3580  0.7219
  165SOPE   C3518581   4.382   5.256   9.434 -0.0119 -0.1487  0.6668
  165SOPE   H5X18582   4.396   5.199   9.339 -0.8821  0.4601  0.1582
  165SOPE   H5Y18583   4.439   5.200   9.510 -1.3983 -0.1236  1.7785
  165SOPE   C3618584   4.417   5.402   9.401  0.0860  0.4957 -0.7240
  165SOPE   H6X18585   4.402   5.463   9.493  1.8482 -0.7160  0.4410
  165SOPE   H6Y18586   4.339   5.442   9.333 -1.8903  1.2747  1.8141
  165SOPE   C3718587   4.556   5.407   9.359 -0.2041  0.0919  0.3620
  165SOPE   H7X18588   4.623   5.343   9.421  1.1523  0.4671 -0.6702
  165SOPE   H7Y18589   4.588   5.513   9.368  0.1333  0.2110 -1.8539
  165SOPE   C3818590   4.571   5.377   9.207 -0.8507  0.2036 -0.1325
  165SOPE   H8X18591   4.511   5.290   9.173  0.0078 -0.3402 -0.2735
  165SOPE   H8Y18592   4.678   5.362   9.184 -1.1330 -0.8418 -0.8504
  165SOPE   C3918593   4.525   5.506   9.128  0.0927 -0.2856  0.2206
  165SOPE   H9X18594   4.586   5.598   9.140  1.5249 -1.1310 -0.3497
  165SOPE   H9Y18595   4.430   5.543   9.172 -0.7905  2.2996 -3.3548
  165SOPE  C31018596   4.507   5.499   8.973 -0.0621 -0.0913  0.3220
  165SOPE  H10X18597   4.488   5.606   8.949  0.4230  0.3401  1.7784
  165SOPE  H10Y18598   4.416   5.447   8.936 -0.4944  1.0176 -0.2235
  165SOPE  C31118599   4.627   5.449   8.890  0.2764  0.3999  0.1948
  165SOPE  H11X18600   4.651   5.349   8.931 -0.1208 -0.0157 -0.5527
  165SOPE  H11Y18601   4.711   5.511   8.927  1.9044 -1.6703  0.1189
  165SOPE  C31218602   4.606   5.445   8.742 -0.2254  0.3655  0.0108
  165SOPE  H12X18603   4.562   5.545   8.723 -1.6026  0.3239  2.5503
  165SOPE  H12Y18604   4.530   5.370   8.710  0.4420  0.1177 -1.0597
  165SOPE  C31318605   4.727   5.420   8.646  0.1312  0.0528 -0.0482
  165SOPE  H13X18606   4.689   5.426   8.541 -1.2146  1.8645  0.5029
  165SOPE  H13Y18607   4.764   5.315   8.649  0.9983  0.3294 -0.5149
  165SOPE  C31418608   4.841   5.519   8.669 -0.0900  0.1917 -0.4886
  165SOPE  H14X18609   4.883   5.481   8.764 -2.7613  0.2408  0.7850
  165SOPE  H14Y18610   4.804   5.624   8.678 -3.0765 -0.7719 -0.4407
  165SOPE  C31518611   4.960   5.505   8.562  0.0989 -0.7752 -0.0928
  165SOPE  H15X18612   4.923   5.538   8.462 -1.6384 -1.8503  0.1563
  165SOPE  H15Y18613   4.983   5.397   8.567  1.8796 -0.4238 -0.2277
  165SOPE  C31618614   5.093   5.573   8.597  0.3954  0.4174 -0.8321
  165SOPE  H16X18615   5.133   5.531   8.691  1.2292  2.6686 -0.1381
  165SOPE  H16Y18616   5.068   5.679   8.617  1.5393  0.2407  1.9922
  165SOPE  C31718617   5.200   5.545   8.488  0.1335 -0.5536 -0.4436
  165SOPE  H17X18618   5.162   5.581   8.391 -2.0459 -1.1337  0.1429
  165SOPE  H17Y18619   5.217   5.438   8.464 -0.0619 -1.1973  2.0014
  165SOPE  C31818620   5.324   5.621   8.513  0.2988 -0.0335 -0.4324
  165SOPE  H18X18621   5.301   5.715   8.567 -0.1574  0.3610 -1.3008
  165SOPE  H18Y18622   5.377   5.651   8.420 -0.9709  2.2167 -0.4821
  165SOPE  H18Z18623   5.397   5.560   8.571 -0.6654  0.6097  1.5143
  166SOPE     N18624   6.529   6.406  11.116  0.1932  0.1926 -0.0425
  166SOPE   HN118625   6.475   6.332  11.066  0.4577 -0.3681  0.4907
  166SOPE   HN218626   6.476   6.436  11.200 -1.1095 -2.7168  0.3150
  166SOPE   HN318627   6.542   6.483  11.048  2.2166 -0.6129 -0.6487
  166SOPE   C1218628   6.671   6.359  11.153  0.3016 -0.9804  0.2702
  166SOPE  H12A18629   6.662   6.316  11.255  0.7583 -0.2665  0.6173
  166SOPE  H12B18630   6.741   6.444  11.164  1.4339 -2.1146  2.6782
  166SOPE   C1118631   6.712   6.248  11.051  0.3803  0.0239 -0.3029
  166SOPE  H11A18632   6.635   6.168  11.047  1.6564 -1.5258  2.6875
  166SOPE  H11B18633   6.798   6.194  11.096 -0.3298 -0.3611  0.6295
  166SOPE     P18634   6.689   6.252  10.791 -0.0819  0.2439 -0.2114
  166SOPE   O1318635   6.553   6.298  10.790 -0.5656 -0.1006  0.1108
  166SOPE   O1418636   6.707   6.108  10.769  0.5689 -0.3062 -0.2243
  166SOPE   O1218637   6.748   6.298  10.927 -0.6374 -0.0758 -0.1306
  166SOPE   O1118638   6.775   6.327  10.686 -0.3346  0.3256  0.1019
  166SOPE    C118639   6.789   6.472  10.702  0.2792 -0.6148  0.0095
  166SOPE    HA18640   6.837   6.511  10.794 -1.6115  2.9528 -0.3377
  166SOPE    HB18641   6.690   6.520  10.714  0.9395  0.7123  0.4051
  166SOPE    C218642   6.859   6.543  10.579 -0.5782 -0.7884 -0.5705
  166SOPE    HS18643   6.865   6.653  10.595  0.0237 -0.3208 -3.5549
  166SOPE   O2118644   6.794   6.510  10.456 -0.1337 -0.3389  0.0039
  166SOPE   C2118645   6.794   6.603  10.370 -0.7552  0.1204 -0.6219
  166SOPE   O2218646   6.823   6.722  10.390 -0.0268 -0.2501 -0.0990
  166SOPE   C2218647   6.725   6.561  10.238 -0.1292 -0.1488 -0.8363
  166SOPE   H2R18648   6.678   6.657  10.209  4.1504  2.7310  0.8776
  166SOPE   H2S18649   6.646   6.485  10.262 -1.1167  0.5461 -1.8140
  166SOPE    C318650   7.014   6.508  10.569 -0.1730 -1.1485  0.1425
  166SOPE    HX18651   7.033   6.398  10.565 -0.4973 -1.1949 -2.9751
  166SOPE    HY18652   7.066   6.543  10.661 -1.2745 -1.0112  0.7277
  166SOPE   O3118653   7.080   6.571  10.461  0.7506 -0.4887 -0.1651
  166SOPE   C3118654   7.214   6.557  10.449 -0.6284 -0.4132 -0.6425
  166SOPE   O3218655   7.278   6.503  10.539  0.3193 -0.2206 -0.4654
  166SOPE   C3218656   7.266   6.618  10.316  0.8756  0.6716  0.2934
  166SOPE   H2X18657   7.181   6.600  10.247 -0.1673  0.2994  1.6124
  166SOPE   H2Y18658   7.365   6.570  10.297  1.5309  2.1101 -0.0513
  166SOPE   C2318659   6.817   6.494  10.136 -0.1523 -0.0120  0.2969
  166SOPE   H3R18660   6.743   6.445  10.068 -2.2279 -0.5928  2.8061
  166SOPE   H3S18661   6.873   6.410  10.183  1.3237 -0.1481 -1.6029
  166SOPE   C2418662   6.902   6.592  10.056  0.1515 -0.4915  0.4004
  166SOPE   H4R18663   6.844   6.680  10.019  2.1462 -0.1946 -2.2743
  166SOPE   H4S18664   6.961   6.646  10.133 -0.0529 -1.6660  1.4135
  166SOPE   C2518665   6.996   6.539   9.947  0.0550  0.4364 -0.3056
  166SOPE   H5R18666   7.078   6.485   9.999 -1.5346 -1.9350 -0.0928
  166SOPE   H5S18667   6.946   6.456   9.891  1.2549 -1.0778  0.7757
  166SOPE   C2618668   7.046   6.648   9.850 -0.0393  0.2607  0.4680
  166SOPE   H6R18669   6.960   6.680   9.788  0.0504 -0.4430 -0.0254
  166SOPE   H6S18670   7.088   6.730   9.913 -0.7466 -0.3684  1.7898
  166SOPE   C2718671   7.153   6.602   9.748  0.5674  0.3930  0.8425
  166SOPE   H7R18672   7.243   6.558   9.796  1.0554  0.0792 -0.3244
  166SOPE   H7S18673   7.108   6.522   9.686  0.3278 -0.0214  1.5408
  166SOPE   C2818674   7.186   6.722   9.648  0.2924  0.1271 -0.6939
  166SOPE   H8R18675   7.089   6.756   9.605 -0.2266 -0.6408 -0.1524
  166SOPE   H8S18676   7.226   6.803   9.713 -0.9016  2.1688 -2.3636
  166SOPE   C2918677   7.293   6.693   9.552  0.3171  0.6239  0.0847
  166SOPE   H9118678   7.392   6.672   9.595  1.1520 -1.1136 -2.4742
  166SOPE  C21018679   7.287   6.689   9.419  0.4314  0.2463  0.1507
  166SOPE  H10118680   7.388   6.672   9.377  0.0199 -0.5426 -0.5531
  166SOPE  C21118681   7.173   6.708   9.316  0.1815 -0.6277 -0.7053
  166SOPE  H11R18682   7.217   6.768   9.234  3.9028 -2.2939 -0.1461
  166SOPE  H11S18683   7.086   6.762   9.358  0.7972  1.3504 -1.8308
  166SOPE  C21218684   7.135   6.567   9.261  0.1881  0.7100  0.0145
  166SOPE  H12R18685   7.044   6.578   9.198  0.2195  3.8498  0.3183
  166SOPE  H12S18686   7.107   6.510   9.352 -1.6656  0.0571 -0.9027
  166SOPE  C21318687   7.248   6.490   9.188 -0.1978  0.1586 -0.0131
  166SOPE  H13R18688   7.210   6.387   9.168 -1.2631  0.3319  1.0105
  166SOPE  H13S18689   7.347   6.483   9.239  0.3217  1.1722 -0.8506
  166SOPE  C21418690   7.289   6.562   9.051  0.5296 -0.1750  0.5911
  166SOPE  H14R18691   7.380   6.514   9.010 -1.0251 -2.7329 -0.1328
  166SOPE  H14S18692   7.305   6.671   9.065  1.3819 -0.4610  2.0989
  166SOPE  C21518693   7.181   6.532   8.943  0.0964 -0.3308  0.8890
  166SOPE  H15R18694   7.087   6.570   8.988  1.3360  2.8048  1.0540
  166SOPE  H15S18695   7.171   6.421   8.941  3.6530 -0.7586  0.2878
  166SOPE  C21618696   7.203   6.580   8.802 -0.0532  0.6095  0.0947
  166SOPE  H16R18697   7.285   6.527   8.749 -1.3410  0.3320 -1.6869
  166SOPE  H16S18698   7.247   6.682   8.799 -0.7318  0.8963 -1.9333
  166SOPE  C21718699   7.078   6.566   8.720 -0.1666 -0.2262  0.0948
  166SOPE  H17R18700   7.005   6.634   8.770 -1.1905  0.3791 -2.0654
  166SOPE  H17S18701   7.035   6.464   8.725  1.9864 -1.3770 -2.4124
  166SOPE  C21818702   7.097   6.616   8.580 -0.6308  0.5574  0.3807
  166SOPE  H18R18703   7.164   6.705   8.573  0.3261 -0.2615 -1.2336
  166SOPE  H18S18704   7.006   6.648   8.525 -1.3568 -1.0036  0.6134
  166SOPE  H18T18705   7.126   6.534   8.512 -1.8682  0.3910  0.0326
  166SOPE   C3318706   7.276   6.772  10.325  0.1755  0.0342  0.3023
  166SOPE   H3X18707   7.371   6.792  10.379  0.2558 -0.5930  0.3954
  166SOPE   H3Y18708   7.183   6.825  10.355 -1.2269 -2.5254  0.7170
  166SOPE   C3418709   7.288   6.824  10.180  0.0431  0.7169  0.4592
  166SOPE   H4X18710   7.288   6.935  10.173 -1.5163  0.6380 -1.7795
  166SOPE   H4Y18711   7.200   6.787  10.124  0.0498 -1.1184  1.5900
  166SOPE   C3518712   7.415   6.793  10.100  0.5144  0.2990  0.5773
  166SOPE   H5X18713   7.416   6.683  10.082 -0.2058  0.1008  1.6299
  166SOPE   H5Y18714   7.500   6.830  10.161 -1.1066  0.0203  3.1364
  166SOPE   C3618715   7.415   6.865   9.966  0.1960 -0.7966 -0.9657
  166SOPE   H6X18716   7.413   6.971  10.000 -0.2417 -1.8990  2.9245
  166SOPE   H6Y18717   7.310   6.852   9.932 -0.2966 -0.2929  0.3014
  166SOPE   C3718718   7.525   6.838   9.863  0.3723  0.4127 -0.2395
  166SOPE   H7X18719   7.508   6.744   9.807  2.3120  0.1506 -0.4578
  166SOPE   H7Y18720   7.623   6.824   9.914  0.2317 -0.0689 -0.1033
  166SOPE   C3818721   7.526   6.934   9.740 -0.3666 -0.4222 -0.3030
  166SOPE   H8X18722   7.493   7.038   9.763  2.5172  0.7860 -1.0587
  166SOPE   H8Y18723   7.462   6.887   9.663  0.3928 -2.0983  0.0422
  166SOPE   C3918724   7.672   6.937   9.686 -0.6699 -0.1542 -0.2192
  166SOPE   H9X18725   7.696   6.829   9.690 -1.6719 -0.3633  0.5355
  166SOPE   H9Y18726   7.744   6.995   9.747  2.2352 -2.5477 -1.1369
  166SOPE  C31018727   7.674   6.984   9.542  0.0905 -0.1456 -0.0794
  166SOPE  H10X18728   7.777   7.020   9.521  0.1093  0.1046  0.4149
  166SOPE  H10Y18729   7.620   7.081   9.535 -0.0283  0.0534  2.5696
  166SOPE  C31118730   7.622   6.878   9.436 -0.1292 -0.3799 -0.7473
  166SOPE  H11X18731   7.512   6.884   9.431 -0.1429  2.4623  0.7729
  166SOPE  H11Y18732   7.670   6.784   9.471  0.2509 -0.0032 -0.2368
  166SOPE  C31218733   7.665   6.911   9.293 -0.1501 -0.1822  0.2834
  166SOPE  H12X18734   7.775   6.910   9.278 -0.3666 -1.9617 -1.5924
  166SOPE  H12Y18735   7.612   7.007   9.277 -2.6865 -1.3199  1.3280
  166SOPE  C31318736   7.609   6.834   9.172  0.2000 -0.0918  0.6897
  166SOPE  H13X18737   7.498   6.841   9.184 -0.0419 -0.0813 -1.2662
  166SOPE  H13Y18738   7.634   6.726   9.179 -2.8531 -0.8680  1.6133
  166SOPE  C31418739   7.655   6.896   9.036  0.5388 -1.1141  0.0288
  166SOPE  H14X18740   7.759   6.934   9.048  0.2792 -1.0444  2.4918
  166SOPE  H14Y18741   7.603   6.989   9.007  0.1628 -1.1585  0.5512
  166SOPE  C31518742   7.630   6.782   8.937 -0.2754 -0.9956 -0.0673
  166SOPE  H15X18743   7.523   6.754   8.942 -0.0362 -1.8990  3.9645
  166SOPE  H15Y18744   7.693   6.694   8.963 -0.2416 -0.2559  2.6860
  166SOPE  C31618745   7.676   6.819   8.795 -0.2546 -0.2209  0.3943
  166SOPE  H16X18746   7.681   6.718   8.750  1.0049  0.0162 -0.0353
  166SOPE  H16Y18747   7.777   6.865   8.795  0.0555 -0.7234  2.8284
  166SOPE  C31718748   7.580   6.912   8.715  0.2931  0.4287 -0.2396
  166SOPE  H17X18749   7.533   6.994   8.774  1.5303  1.0658 -0.1040
  166SOPE  H17Y18750   7.507   6.843   8.668  0.4777  0.3945 -0.4815
  166SOPE  C31818751   7.650   6.983   8.602 -0.6527 -0.0061  0.1964
  166SOPE  H18X18752   7.736   7.042   8.641 -0.3748 -0.3664  0.1379
  166SOPE  H18Y18753   7.583   7.039   8.534  0.6969 -1.7730 -2.8103
  166SOPE  H18Z18754   7.687   6.905   8.532 -0.7608  1.5518 -1.7014
  167SOPE     N18755   4.140   3.711   6.171  0.2814 -0.0850 -0.4848
  167SOPE   HN118756   4.202   3.650   6.113 -1.1584  1.0800 -3.4794
  167SOPE   HN218757   4.055   3.714   6.112 -0.8667 -0.8290  1.0656
  167SOPE   HN318758   4.177   3.808   6.174  0.2683 -0.0324 -1.5480
  167SOPE   C1218759   4.121   3.648   6.304 -0.2685  0.0265 -0.2054
  167SOPE  H12A18760   4.043   3.709   6.353 -1.0222 -1.5828  0.6922
  167SOPE  H12B18761   4.212   3.675   6.361 -1.1329  2.2960  0.2014
  167SOPE   C1118762   4.094   3.496   6.294 -0.3926  0.2455  0.0753
  167SOPE  H11A18763   4.088   3.463   6.400 -1.3495 -1.9089 -0.5779
  167SOPE  H11B18764   4.178   3.443   6.245  0.6606  1.1119  0.9018
  167SOPE     P18765   3.886   3.335   6.234  0.0551 -0.2635 -0.5756
  167SOPE   O1318766   3.986   3.222   6.218  0.0829 -0.6770  0.1977
  167SOPE   O1418767   3.770   3.339   6.143 -0.4933 -0.0847 -0.3264
  167SOPE   O1218768   3.969   3.474   6.229  0.1805 -0.3386 -0.3904
  167SOPE   O1118769   3.843   3.334   6.389  0.7006 -0.2398 -0.0928
  167SOPE    C118770   3.740   3.419   6.442 -0.3055 -0.0819  0.1788
  167SOPE    HA18771   3.715   3.377   6.541 -0.4539  0.6189  0.4488
  167SOPE    HB18772   3.655   3.433   6.372 -1.2457 -1.4022  1.0228
  167SOPE    C218773   3.777   3.560   6.463 -0.1332  0.4947  0.6160
  167SOPE    HS18774   3.836   3.599   6.377 -0.2605  5.2133  2.3456
  167SOPE   O2118775   3.852   3.559   6.581  0.0909 -0.4391  0.2339
  167SOPE   C2118776   3.888   3.671   6.632  0.5647 -0.2656  0.0161
  167SOPE   O2218777   3.893   3.779   6.574 -0.7711 -0.4006 -0.0814
  167SOPE   C2218778   3.934   3.648   6.776 -0.6033 -1.1795  0.0418
  167SOPE   H2R18779   4.044   3.663   6.768 -0.7466  0.0309  0.2415
  167SOPE   H2S18780   3.899   3.544   6.795 -0.9429 -1.0029  0.4005
  167SOPE    C318781   3.655   3.648   6.475  0.4477  0.0868 -0.1988
  167SOPE    HX18782   3.598   3.641   6.380  2.5530  0.3996 -1.5497
  167SOPE    HY18783   3.691   3.753   6.477 -1.1616  0.6782  1.9619
  167SOPE   O3118784   3.576   3.600   6.589 -0.1680  0.6258 -0.1308
  167SOPE   C3118785   3.552   3.681   6.686 -0.3280  0.8431  0.1227
  167SOPE   O3218786   3.582   3.799   6.695 -0.0130 -0.6173 -0.4216
  167SOPE   C3218787   3.444   3.615   6.784 -0.5669  0.2964 -0.5033
  167SOPE   H2X18788   3.484   3.516   6.813 -0.8031  0.9296  2.3500
  167SOPE   H2Y18789   3.345   3.616   6.734 -0.1863  0.2724 -1.2612
  167SOPE   C2318790   3.890   3.754   6.890  0.7113 -0.5114  0.3707
  167SOPE   H3R18791   3.781   3.763   6.871  0.3473 -1.3520  1.9340
  167SOPE   H3S18792   3.942   3.850   6.870 -0.8052  0.4878  1.0595
  167SOPE   C2418793   3.915   3.707   7.034  0.2087  0.5504  0.0908
  167SOPE   H4R18794   3.853   3.617   7.055  1.8049 -0.9499 -1.3079
  167SOPE   H4S18795   4.020   3.673   7.046 -0.9260 -3.7557 -0.2826
  167SOPE   C2518796   3.891   3.815   7.139  0.2989 -0.2316 -0.0066
  167SOPE   H5R18797   3.943   3.912   7.121  1.2523 -0.0860  3.0088
  167SOPE   H5S18798   3.785   3.846   7.136  0.7737  1.4516 -0.5264
  167SOPE   C2618799   3.920   3.756   7.281 -0.4485  0.5500 -0.0094
  167SOPE   H6R18800   3.845   3.674   7.293 -1.0015  0.9516 -0.6276
  167SOPE   H6S18801   4.025   3.722   7.287 -1.0821 -1.9283 -1.3891
  167SOPE   C2718802   3.891   3.848   7.398 -0.1011 -0.2388 -0.6235
  167SOPE   H7R18803   3.970   3.926   7.390 -0.3730  0.3116  1.4281
  167SOPE   H7S18804   3.795   3.902   7.381  0.7253  1.6749  0.4310
  167SOPE   C2818805   3.899   3.784   7.539  0.0264  0.1715 -0.0213
  167SOPE   H8R18806   3.805   3.724   7.540 -0.0074  0.2262  0.3546
  167SOPE   H8S18807   3.986   3.714   7.537 -1.7436 -2.3421  2.2903
  167SOPE   C2918808   3.906   3.875   7.662  0.0952  0.2531 -0.0673
  167SOPE   H9118809   3.881   3.979   7.637  0.0052  0.2022 -0.1881
  167SOPE  C21018810   3.929   3.839   7.790  0.0598  0.4124 -0.2512
  167SOPE  H10118811   3.925   3.919   7.865  0.3617  0.7887 -0.6374
  167SOPE  C21118812   3.952   3.697   7.835 -0.4432  0.2256  0.8135
  167SOPE  H11R18813   4.058   3.684   7.865 -0.5345 -1.0563  0.6391
  167SOPE  H11S18814   3.939   3.616   7.760 -0.8356  1.5035 -0.5470
  167SOPE  C21218815   3.857   3.650   7.953  0.0006  0.2610  0.2786
  167SOPE  H12R18816   3.858   3.539   7.958  1.2979  0.2927  1.8173
  167SOPE  H12S18817   3.749   3.676   7.947  0.0094  0.1044 -0.6181
  167SOPE  C21318818   3.925   3.688   8.087  0.4962  0.3237 -0.9442
  167SOPE  H13R18819   4.035   3.679   8.077  0.5425  0.4519 -0.5822
  167SOPE  H13S18820   3.887   3.618   8.165  1.5100  1.0443  0.2348
  167SOPE  C21418821   3.896   3.834   8.132  0.0879 -0.8232  0.6380
  167SOPE  H14R18822   3.792   3.868   8.114 -0.4986 -2.4081  0.8972
  167SOPE  H14S18823   3.970   3.898   8.079 -1.1845  1.2156  1.2031
  167SOPE  C21518824   3.913   3.845   8.281 -0.1190  0.1767  0.2672
  167SOPE  H15R18825   3.838   3.779   8.328 -0.0876 -1.0655 -1.3549
  167SOPE  H15S18826   3.885   3.951   8.302  2.1054  0.7463  0.6713
  167SOPE  C21618827   4.055   3.817   8.334  0.5381  0.0912 -0.8163
  167SOPE  H16R18828   4.073   3.709   8.316 -0.8462 -0.1037 -1.1082
  167SOPE  H16S18829   4.063   3.846   8.440  1.7771  3.4068 -1.7001
  167SOPE  C21718830   4.169   3.904   8.267  0.5453  0.2227  0.2581
  167SOPE  H17R18831   4.174   3.869   8.162 -1.6159  2.5470 -0.6926
  167SOPE  H17S18832   4.266   3.873   8.313  0.3666  1.6302  1.6601
  167SOPE  C21818833   4.165   4.059   8.271  0.0483 -0.1744 -0.8118
  167SOPE  H18R18834   4.265   4.100   8.245  1.0986 -1.1764  1.3539
  167SOPE  H18S18835   4.140   4.091   8.374  2.1379  0.0841 -0.3391
  167SOPE  H18T18836   4.083   4.093   8.204 -0.8315  0.3837  0.5011
  167SOPE   C3318837   3.439   3.695   6.914  0.5002  0.4951 -0.3011
  167SOPE   H3X18838   3.424   3.803   6.892  1.3969  0.7912  0.4932
  167SOPE   H3Y18839   3.530   3.683   6.976  0.2325  0.3495  0.0686
  167SOPE   C3418840   3.315   3.646   6.993 -0.1711  0.2574  0.0960
  167SOPE   H4X18841   3.325   3.536   7.006  0.2016  0.3324  0.4819
  167SOPE   H4Y18842   3.225   3.669   6.932 -2.5614 -3.1984  1.9829
  167SOPE   C3518843   3.303   3.722   7.123  0.7731  1.2434  0.0250
  167SOPE   H5X18844   3.273   3.829   7.115  1.6105  1.5500  0.9330
  167SOPE   H5Y18845   3.405   3.734   7.164  0.6394  4.0612 -0.2627
  167SOPE   C3618846   3.215   3.644   7.220  0.1119 -0.1525  0.0315
  167SOPE   H6X18847   3.279   3.556   7.242  1.4404  0.6511 -0.4377
  167SOPE   H6Y18848   3.116   3.605   7.189 -1.2655  0.8026  2.9100
  167SOPE   C3718849   3.191   3.723   7.348  0.0527  0.2579  0.2983
  167SOPE   H7X18850   3.142   3.821   7.334  1.3185  1.0111  0.9949
  167SOPE   H7Y18851   3.287   3.748   7.399  0.2246 -1.6773  1.0207
  167SOPE   C3818852   3.100   3.636   7.444  0.3404 -0.3580  0.3482
  167SOPE   H8X18853   3.153   3.542   7.471 -0.0071 -0.8996 -0.8127
  167SOPE   H8Y18854   3.010   3.608   7.386  2.8491 -0.9933 -3.5931
  167SOPE   C3918855   3.073   3.698   7.576 -0.0163 -0.8627 -0.4070
  167SOPE   H9X18856   2.996   3.777   7.570  0.4191 -0.3288  0.6831
  167SOPE   H9Y18857   3.162   3.760   7.601  0.4620 -1.0501 -1.5531
  167SOPE  C31018858   3.040   3.603   7.690 -0.1037  0.2539 -0.6052
  167SOPE  H10X18859   3.125   3.542   7.726 -0.5086  0.4219  0.6856
  167SOPE  H10Y18860   2.965   3.532   7.649 -1.4403  0.5368  1.1884
  167SOPE  C31118861   2.997   3.672   7.827 -0.7872 -0.5407  0.9180
  167SOPE  H11X18862   2.935   3.758   7.795  2.1220  0.9305 -1.2645
  167SOPE  H11Y18863   3.086   3.718   7.875 -0.6086  0.7895 -0.5900
  167SOPE  C31218864   2.926   3.575   7.918 -0.4103 -0.4050 -0.2777
  167SOPE  H12X18865   2.967   3.472   7.913 -1.0799 -0.7259  0.5148
  167SOPE  H12Y18866   2.819   3.584   7.887 -0.8104  0.3871  1.1879
  167SOPE  C31318867   2.928   3.629   8.059 -0.1129 -0.0847 -0.2231
  167SOPE  H13X18868   2.905   3.738   8.060  0.8274  0.1315 -0.8366
  167SOPE  H13Y18869   3.034   3.632   8.092 -0.4981  3.6721  1.2179
  167SOPE  C31418870   2.839   3.548   8.153  0.5717 -0.1334 -0.0456
  167SOPE  H14X18871   2.839   3.438   8.133  1.0210 -0.4079  1.3709
  167SOPE  H14Y18872   2.732   3.572   8.134 -0.4106 -2.4836  1.9891
  167SOPE  C31518873   2.868   3.565   8.311 -1.6332  0.2323  0.4534
  167SOPE  H15X18874   2.863   3.675   8.326 -1.0059  0.3671 -0.2603
  167SOPE  H15Y18875   2.967   3.520   8.335 -0.5571  2.5393  0.6080
  167SOPE  C31618876   2.759   3.511   8.405 -0.3424  0.3433  0.5530
  167SOPE  H16X18877   2.765   3.400   8.400 -0.8194  0.3821 -1.5538
  167SOPE  H16Y18878   2.659   3.546   8.372 -0.0246  0.1822 -0.6320
  167SOPE  C31718879   2.789   3.545   8.547 -0.4424  0.1165 -0.6580
  167SOPE  H17X18880   2.769   3.654   8.563 -0.1422  0.1297 -0.3770
  167SOPE  H17Y18881   2.897   3.522   8.550  0.0476  1.4698 -3.8020
  167SOPE  C31818882   2.731   3.465   8.661  0.2434  0.3984  0.1393
  167SOPE  H18X18883   2.768   3.361   8.676 -1.9057 -0.2844  1.0541
  167SOPE  H18Y18884   2.622   3.462   8.645  0.4066  0.4440 -1.0717
  167SOPE  H18Z18885   2.748   3.529   8.751  0.2217 -0.1554  0.5463
  168SOPE     N18886   1.114   1.639   6.160  0.6810  0.1410 -0.8327
  168SOPE   HN118887   1.209   1.607   6.131  0.8696 -0.6028  0.5245
  168SOPE   HN218888   1.046   1.648   6.081  0.2618  0.4124 -0.4437
  168SOPE   HN318889   1.133   1.737   6.189  2.4051 -0.9662  2.2995
  168SOPE   C1218890   1.052   1.556   6.269  0.3231  0.8483  0.7317
  168SOPE  H12A18891   1.087   1.598   6.366  0.7098 -0.7527  1.3240
  168SOPE  H12B18892   1.080   1.450   6.250 -1.0683  0.6271 -0.2469
  168SOPE   C1118893   0.897   1.571   6.261  0.0949  0.3325 -0.0483
  168SOPE  H11A18894   0.856   1.522   6.353  0.5539 -0.8902 -0.4719
  168SOPE  H11B18895   0.842   1.524   6.177  1.3243  0.2959 -0.8555
  168SOPE     P18896   0.765   1.761   6.384  0.0316  0.0502 -0.0320
  168SOPE   O1318897   0.647   1.681   6.385  0.1003  0.3968  0.3097
  168SOPE   O1418898   0.737   1.907   6.376  0.4514  0.3870 -0.1371
  168SOPE   O1218899   0.858   1.711   6.269 -0.8325 -0.3499 -0.4417
  168SOPE   O1118900   0.847   1.728   6.512 -0.1831  0.1669  0.0564
  168SOPE    C118901   0.976   1.792   6.529 -0.1910  0.5363  0.6349
  168SOPE    HA18902   0.971   1.903   6.531 -1.6021  0.5080  0.3680
  168SOPE    HB18903   1.040   1.769   6.441  0.8331  1.3742  1.1406
  168SOPE    C218904   1.043   1.752   6.659  0.1336  0.3145 -0.9163
  168SOPE    HS18905   1.046   1.641   6.652  2.0252  0.3419 -1.0534
  168SOPE   O2118906   0.961   1.806   6.769 -0.1661 -0.1702 -0.6517
  168SOPE   C2118907   0.945   1.724   6.869  0.2593 -0.6698 -0.4477
  168SOPE   O2218908   0.994   1.615   6.889 -0.6380 -0.3278  0.6538
  168SOPE   C2218909   0.858   1.807   6.971  0.3080 -0.6626 -0.0340
  168SOPE   H2R18910   0.755   1.781   6.938 -0.1338  1.3913 -0.4114
  168SOPE   H2S18911   0.879   1.916   6.968  0.1328 -0.6454 -0.9875
  168SOPE    C318912   1.187   1.804   6.662 -0.1085 -0.7418  0.0162
  168SOPE    HX18913   1.193   1.915   6.662 -0.4691 -0.7206 -0.0065
  168SOPE    HY18914   1.240   1.767   6.572 -0.3680  1.9018 -1.3023
  168SOPE   O3118915   1.257   1.763   6.782  0.4497  0.1002 -0.1208
  168SOPE   C3118916   1.280   1.631   6.802  0.3061  0.4369  0.4360
  168SOPE   O3218917   1.259   1.545   6.721 -0.0791  0.3141  0.6160
  168SOPE   C3218918   1.367   1.627   6.924  0.4821 -0.3967  0.2306
  168SOPE   H2X18919   1.465   1.678   6.916  0.4373 -0.1390  1.1462
  168SOPE   H2Y18920   1.381   1.519   6.947  2.0867  0.1930  2.4759
  168SOPE   C2318921   0.886   1.774   7.118  0.5005  0.5436  0.3186
  168SOPE   H3R18922   0.818   1.839   7.177  0.0849 -0.2783  0.7774
  168SOPE   H3S18923   0.990   1.805   7.141  0.8353 -0.6818  0.5163
  168SOPE   C2418924   0.849   1.629   7.155  0.0393  0.3960  0.2795
  168SOPE   H4R18925   0.744   1.616   7.120 -0.1978  0.2833  1.0043
  168SOPE   H4S18926   0.914   1.554   7.106 -1.2883 -2.1585  2.2080
  168SOPE   C2518927   0.828   1.605   7.300  1.1298  0.7772 -0.6877
  168SOPE   H5R18928   0.795   1.500   7.313 -0.5586  1.2098 -1.2342
  168SOPE   H5S18929   0.924   1.612   7.357  0.5402  2.2645  0.1600
  168SOPE   C2618930   0.724   1.695   7.372  0.3818 -0.9032 -0.1791
  168SOPE   H6R18931   0.794   1.781   7.384  0.8554 -0.9391 -2.2606
  168SOPE   H6S18932   0.647   1.717   7.295  0.0166 -1.4271  0.0343
  168SOPE   C2718933   0.665   1.650   7.512  0.0951 -0.9471  0.4917
  168SOPE   H7R18934   0.609   1.742   7.541  2.1178  0.2087  0.9391
  168SOPE   H7S18935   0.604   1.558   7.498 -1.1062 -0.1811  0.4867
  168SOPE   C2818936   0.771   1.637   7.618 -0.3340  0.5991 -1.2102
  168SOPE   H8R18937   0.864   1.592   7.578 -0.0654  0.4749 -0.4490
  168SOPE   H8S18938   0.801   1.736   7.659  0.6837  0.0889 -0.7122
  168SOPE   C2918939   0.706   1.550   7.721 -0.0256  0.4179 -0.7396
  168SOPE   H9118940   0.682   1.444   7.703 -0.6971 -0.0026  2.0479
  168SOPE  C21018941   0.662   1.593   7.845  0.6806  0.2158  0.7221
  168SOPE  H10118942   0.596   1.520   7.896 -1.1590  2.1631  1.2797
  168SOPE  C21118943   0.669   1.728   7.914  0.0499 -0.0365  0.2789
  168SOPE  H11R18944   0.686   1.808   7.838  2.1295 -1.8513 -1.2969
  168SOPE  H11S18945   0.761   1.738   7.976  1.0783  0.3710 -1.2518
  168SOPE  C21218946   0.546   1.767   8.000  0.2652  0.2675 -0.2168
  168SOPE  H12R18947   0.525   1.680   8.066  0.3878  0.8727  0.6332
  168SOPE  H12S18948   0.459   1.794   7.937  0.0982 -1.2188 -0.6768
  168SOPE  C21318949   0.572   1.875   8.104  0.8532 -0.1068  0.7070
  168SOPE  H13R18950   0.597   1.965   8.044  0.8680 -1.8679 -2.1312
  168SOPE  H13S18951   0.664   1.848   8.158 -0.5940  0.3677  3.6100
  168SOPE  C21418952   0.462   1.922   8.198 -0.1311  0.9659  0.1769
  168SOPE  H14R18953   0.378   1.852   8.181  0.1506  0.9650 -1.4694
  168SOPE  H14S18954   0.428   2.019   8.155 -3.3655 -1.2973 -3.0304
  168SOPE  C21518955   0.493   1.929   8.341  0.7081  0.6202 -0.2993
  168SOPE  H15R18956   0.421   1.989   8.401 -1.0465 -0.0339 -1.6712
  168SOPE  H15S18957   0.588   1.985   8.357  0.6228  0.3325  1.4031
  168SOPE  C21618958   0.488   1.795   8.415  0.3051  0.6838 -0.2473
  168SOPE  H16R18959   0.565   1.730   8.369 -0.9545  0.6608 -2.4396
  168SOPE  H16S18960   0.390   1.743   8.411  0.5228  0.1243  1.1456
  168SOPE  C21718961   0.529   1.830   8.558 -0.6917  0.5918  0.1272
  168SOPE  H17R18962   0.598   1.916   8.566 -0.8887  0.6777  0.9896
  168SOPE  H17S18963   0.590   1.742   8.587  0.0872  1.3176  0.7324
  168SOPE  C21818964   0.407   1.850   8.657  1.0152 -0.4295 -0.5149
  168SOPE  H18R18965   0.357   1.945   8.630  1.1993 -0.1756  0.0273
  168SOPE  H18S18966   0.447   1.863   8.760  1.4661  1.2363 -0.8820
  168SOPE  H18T18967   0.330   1.770   8.651 -0.9160  1.3614 -0.8391
  168SOPE   C3318968   1.302   1.699   7.047  0.3505  0.2504  0.2440
  168SOPE   H3X18969   1.200   1.659   7.065  0.9938 -2.0538 -0.8046
  168SOPE   H3Y18970   1.289   1.808   7.027 -0.5653 -0.0588 -0.9651
  168SOPE   C3418971   1.380   1.688   7.174  0.5624  0.6066 -0.2338
  168SOPE   H4X18972   1.481   1.736   7.172 -0.6288  3.2678 -0.4304
  168SOPE   H4Y18973   1.393   1.578   7.184 -0.6377  0.4858  0.1411
  168SOPE   C3518974   1.306   1.727   7.308 -0.2300 -0.0788 -0.0891
  168SOPE   H5X18975   1.201   1.732   7.273  0.3732 -0.2302 -2.0232
  168SOPE   H5Y18976   1.353   1.817   7.352  0.3246 -0.2546 -0.3166
  168SOPE   C3618977   1.310   1.620   7.417 -0.0956  0.2738  0.0296
  168SOPE   H6X18978   1.419   1.598   7.428  0.4602  2.7015 -0.0769
  168SOPE   H6Y18979   1.259   1.524   7.393 -1.1372  0.6268  0.7860
  168SOPE   C3718980   1.264   1.661   7.553 -0.1638 -0.0079 -0.3900
  168SOPE   H7X18981   1.156   1.686   7.551 -0.3135 -0.6609 -0.7979
  168SOPE   H7Y18982   1.326   1.749   7.579  0.3839 -0.4337 -0.2307
  168SOPE   C3818983   1.294   1.547   7.647 -0.6644  0.5747  0.0703
  168SOPE   H8X18984   1.393   1.498   7.642 -0.2938  1.2179  0.7649
  168SOPE   H8Y18985   1.231   1.463   7.612  0.2198 -0.4132  0.8067
  168SOPE   C3918986   1.259   1.574   7.796 -1.2201  0.1573  0.0386
  168SOPE   H9X18987   1.335   1.643   7.839  0.0908 -1.5656  0.6128
  168SOPE   H9Y18988   1.275   1.478   7.849  2.5451  0.3650 -0.4545
  168SOPE  C31018989   1.115   1.618   7.816  1.2190  0.2565  0.4759
  168SOPE  H10X18990   1.059   1.551   7.748  1.8092  0.4977 -0.2596
  168SOPE  H10Y18991   1.096   1.722   7.780 -2.4170 -0.3293  0.2922
  168SOPE  C31118992   1.084   1.613   7.962 -0.7142 -0.2322 -0.4869
  168SOPE  H11X18993   1.109   1.513   8.004 -1.0507 -0.8368 -1.6755
  168SOPE  H11Y18994   0.977   1.632   7.981 -0.8409  0.8865 -2.1597
  168SOPE  C31218995   1.149   1.735   8.039  0.0965 -0.3198  0.9527
  168SOPE  H12X18996   1.083   1.821   8.012  0.0292 -1.2076 -2.0598
  168SOPE  H12Y18997   1.253   1.760   8.008 -0.1109  0.8944  1.1925
  168SOPE  C31318998   1.156   1.719   8.196  0.0700  0.0273 -0.3866
  168SOPE  H13X18999   1.209   1.810   8.231 -0.0923  0.6027 -1.5742
  168SOPE  H13Y19000   1.213   1.625   8.212  1.3684  0.9125  0.3552
  168SOPE  C31419001   1.015   1.706   8.264  0.6410  0.3828  0.2519
  168SOPE  H14X19002   0.966   1.614   8.225  0.4764 -0.1001  1.5468
  168SOPE  H14Y19003   0.953   1.795   8.239 -0.5759 -0.2945  0.7665
  168SOPE  C31519004   1.022   1.678   8.409  0.1395 -0.5069 -0.3100
  168SOPE  H15X19005   1.040   1.773   8.464  0.1328 -0.9493  0.4771
  168SOPE  H15Y19006   1.091   1.599   8.445 -0.0635 -0.3124  0.5337
  168SOPE  C31619007   0.885   1.637   8.464 -0.1029 -0.5452 -0.2041
  168SOPE  H16X19008   0.887   1.526   8.459 -0.1698 -0.5983  0.7573
  168SOPE  H16Y19009   0.812   1.688   8.399 -0.5185 -1.4300 -0.4454
  168SOPE  C31719010   0.877   1.678   8.614 -0.6334 -0.2711  0.3833
  168SOPE  H17X19011   0.779   1.639   8.651 -1.9169  0.1762 -2.2747
  168SOPE  H17Y19012   0.874   1.789   8.613  3.8604  0.0359  1.4141
  168SOPE  C31819013   0.993   1.647   8.706 -0.7164 -0.2563 -1.1775
  168SOPE  H18X19014   1.086   1.707   8.691  1.6724 -3.0544  1.1038
  168SOPE  H18Y19015   1.022   1.540   8.707 -1.5103 -0.5415  1.7727
  168SOPE  H18Z19016   0.972   1.681   8.810 -0.7504  0.0150 -1.2726
  169SOPE     N19017   4.578   4.014   6.544 -0.3875 -0.0566 -0.0585
  169SOPE   HN119018   4.491   4.066   6.568 -0.4562  0.3157 -1.0909
  169SOPE   HN219019   4.620   3.975   6.631  2.0627  1.1827 -0.5945
  169SOPE   HN319020   4.653   4.076   6.507  2.0298 -2.7676 -0.1256
  169SOPE   C1219021   4.530   3.918   6.440 -0.5463  0.6187 -0.5571
  169SOPE  H12A19022   4.579   3.956   6.348 -0.5914 -2.0432 -1.7900
  169SOPE  H12B19023   4.421   3.925   6.421 -0.7471  3.9863  1.0978
  169SOPE   C1119024   4.584   3.771   6.466 -0.1301 -0.5808 -0.5353
  169SOPE  H11A19025   4.540   3.725   6.557 -0.2591 -1.3223 -0.9650
  169SOPE  H11B19026   4.694   3.763   6.478 -0.2159 -0.4343  0.3995
  169SOPE     P19027   4.538   3.532   6.372 -0.2263  0.0633 -0.1504
  169SOPE   O1319028   4.563   3.468   6.247 -0.9214 -0.0364 -0.2324
  169SOPE   O1419029   4.411   3.497   6.439 -0.2520 -1.0556 -0.0153
  169SOPE   O1219030   4.551   3.688   6.351 -0.5644  0.5224 -0.5253
  169SOPE   O1119031   4.659   3.505   6.471  0.3929 -0.4066  0.2954
  169SOPE    C119032   4.677   3.377   6.529 -0.2116  0.1632  0.4080
  169SOPE    HA19033   4.781   3.361   6.563 -1.0147 -2.9110  1.6944
  169SOPE    HB19034   4.640   3.297   6.461 -1.7669  1.6614 -0.5997
  169SOPE    C219035   4.610   3.354   6.670 -0.2041  0.6834  0.8727
  169SOPE    HS19036   4.504   3.378   6.646 -0.4291 -1.4873 -0.6214
  169SOPE   O2119037   4.677   3.430   6.763  0.3809 -0.4313  0.2125
  169SOPE   C2119038   4.612   3.541   6.803  0.2762 -0.0644  0.3133
  169SOPE   O2219039   4.512   3.593   6.756  0.1730  0.2193  0.3566
  169SOPE   C2219040   4.684   3.592   6.923  0.6012 -0.1889  0.3740
  169SOPE   H2R19041   4.644   3.692   6.949  3.5995  0.9534  1.0176
  169SOPE   H2S19042   4.790   3.610   6.895  1.0908 -0.3626  2.0050
  169SOPE    C319043   4.622   3.207   6.714 -0.4375 -0.1463  0.3418
  169SOPE    HX19044   4.727   3.173   6.731  0.8348  3.5084  0.5423
  169SOPE    HY19045   4.578   3.147   6.631  0.0519  0.8701 -0.6743
  169SOPE   O3119046   4.554   3.196   6.848  0.1186 -0.4287  0.3235
  169SOPE   C3119047   4.424   3.173   6.843  0.4369  0.0181 -0.3833
  169SOPE   O3219048   4.353   3.154   6.742 -0.1946  0.0300  0.0000
  169SOPE   C3219049   4.366   3.146   6.984  0.0782  0.4899 -0.3166
  169SOPE   H2X19050   4.410   3.218   7.057 -0.9204  0.1037  0.7031
  169SOPE   H2Y19051   4.388   3.042   7.016 -1.7131  0.8491  2.4394
  169SOPE   C2319052   4.672   3.499   7.041 -0.0615  1.4014 -0.4580
  169SOPE   H3R19053   4.735   3.409   7.027  0.2571  1.3183  1.2742
  169SOPE   H3S19054   4.574   3.450   7.060  1.7866 -1.8377  1.7309
  169SOPE   C2419055   4.724   3.558   7.176 -1.1748  0.3411 -0.8295
  169SOPE   H4R19056   4.830   3.585   7.155 -1.4148  0.0840 -2.5470
  169SOPE   H4S19057   4.675   3.646   7.221 -2.3563 -1.2032  1.0718
  169SOPE   C2519058   4.724   3.457   7.291 -0.5513  0.2873  0.6268
  169SOPE   H5R19059   4.615   3.437   7.302 -0.8096  2.0976  2.0219
  169SOPE   H5S19060   4.775   3.361   7.274 -0.3466  0.7030 -1.3279
  169SOPE   C2619061   4.777   3.513   7.421 -0.2922  0.0151  0.3362
  169SOPE   H6R19062   4.741   3.451   7.506 -0.8532 -1.3240 -0.8250
  169SOPE   H6S19063   4.888   3.506   7.420 -0.1229  2.0450 -0.4155
  169SOPE   C2719064   4.729   3.654   7.466  0.5300  0.1740 -0.0317
  169SOPE   H7R19065   4.760   3.737   7.399 -4.1805  1.6086 -0.7899
  169SOPE   H7S19066   4.621   3.669   7.444  0.7918  1.8161 -0.3083
  169SOPE   C2819067   4.761   3.685   7.608 -0.3142 -0.6347 -0.1048
  169SOPE   H8R19068   4.689   3.766   7.630 -0.5385 -0.2106 -2.2108
  169SOPE   H8S19069   4.704   3.615   7.673 -0.6300  1.6728  2.2359
  169SOPE   C2919070   4.910   3.689   7.661  0.0680  0.0427  0.2642
  169SOPE   H9119071   4.986   3.733   7.595  0.5345  1.8835  1.9504
  169SOPE  C21019072   4.959   3.631   7.774 -0.1765 -0.5417 -0.4371
  169SOPE  H10119073   5.063   3.660   7.796  0.1694  0.7992 -3.4016
  169SOPE  C21119074   4.870   3.546   7.868  0.1948 -0.2804 -0.1318
  169SOPE  H11R19075   4.905   3.444   7.840 -0.2266 -0.7607  1.0401
  169SOPE  H11S19076   4.760   3.549   7.858  0.0936 -4.4601 -2.7385
  169SOPE  C21219077   4.923   3.563   8.015  0.3522 -0.3843  0.5907
  169SOPE  H12R19078   5.032   3.542   8.007  0.7584  2.0927 -2.1094
  169SOPE  H12S19079   4.864   3.496   8.080 -2.5660  0.4866 -0.9886
  169SOPE  C21319080   4.916   3.710   8.069  0.1769  0.5812 -0.2261
  169SOPE  H13R19081   4.997   3.769   8.020  1.9340 -1.7611 -0.2945
  169SOPE  H13S19082   4.950   3.698   8.173  0.6032  0.4489 -0.3794
  169SOPE  C21419083   4.774   3.761   8.067  0.5936  0.2834 -0.7900
  169SOPE  H14R19084   4.704   3.679   8.093 -1.6762  1.7948 -1.7934
  169SOPE  H14S19085   4.735   3.787   7.966 -2.7821 -2.4917 -0.3799
  169SOPE  C21519086   4.749   3.879   8.163  0.4733 -0.5042 -0.2468
  169SOPE  H15R19087   4.820   3.958   8.129  1.7399 -0.7466  1.6868
  169SOPE  H15S19088   4.781   3.850   8.265 -0.1238 -0.4628 -0.0425
  169SOPE  C21619089   4.599   3.911   8.165  0.5112  0.2006  0.0314
  169SOPE  H16R19090   4.576   3.967   8.259 -0.6137  1.1755 -0.7904
  169SOPE  H16S19091   4.540   3.818   8.176 -0.4079  0.8178  0.4962
  169SOPE  C21719092   4.558   3.986   8.043  0.4494 -0.3954  0.7577
  169SOPE  H17R19093   4.447   3.999   8.041  0.5196  1.0641 -3.3353
  169SOPE  H17S19094   4.589   3.922   7.959 -0.3681 -1.2513  1.0882
  169SOPE  C21819095   4.623   4.124   8.040  0.3290 -0.9886  0.3555
  169SOPE  H18R19096   4.734   4.117   8.050  0.2540  0.3411  2.6498
  169SOPE  H18S19097   4.588   4.185   8.126  2.9471 -1.0900  1.5984
  169SOPE  H18T19098   4.599   4.174   7.944 -1.0348 -0.1234  1.1129
  169SOPE   C3319099   4.215   3.182   6.981  0.2469 -0.6071  0.1537
  169SOPE   H3X19100   4.178   3.141   7.077  0.6487 -0.9790  0.1524
  169SOPE   H3Y19101   4.157   3.115   6.914 -0.5487 -0.1147  0.3384
  169SOPE   C3419102   4.178   3.332   6.965 -0.0918  0.8030  0.2234
  169SOPE   H4X19103   4.070   3.345   6.986 -0.7054 -0.4453 -1.8080
  169SOPE   H4Y19104   4.194   3.366   6.860 -2.5279  1.0105 -0.1346
  169SOPE   C3519105   4.253   3.427   7.061 -0.6552 -0.0392 -0.5368
  169SOPE   H5X19106   4.230   3.533   7.039 -0.5950 -0.1149 -0.9677
  169SOPE   H5Y19107   4.362   3.417   7.039 -0.2460 -1.1783  1.6444
  169SOPE   C3619108   4.221   3.404   7.211 -0.3794  0.0574  0.5085
  169SOPE   H6X19109   4.266   3.307   7.241  0.4791 -0.1560 -1.3121
  169SOPE   H6Y19110   4.112   3.416   7.231 -0.3133 -0.5697  1.3272
  169SOPE   C3719111   4.287   3.520   7.292  0.0510 -0.4795 -0.5624
  169SOPE   H7X19112   4.261   3.621   7.252  1.3871  1.1117  2.3166
  169SOPE   H7Y19113   4.398   3.520   7.287  0.1786  0.3146  1.3456
  169SOPE   C3819114   4.244   3.510   7.439 -0.1764 -0.4154  0.1923
  169SOPE   H8X19115   4.135   3.528   7.443 -0.6340 -2.5429 -1.0599
  169SOPE   H8Y19116   4.264   3.405   7.468  2.0076 -0.1030  0.0416
  169SOPE   C3919117   4.320   3.593   7.544 -0.3761 -0.5069  0.4458
  169SOPE   H9X19118   4.297   3.701   7.537 -1.1271 -0.6707  0.3933
  169SOPE   H9Y19119   4.429   3.584   7.522 -0.0334  2.1459  0.8064
  169SOPE  C31019120   4.284   3.545   7.680  1.0779 -0.1715 -0.7544
  169SOPE  H10X19121   4.309   3.436   7.682 -0.9038 -0.7400 -2.9167
  169SOPE  H10Y19122   4.179   3.558   7.712  0.1230 -0.9519 -3.3225
  169SOPE  C31119123   4.365   3.629   7.779 -1.2150 -0.7891 -0.3681
  169SOPE  H11X19124   4.329   3.733   7.764 -0.0263 -0.5011 -1.3209
  169SOPE  H11Y19125   4.475   3.629   7.770 -1.1167  3.1510 -0.8043
  169SOPE  C31219126   4.338   3.600   7.929  0.3707 -0.1636  0.0647
  169SOPE  H12X19127   4.232   3.625   7.949  0.7382  2.1429 -0.5440
  169SOPE  H12Y19128   4.396   3.680   7.980  0.8952 -0.0701 -0.6620
  169SOPE  C31319129   4.377   3.459   7.979  0.7283  0.0303 -0.2047
  169SOPE  H13X19130   4.428   3.404   7.897  0.8057 -2.3111  1.3097
  169SOPE  H13Y19131   4.291   3.393   8.004  1.6189 -0.9792  0.2628
  169SOPE  C31419132   4.470   3.460   8.101 -0.2164  0.0597 -0.4502
  169SOPE  H14X19133   4.557   3.524   8.074 -2.1611  3.0501 -0.1885
  169SOPE  H14Y19134   4.518   3.361   8.119  0.4614  0.2138 -1.3440
  169SOPE  C31519135   4.409   3.514   8.231 -0.4605 -0.3634  0.8558
  169SOPE  H15X19136   4.315   3.460   8.257 -1.4761  1.9264  2.2317
  169SOPE  H15Y19137   4.388   3.621   8.210  3.8533 -0.0431 -3.7178
  169SOPE  C31619138   4.507   3.501   8.343  0.3361 -0.1470 -0.6283
  169SOPE  H16X19139   4.600   3.527   8.288 -0.6511 -1.1649 -2.8878
  169SOPE  H16Y19140   4.504   3.394   8.374 -0.9671  0.9916  3.8609
  169SOPE  C31719141   4.467   3.599   8.452 -0.9149 -0.6508 -0.4828
  169SOPE  H17X19142   4.383   3.547   8.503 -0.5839 -2.4770 -1.7219
  169SOPE  H17Y19143   4.442   3.699   8.411 -1.9102  0.2534  2.1146
  169SOPE  C31819144   4.589   3.613   8.555  0.7136 -0.6273 -0.1040
  169SOPE  H18X19145   4.667   3.655   8.488 -0.3980  1.9136  0.0628
  169SOPE  H18Y19146   4.612   3.521   8.612  0.9673 -0.7023 -0.3297
  169SOPE  H18Z19147   4.560   3.688   8.632 -1.4469 -1.7671  0.2869
  170SOPE     N19148   3.435   1.953   6.107  0.3285 -0.0784 -0.0687
  170SOPE   HN119149   3.331   1.957   6.106  0.1520 -1.5071  2.3926
  170SOPE   HN219150   3.477   2.042   6.073 -0.1630  0.0984 -0.2130
  170SOPE   HN319151   3.465   1.880   6.039  0.8829 -0.0792  0.1688
  170SOPE   C1219152   3.479   1.923   6.251  0.3516 -0.6342  0.4833
  170SOPE  H12A19153   3.425   2.001   6.308 -0.8607 -1.6045  0.7181
  170SOPE  H12B19154   3.588   1.943   6.247  0.1168  0.5370 -2.1354
  170SOPE   C1119155   3.444   1.784   6.296  0.3278  0.1853 -0.2509
  170SOPE  H11A19156   3.468   1.780   6.405 -1.5788 -0.9039  0.1740
  170SOPE  H11B19157   3.499   1.707   6.238  1.4686  0.0516  0.9485
  170SOPE     P19158   3.229   1.627   6.303  0.1731 -0.2335 -0.1158
  170SOPE   O1319159   3.235   1.544   6.183  0.0400 -0.0093 -0.5261
  170SOPE   O1419160   3.095   1.662   6.350 -0.0011  0.4533  0.1031
  170SOPE   O1219161   3.303   1.770   6.274 -0.0152  0.6651 -0.0164
  170SOPE   O1119162   3.317   1.562   6.422 -0.2268  0.2518  0.7270
  170SOPE    C119163   3.299   1.589   6.555  0.1722  0.1986  0.6964
  170SOPE    HA19164   3.255   1.687   6.582 -1.4381 -0.5647  0.9985
  170SOPE    HB19165   3.400   1.605   6.599  1.1085 -1.0634 -0.8911
  170SOPE    C219166   3.236   1.469   6.627  0.7764 -0.2474 -0.1509
  170SOPE    HS19167   3.149   1.445   6.562  0.4919  1.2889 -0.3654
  170SOPE   O2119168   3.179   1.514   6.753 -0.4919 -0.4429 -0.2979
  170SOPE   C2119169   3.087   1.426   6.796 -0.0393  0.8905  0.3047
  170SOPE   O2219170   3.041   1.335   6.733  0.1839  0.6108  0.1729
  170SOPE   C2219171   3.031   1.480   6.929  0.0513  0.2209  0.3998
  170SOPE   H2R19172   2.938   1.528   6.893  1.7811  2.1827 -1.7651
  170SOPE   H2S19173   3.095   1.557   6.977 -0.2306  1.2247 -0.7970
  170SOPE    C319174   3.327   1.351   6.658 -0.0170  0.1107  0.6226
  170SOPE    HX19175   3.373   1.320   6.561  0.4805  3.6036 -0.4179
  170SOPE    HY19176   3.265   1.267   6.696 -2.5969  2.0555  0.9502
  170SOPE   O3119177   3.441   1.390   6.737  0.1145  0.6439  0.0275
  170SOPE   C3119178   3.462   1.321   6.841 -0.7956  0.4061  0.2503
  170SOPE   O3219179   3.387   1.240   6.895  0.0766  0.3720  0.3155
  170SOPE   C3219180   3.616   1.333   6.863 -0.5863  0.4574 -0.0439
  170SOPE   H2X19181   3.627   1.436   6.903  0.3219  0.1583  0.5003
  170SOPE   H2Y19182   3.670   1.325   6.767 -1.8018 -2.9462 -0.6027
  170SOPE   C2319183   3.013   1.364   7.034 -0.2578  0.4965  0.0493
  170SOPE   H3R19184   3.108   1.312   7.059  0.1187  1.6285  1.1041
  170SOPE   H3S19185   2.951   1.283   6.990 -1.3360  1.2844  0.0730
  170SOPE   C2419186   2.937   1.404   7.167 -0.4211 -0.4770 -0.2871
  170SOPE   H4R19187   2.967   1.506   7.201 -3.1601 -0.0058  0.9211
  170SOPE   H4S19188   2.827   1.411   7.154 -0.8031 -1.1847  2.1395
  170SOPE   C2519189   2.948   1.318   7.289 -0.4191  0.0352 -0.2891
  170SOPE   H5R19190   2.902   1.219   7.272  0.5465 -0.5690  0.4903
  170SOPE   H5S19191   3.055   1.301   7.314 -0.4869  0.4863  0.3335
  170SOPE   C2619192   2.891   1.390   7.415 -0.9595  0.6213  0.0667
  170SOPE   H6R19193   2.962   1.473   7.438 -0.7955  0.1326  1.3676
  170SOPE   H6S19194   2.796   1.446   7.402 -0.9748  0.6360  0.2447
  170SOPE   C2719195   2.882   1.296   7.532  0.3834 -0.5892 -0.0112
  170SOPE   H7R19196   2.804   1.219   7.513 -0.2963 -0.7690  3.0049
  170SOPE   H7S19197   2.981   1.263   7.570  1.2670  1.3640 -0.4603
  170SOPE   C2819198   2.811   1.356   7.655  0.9226  0.0456  0.6641
  170SOPE   H8R19199   2.865   1.452   7.674  0.5157  0.1001  1.5801
  170SOPE   H8S19200   2.704   1.377   7.635  0.0545 -1.9253  2.7686
  170SOPE   C2919201   2.825   1.258   7.773 -0.3651 -0.3846  0.2124
  170SOPE   H9119202   2.765   1.167   7.756 -0.5459  0.0788 -1.8175
  170SOPE  C21019203   2.888   1.292   7.886  0.4285 -0.2424 -0.0766
  170SOPE  H10119204   2.873   1.219   7.967 -0.6433  1.5334  1.4002
  170SOPE  C21119205   2.975   1.411   7.924 -0.8758  0.7268 -1.0000
  170SOPE  H11R19206   3.043   1.448   7.844  1.3285  1.1749  0.9639
  170SOPE  H11S19207   3.044   1.378   8.005 -1.3186 -0.3818 -1.0668
  170SOPE  C21219208   2.903   1.534   7.966  0.6036  0.3757 -0.1442
  170SOPE  H12R19209   2.826   1.565   7.892  0.1774  0.3223  0.2740
  170SOPE  H12S19210   2.964   1.622   7.995 -1.4822  1.3747  1.5478
  170SOPE  C21319211   2.830   1.509   8.094  0.0684 -0.3869 -0.1631
  170SOPE  H13R19212   2.905   1.503   8.175 -0.8287  0.1159  0.7393
  170SOPE  H13S19213   2.763   1.420   8.091 -2.7669  1.6130 -2.9846
  170SOPE  C21419214   2.730   1.619   8.135  0.0128  0.0816  0.6995
  170SOPE  H14R19215   2.645   1.611   8.063  0.5644 -1.5323  0.1782
  170SOPE  H14S19216   2.774   1.721   8.135 -0.9654  0.5190 -0.1606
  170SOPE  C21519217   2.677   1.597   8.274  0.8170  0.5361 -0.4191
  170SOPE  H15R19218   2.655   1.489   8.293 -0.8136  0.8142 -0.5843
  170SOPE  H15S19219   2.579   1.647   8.284 -1.1938 -2.5761 -2.4879
  170SOPE  C21619220   2.773   1.649   8.384  0.2361  0.5222  0.4656
  170SOPE  H16R19221   2.788   1.756   8.362  0.5451  0.6826  1.4211
  170SOPE  H16S19222   2.863   1.584   8.382 -0.4403 -0.5080 -2.6264
  170SOPE  C21719223   2.724   1.644   8.525  0.5555 -0.1598 -0.1660
  170SOPE  H17R19224   2.805   1.691   8.584  0.7663 -0.2744 -0.3667
  170SOPE  H17S19225   2.708   1.537   8.551 -3.8601  0.4099  0.3379
  170SOPE  C21819226   2.584   1.714   8.546 -0.3011  0.9473  0.1191
  170SOPE  H18R19227   2.570   1.737   8.653  1.1759  0.7326  0.3815
  170SOPE  H18S19228   2.501   1.654   8.503 -0.3603  0.6372  0.6590
  170SOPE  H18T19229   2.588   1.814   8.497  0.8680  0.4465 -0.8894
  170SOPE   C3319230   3.669   1.230   6.969 -0.1365  0.3901  0.0531
  170SOPE   H3X19231   3.659   1.126   6.932 -1.9327  0.6450 -0.2467
  170SOPE   H3Y19232   3.597   1.230   7.054 -3.1985  1.0038 -2.3585
  170SOPE   C3419233   3.809   1.265   7.020 -0.2666 -0.0373  1.1774
  170SOPE   H4X19234   3.814   1.370   7.057  0.0285  0.0303  0.9535
  170SOPE   H4Y19235   3.867   1.240   6.928 -0.5726 -0.1480  1.0152
  170SOPE   C3519236   3.858   1.176   7.136 -0.5336 -0.3720  0.5985
  170SOPE   H5X19237   3.956   1.220   7.166  0.1667 -0.3846 -1.5272
  170SOPE   H5Y19238   3.884   1.078   7.090  0.3178 -0.1997  0.6879
  170SOPE   C3619239   3.768   1.175   7.259  0.2360 -0.4603 -0.3129
  170SOPE   H6X19240   3.664   1.150   7.228  0.1056 -2.3744  1.4062
  170SOPE   H6Y19241   3.766   1.271   7.313 -0.1335  0.3779 -1.7648
  170SOPE   C3719242   3.801   1.056   7.352 -0.7223 -0.3377 -0.3015
  170SOPE   H7X19243   3.822   0.979   7.274  1.5815 -0.9134  0.7854
  170SOPE   H7Y19244   3.713   1.017   7.407  0.7745 -2.7729  0.5459
  170SOPE   C3819245   3.929   1.061   7.441  0.6183  0.4047  0.0918
  170SOPE   H8X19246   4.017   1.053   7.373 -0.4321  0.6810 -1.3328
  170SOPE   H8Y19247   3.935   0.976   7.513  3.3752  0.8805  0.5566
  170SOPE   C3919248   3.943   1.181   7.535 -0.2468 -0.1189 -0.0103
  170SOPE   H9X19249   3.914   1.280   7.492  1.4262  0.9422  1.2018
  170SOPE   H9Y19250   4.050   1.185   7.565 -0.0895 -1.0015 -0.4149
  170SOPE  C31019251   3.839   1.165   7.653 -0.0324  0.1652  1.0221
  170SOPE  H10X19252   3.866   1.075   7.712  1.1704 -0.5060 -0.4999
  170SOPE  H10Y19253   3.741   1.140   7.606  0.3417 -0.3460  0.4960
  170SOPE  C31119254   3.817   1.296   7.729 -0.6349 -0.0517  0.1800
  170SOPE  H11X19255   3.719   1.290   7.781  0.7943 -0.3278  3.0182
  170SOPE  H11Y19256   3.819   1.380   7.656  1.4079 -1.4473 -1.4833
  170SOPE  C31219257   3.933   1.317   7.824 -0.3031  0.5597  0.1660
  170SOPE  H12X19258   4.027   1.320   7.766 -0.6771  0.9585 -0.4189
  170SOPE  H12Y19259   3.943   1.229   7.892  0.9608  1.5234  1.3056
  170SOPE  C31319260   3.925   1.434   7.926  0.4980  0.6291  0.5599
  170SOPE  H13X19261   3.986   1.412   8.016 -0.1598 -3.4631  0.2433
  170SOPE  H13Y19262   3.818   1.449   7.953  0.2891  0.7546 -0.3138
  170SOPE  C31419263   3.969   1.561   7.862 -0.4241 -0.8679  0.3388
  170SOPE  H14X19264   3.905   1.575   7.773  0.2214 -1.2225 -0.1919
  170SOPE  H14Y19265   4.075   1.569   7.829 -0.2922 -1.7970  0.5193
  170SOPE  C31519266   3.963   1.673   7.966  0.1804  0.1558  0.3375
  170SOPE  H15X19267   4.033   1.648   8.049  0.7952 -1.2052 -0.5549
  170SOPE  H15Y19268   3.863   1.674   8.013 -0.1199 -1.8416 -0.1509
  170SOPE  C31619269   4.004   1.816   7.908 -0.4450 -0.3711 -0.2426
  170SOPE  H16X19270   3.988   1.906   7.972  0.9670  2.2694 -3.2818
  170SOPE  H16Y19271   3.931   1.841   7.828 -3.0244 -2.0617  1.4296
  170SOPE  C31719272   4.152   1.830   7.859  0.1519 -0.5706  0.1543
  170SOPE  H17X19273   4.185   1.742   7.799 -1.3028 -0.3446 -1.0224
  170SOPE  H17Y19274   4.210   1.829   7.954  1.0378  0.1394 -0.3677
  170SOPE  C31819275   4.185   1.962   7.791 -0.0065  0.2083  0.4067
  170SOPE  H18X19276   4.156   2.053   7.847 -1.7343 -0.2434  0.3055
  170SOPE  H18Y19277   4.126   1.969   7.696  2.0759  1.7957 -0.8599
  170SOPE  H18Z19278   4.294   1.976   7.775  0.3467 -1.7120  0.9518
  171SOPE     N19279   5.606   4.491   6.447  0.3906 -0.1588  0.5610
  171SOPE   HN119280   5.709   4.481   6.445  0.2668 -1.5429  0.5405
  171SOPE   HN219281   5.565   4.507   6.352 -1.7614 -3.0727  0.8622
  171SOPE   HN319282   5.582   4.581   6.492  0.7658  0.8829 -1.2051
  171SOPE   C1219283   5.545   4.368   6.509  0.7684 -0.1363  0.4756
  171SOPE  H12A19284   5.596   4.354   6.607  0.5431 -1.3624  0.4348
  171SOPE  H12B19285   5.560   4.275   6.451  0.8058  0.1768 -0.0182
  171SOPE   C1119286   5.394   4.402   6.537 -0.1719  0.4521 -0.0108
  171SOPE  H11A19287   5.393   4.498   6.594 -0.1062  0.2064  0.4135
  171SOPE  H11B19288   5.361   4.332   6.617 -0.8251  1.7485  0.8937
  171SOPE     P19289   5.263   4.277   6.357 -0.0277 -0.2040  0.1904
  171SOPE   O1319290   5.374   4.209   6.281  0.1456  0.6471 -0.1523
  171SOPE   O1419291   5.142   4.314   6.279  0.1018  0.3649 -0.3723
  171SOPE   O1219292   5.314   4.412   6.416 -0.0454 -0.2242  0.7654
  171SOPE   O1119293   5.231   4.187   6.485  0.1428  0.0889  0.3108
  171SOPE    C119294   5.105   4.185   6.550  0.2416  0.3405 -0.1714
  171SOPE    HA19295   5.091   4.095   6.614 -0.9667  0.4818 -0.2159
  171SOPE    HB19296   5.023   4.194   6.476  0.2063 -0.3812 -0.2238
  171SOPE    C219297   5.074   4.298   6.654  0.0954 -0.4222  0.0570
  171SOPE    HS19298   5.083   4.390   6.593 -2.6509 -0.5412 -0.6455
  171SOPE   O2119299   5.157   4.283   6.766  0.0667  0.1239 -0.1252
  171SOPE   C2119300   5.196   4.387   6.822  0.1353 -0.6376 -0.1340
  171SOPE   O2219301   5.169   4.505   6.792  0.1635  0.8018 -0.1528
  171SOPE   C2219302   5.263   4.341   6.946 -0.1483 -0.2373  0.1803
  171SOPE   H2R19303   5.317   4.431   6.982 -0.1455  0.6481 -1.9077
  171SOPE   H2S19304   5.334   4.262   6.912  1.1963  0.5834  1.0080
  171SOPE    C319305   4.915   4.306   6.696 -0.6648  0.3444 -0.1639
  171SOPE    HX19306   4.899   4.232   6.777  0.4916  2.4782  2.1696
  171SOPE    HY19307   4.851   4.287   6.606 -0.6894  0.7434 -0.2333
  171SOPE   O3119308   4.882   4.427   6.752  0.3455  0.2380 -0.3140
  171SOPE   C3119309   4.753   4.436   6.775  0.1049 -0.2508 -0.2385
  171SOPE   O3219310   4.672   4.347   6.755 -0.5688  0.1033 -0.7387
  171SOPE   C3219311   4.709   4.575   6.815 -0.3102 -0.1444  0.2951
  171SOPE   H2X19312   4.669   4.636   6.732 -0.3538  2.3911  2.0433
  171SOPE   H2Y19313   4.802   4.625   6.849  0.2613 -2.5364  2.5901
  171SOPE   C2319314   5.172   4.276   7.061 -0.7035 -0.1785 -0.4101
  171SOPE   H3R19315   5.140   4.182   7.010  1.5516 -1.1975 -0.0719
  171SOPE   H3S19316   5.083   4.339   7.083 -0.7585 -0.8196  1.3071
  171SOPE   C2419317   5.258   4.239   7.176 -0.0680  0.8283  0.0415
  171SOPE   H4R19318   5.210   4.144   7.209 -0.8388  1.0225 -0.4882
  171SOPE   H4S19319   5.360   4.204   7.148  0.4103  0.8785  1.6504
  171SOPE   C2519320   5.255   4.345   7.275 -0.0061 -0.6750  0.2484
  171SOPE   H5R19321   5.326   4.420   7.236 -0.1593 -1.5675 -1.8590
  171SOPE   H5S19322   5.158   4.400   7.280 -0.2909 -1.2782  2.1446
  171SOPE   C2619323   5.288   4.311   7.417 -0.7132  0.1961  0.0002
  171SOPE   H6R19324   5.242   4.212   7.438 -1.3105 -0.0637 -2.2341
  171SOPE   H6S19325   5.398   4.314   7.406 -0.9182  2.9258 -2.6096
  171SOPE   C2719326   5.230   4.415   7.515 -0.0236 -0.0549  0.4279
  171SOPE   H7R19327   5.267   4.515   7.483  1.9149 -1.4423 -1.9152
  171SOPE   H7S19328   5.119   4.412   7.509 -0.0835  1.5796  0.2655
  171SOPE   C2819329   5.277   4.399   7.667 -0.2858  0.0547  0.1799
  171SOPE   H8R19330   5.208   4.454   7.735  0.3608  0.2137  0.7110
  171SOPE   H8S19331   5.266   4.293   7.699 -3.1558  0.1139 -0.3263
  171SOPE   C2919332   5.423   4.444   7.687 -0.0659 -0.0347 -0.2596
  171SOPE   H9119333   5.487   4.416   7.602 -0.3778  0.5273 -0.6867
  171SOPE  C21019334   5.483   4.512   7.788 -0.3789  0.2387 -0.0898
  171SOPE  H10119335   5.591   4.534   7.788 -0.4859  0.7756 -0.4722
  171SOPE  C21119336   5.418   4.554   7.915  0.5224 -0.3076 -0.2040
  171SOPE  H11R19337   5.310   4.526   7.910  1.0515 -2.2242 -2.8507
  171SOPE  H11S19338   5.425   4.664   7.922  1.2140 -0.4104  0.9481
  171SOPE  C21219339   5.470   4.492   8.045  0.6406 -0.0511 -0.6877
  171SOPE  H12R19340   5.469   4.381   8.040 -2.9548 -0.2460  1.0460
  171SOPE  H12S19341   5.403   4.514   8.131  0.7739 -1.4800 -0.1903
  171SOPE  C21319342   5.604   4.553   8.074 -0.8545  0.2654  0.2544
  171SOPE  H13R19343   5.599   4.663   8.091 -0.7258  0.4086 -0.5740
  171SOPE  H13S19344   5.674   4.543   7.988  1.7021  0.5391  2.1809
  171SOPE  C21419345   5.665   4.485   8.194 -0.5770 -0.6791 -0.1385
  171SOPE  H14R19346   5.701   4.386   8.158 -1.5730 -0.7528 -1.0068
  171SOPE  H14S19347   5.584   4.473   8.269 -0.3517 -1.4432 -0.0094
  171SOPE  C21519348   5.785   4.561   8.248  0.1461  0.0302 -0.0774
  171SOPE  H15R19349   5.752   4.665   8.272  0.9350  0.3735 -0.4403
  171SOPE  H15S19350   5.852   4.572   8.160 -0.3563 -1.0054 -0.6019
  171SOPE  C21619351   5.860   4.491   8.365  0.1121  0.0337 -0.2227
  171SOPE  H16R19352   5.939   4.561   8.397 -1.6315  2.4399 -0.8881
  171SOPE  H16S19353   5.893   4.392   8.325 -0.6221  0.0422 -0.8843
  171SOPE  C21719354   5.774   4.470   8.485 -0.6851 -0.1113 -0.0349
  171SOPE  H17R19355   5.684   4.406   8.474 -0.3179 -0.8610  1.1003
  171SOPE  H17S19356   5.736   4.568   8.523 -0.2618  0.2962 -0.6364
  171SOPE  C21819357   5.869   4.408   8.590  0.3566  0.2510  0.2601
  171SOPE  H18R19358   5.916   4.317   8.547 -2.2722  0.1364 -2.7502
  171SOPE  H18S19359   5.816   4.386   8.685 -1.5143  1.2247 -0.5090
  171SOPE  H18T19360   5.943   4.487   8.614 -0.3114  0.8655  0.3449
  171SOPE   C3319361   4.605   4.580   6.929  0.0486  0.2587 -0.0697
  171SOPE   H3X19362   4.508   4.540   6.893 -0.1994  0.7097  0.0994
  171SOPE   H3Y19363   4.593   4.685   6.962 -1.5106  0.0516  0.1074
  171SOPE   C3419364   4.652   4.505   7.060  0.0682 -0.5696  0.2353
  171SOPE   H4X19365   4.671   4.399   7.035 -0.2929 -0.7044  0.5153
  171SOPE   H4Y19366   4.572   4.502   7.137  1.3696 -2.4223  1.6219
  171SOPE   C3519367   4.776   4.570   7.118  0.2676 -0.0964  0.2602
  171SOPE   H5X19368   4.756   4.679   7.123  0.1172 -0.1125  0.0534
  171SOPE   H5Y19369   4.858   4.557   7.043  0.0470  0.1855 -0.0339
  171SOPE   C3619370   4.828   4.501   7.246  0.4547 -0.0276  0.3922
  171SOPE   H6X19371   4.937   4.518   7.260  0.3397  0.8636  0.2659
  171SOPE   H6Y19372   4.809   4.391   7.241 -0.4165  0.1690 -1.4131
  171SOPE   C3719373   4.762   4.560   7.367 -0.0497  0.1637 -0.1754
  171SOPE   H7X19374   4.653   4.538   7.364 -0.8273  3.4987 -0.9257
  171SOPE   H7Y19375   4.769   4.669   7.345 -0.2007 -0.2102 -2.3211
  171SOPE   C3819376   4.832   4.532   7.498 -0.3672 -0.1383  0.2354
  171SOPE   H8X19377   4.939   4.560   7.487 -0.1186 -1.5709 -1.4687
  171SOPE   H8Y19378   4.832   4.423   7.521 -2.2293 -0.0039  1.0269
  171SOPE   C3919379   4.762   4.589   7.617 -0.4599 -0.1086  0.4441
  171SOPE   H9X19380   4.652   4.581   7.602 -0.5637 -0.1656  1.1851
  171SOPE   H9Y19381   4.795   4.695   7.625 -0.1199 -0.0283 -1.5599
  171SOPE  C31019382   4.794   4.517   7.750 -0.5023 -0.2861  0.4259
  171SOPE  H10X19383   4.903   4.524   7.769 -0.4029  0.1765 -0.2560
  171SOPE  H10Y19384   4.780   4.409   7.729 -1.2985 -0.0473 -0.3289
  171SOPE  C31119385   4.714   4.574   7.867  0.4041  0.3277 -0.2119
  171SOPE  H11X19386   4.607   4.555   7.847  0.8555 -1.7536 -0.9077
  171SOPE  H11Y19387   4.733   4.682   7.884  0.4653  0.4860 -1.2148
  171SOPE  C31219388   4.757   4.513   7.996 -0.6278  0.2975  0.0699
  171SOPE  H12X19389   4.858   4.554   8.015  0.3321 -1.3667 -1.2333
  171SOPE  H12Y19390   4.763   4.403   7.993 -1.7347  0.2290 -0.1486
  171SOPE  C31319391   4.660   4.541   8.119  0.9350 -0.3739  0.2731
  171SOPE  H13X19392   4.558   4.502   8.100  0.4363  1.2898 -0.6601
  171SOPE  H13Y19393   4.650   4.651   8.132 -0.6160 -0.6263  1.3714
  171SOPE  C31419394   4.720   4.473   8.243  0.2566  0.6913 -0.0747
  171SOPE  H14X19395   4.828   4.497   8.248  0.6595 -0.4797 -1.9785
  171SOPE  H14Y19396   4.705   4.365   8.222  1.9092  0.3623  0.2647
  171SOPE  C31519397   4.654   4.504   8.375  0.0463  0.0968  0.4120
  171SOPE  H15X19398   4.672   4.609   8.406 -0.3573 -0.1147  1.3805
  171SOPE  H15Y19399   4.718   4.454   8.450  1.6079 -1.9803 -2.1010
  171SOPE  C31619400   4.507   4.461   8.386 -0.1530 -0.2345 -0.2886
  171SOPE  H16X19401   4.501   4.350   8.386  3.7015 -0.5638  0.5839
  171SOPE  H16Y19402   4.445   4.507   8.306 -0.3705  2.9189  1.5271
  171SOPE  C31719403   4.447   4.526   8.514  0.4499  0.0291  0.5304
  171SOPE  H17X19404   4.337   4.511   8.510  0.2941  0.9871  0.8600
  171SOPE  H17Y19405   4.464   4.635   8.500  2.3579 -0.1166  1.3286
  171SOPE  C31819406   4.501   4.477   8.648 -0.2824 -0.0447 -0.2256
  171SOPE  H18X19407   4.608   4.506   8.652  0.2138 -1.5771 -1.4640
  171SOPE  H18Y19408   4.488   4.368   8.665 -0.7476  0.0911  0.3084
  171SOPE  H18Z19409   4.443   4.528   8.728 -0.4376 -0.5279 -0.0249
  172SOPE     N19410   4.918   0.783   6.276  0.0394 -0.0043 -0.5905
  172SOPE   HN119411   4.952   0.748   6.184  2.9949  0.3230  0.2874
  172SOPE   HN219412   4.955   0.878   6.296 -3.6106  1.5784 -0.6445
  172SOPE   HN319413   4.944   0.707   6.342 -3.1863 -0.2989  0.5004
  172SOPE   C1219414   4.768   0.796   6.263 -0.0151  0.7640 -0.2629
  172SOPE  H12A19415   4.737   0.875   6.191 -0.9512 -0.9687 -1.8395
  172SOPE  H12B19416   4.726   0.827   6.361 -0.5192 -0.5806 -0.0334
  172SOPE   C1119417   4.706   0.664   6.220 -0.1714  0.4876 -0.2972
  172SOPE  H11A19418   4.744   0.639   6.118  1.2620  0.3421  0.2523
  172SOPE  H11B19419   4.596   0.665   6.199 -0.2398 -3.4543 -0.9245
  172SOPE     P19420   4.780   0.422   6.303 -0.2129 -0.2763  0.1025
  172SOPE   O1319421   4.921   0.432   6.260 -0.0127  0.1550  0.2678
  172SOPE   O1419422   4.680   0.343   6.223 -0.2115  0.5422 -1.0780
  172SOPE   O1219423   4.719   0.566   6.317 -0.8159  0.1506  0.3063
  172SOPE   O1119424   4.770   0.374   6.457  0.3046  0.0537 -0.1127
  172SOPE    C119425   4.859   0.409   6.555 -0.0029  0.0890  0.6054
  172SOPE    HA19426   4.831   0.511   6.588 -0.0591  0.4846 -0.6080
  172SOPE    HB19427   4.957   0.423   6.505  0.7276  0.7807  2.1955
  172SOPE    C219428   4.854   0.308   6.671 -0.0557  0.3365  0.8293
  172SOPE    HS19429   4.861   0.211   6.616 -1.3362  1.6162 -1.7884
  172SOPE   O2119430   4.727   0.315   6.745  0.7278 -0.1435  0.5121
  172SOPE   C2119431   4.709   0.202   6.821 -0.2090 -0.1165  1.1883
  172SOPE   O2219432   4.773   0.100   6.805  1.0093  0.1436 -0.1565
  172SOPE   C2219433   4.579   0.216   6.900 -0.0397  0.4265 -0.2362
  172SOPE   H2R19434   4.499   0.168   6.840  0.5664  0.6042 -1.2031
  172SOPE   H2S19435   4.555   0.323   6.916 -1.0484  0.4828 -1.9149
  172SOPE    C319436   4.977   0.324   6.763  0.4348 -0.0245 -0.1733
  172SOPE    HX19437   5.069   0.338   6.702  1.5215 -2.6939  0.7035
  172SOPE    HY19438   4.994   0.230   6.820  2.4892 -0.2666 -1.0917
  172SOPE   O3119439   4.963   0.427   6.859  0.2344 -0.5402  0.5911
  172SOPE   C3119440   5.051   0.526   6.861 -0.0973 -0.2269  0.3339
  172SOPE   O3219441   5.142   0.542   6.780 -0.5245 -0.8135  0.1391
  172SOPE   C3219442   5.015   0.623   6.978  0.5836 -0.0705 -0.5295
  172SOPE   H2X19443   4.976   0.717   6.931  1.6711  1.6799  1.8615
  172SOPE   H2Y19444   5.112   0.657   7.019  1.1870 -1.5838 -0.6761
  172SOPE   C2319445   4.604   0.132   7.029  0.3599  0.4262  0.1682
  172SOPE   H3R19446   4.618   0.023   7.012 -2.4241 -0.2972  1.7926
  172SOPE   H3S19447   4.512   0.119   7.091 -1.2975  1.5467 -1.8999
  172SOPE   C2419448   4.713   0.184   7.123  0.6049  0.4220 -0.3089
  172SOPE   H4R19449   4.795   0.233   7.067  1.1195  0.5455  0.5409
  172SOPE   H4S19450   4.681   0.271   7.184 -2.4957 -0.2155 -0.8475
  172SOPE   C2519451   4.776   0.070   7.212 -0.4621 -0.5554  0.0234
  172SOPE   H5R19452   4.814  -0.008   7.143 -0.2607  1.3913 -2.2099
  172SOPE   H5S19453   4.864   0.121   7.258 -1.2310  0.4290  0.4535
  172SOPE   C2619454   4.682   0.019   7.323  0.4806 -0.2878  0.3159
  172SOPE   H6R19455   4.587  -0.007   7.271  0.6272 -0.5813  0.1988
  172SOPE   H6S19456   4.726  -0.078   7.352 -1.4431 -0.5958  2.5119
  172SOPE   C2719457   4.679   0.119   7.440  0.4496  0.5044  0.9002
  172SOPE   H7R19458   4.776   0.148   7.485  0.5392 -0.1034  1.1057
  172SOPE   H7S19459   4.622   0.206   7.400  0.4978  0.6148  1.0706
  172SOPE   C2819460   4.600   0.061   7.555  0.0620  0.6090 -0.2855
  172SOPE   H8R19461   4.496   0.039   7.522  0.5159  1.2212 -2.2676
  172SOPE   H8S19462   4.646  -0.028   7.602  1.8128 -0.1910 -3.2706
  172SOPE   C2919463   4.593   0.161   7.665  0.6104 -0.5099 -0.1348
  172SOPE   H9119464   4.539   0.256   7.646  1.9726  0.1150 -1.0690
  172SOPE  C21019465   4.627   0.151   7.796  0.3798 -1.0781  1.0346
  172SOPE  H10119466   4.612   0.242   7.855 -1.7864 -0.3934 -0.4318
  172SOPE  C21119467   4.687   0.032   7.858  0.2641  0.1846  0.5032
  172SOPE  H11R19468   4.767   0.074   7.922 -0.5312 -0.7734  2.1960
  172SOPE  H11S19469   4.747  -0.022   7.782  2.0582  0.6231  1.5592
  172SOPE  C21219470   4.597  -0.061   7.941 -0.2248  0.5131  0.2216
  172SOPE  H12R19471   4.649  -0.159   7.944 -0.6666  0.3098  1.5047
  172SOPE  H12S19472   4.504  -0.074   7.881  0.0934  0.7928 -0.3454
  172SOPE  C21319473   4.573  -0.004   8.077  0.1282 -0.3689 -0.5095
  172SOPE  H13R19474   4.666   0.042   8.116 -0.7027 -0.3546  1.6184
  172SOPE  H13S19475   4.541  -0.081   8.151  1.4634  0.5651  1.1016
  172SOPE  C21419476   4.476   0.113   8.085  0.0712  0.3216  0.4199
  172SOPE  H14R19477   4.378   0.080   8.045  1.5385 -1.6921 -1.7090
  172SOPE  H14S19478   4.527   0.189   8.022 -1.3214  0.6981 -0.3044
  172SOPE  C21519479   4.455   0.164   8.225 -0.4682 -0.0404 -0.5575
  172SOPE  H15R19480   4.417   0.080   8.286 -2.7867  1.6508  0.4897
  172SOPE  H15S19481   4.368   0.233   8.222 -1.7512 -1.5207  0.9673
  172SOPE  C21619482   4.581   0.218   8.283 -0.9043 -0.3743 -0.2283
  172SOPE  H16R19483   4.613   0.307   8.225 -2.2408  1.6946  1.9842
  172SOPE  H16S19484   4.661   0.142   8.292  1.1615  1.7773  0.8649
  172SOPE  C21719485   4.571   0.284   8.418 -0.1340  0.1250  0.5966
  172SOPE  H17R19486   4.556   0.207   8.496 -2.3304 -2.4096 -2.1069
  172SOPE  H17S19487   4.482   0.349   8.405 -1.5773 -1.4122  2.2749
  172SOPE  C21819488   4.695   0.388   8.447  0.4901  0.1358  0.5587
  172SOPE  H18R19489   4.729   0.448   8.360 -0.0563  3.5680  2.5570
  172SOPE  H18S19490   4.786   0.327   8.465 -0.4984 -1.2461  1.0292
  172SOPE  H18T19491   4.669   0.463   8.525  2.3672  2.0011 -0.5126
  172SOPE   C3319492   4.935   0.563   7.095  0.1577  0.1053 -0.3970
  172SOPE   H3X19493   4.998   0.487   7.146  2.3720  2.9371  1.3338
  172SOPE   H3Y19494   4.839   0.516   7.065 -0.0294  0.6895 -0.7232
  172SOPE   C3419495   4.900   0.682   7.191 -0.4734  0.1298  0.4558
  172SOPE   H4X19496   4.844   0.763   7.140  0.1786  0.5603  0.4078
  172SOPE   H4Y19497   5.001   0.728   7.190 -0.0895 -0.6833 -0.5997
  172SOPE   C3519498   4.857   0.656   7.330  0.4543  0.2514  0.2388
  172SOPE   H5X19499   4.858   0.753   7.385  1.5977  0.0921  0.5131
  172SOPE   H5Y19500   4.929   0.581   7.369  1.1411  1.2032  0.8497
  172SOPE   C3619501   4.717   0.619   7.324  0.6655 -0.0840 -0.4298
  172SOPE   H6X19502   4.710   0.513   7.290 -1.2548 -0.0470 -0.2682
  172SOPE   H6Y19503   4.664   0.689   7.256  0.2778 -0.5541 -0.6205
  172SOPE   C3719504   4.635   0.644   7.455 -0.4454 -0.8888 -0.6949
  172SOPE   H7X19505   4.529   0.611   7.449 -0.4048 -1.5229  1.4084
  172SOPE   H7Y19506   4.633   0.750   7.489  2.5728 -1.0579  0.2154
  172SOPE   C3819507   4.702   0.553   7.565  0.4190 -0.0753 -0.4287
  172SOPE   H8X19508   4.811   0.573   7.569  0.4210  0.4955 -2.5218
  172SOPE   H8Y19509   4.689   0.449   7.528  4.4558 -0.3212 -1.6631
  172SOPE   C3919510   4.639   0.570   7.707  0.3492 -0.4203 -0.4123
  172SOPE   H9X19511   4.698   0.506   7.777  1.4944  2.1156  1.1071
  172SOPE   H9Y19512   4.540   0.521   7.702  0.1186 -0.0694  0.5769
  172SOPE  C31019513   4.646   0.710   7.776  0.4565 -0.6732  0.4126
  172SOPE  H10X19514   4.568   0.776   7.734  0.9636 -0.7698 -0.7004
  172SOPE  H10Y19515   4.750   0.747   7.764  0.3430 -0.1375  1.0343
  172SOPE  C31119516   4.626   0.697   7.928  0.6179 -0.0920 -0.9006
  172SOPE  H11X19517   4.671   0.603   7.966 -0.6789  0.0865  1.2316
  172SOPE  H11Y19518   4.521   0.681   7.961  1.2753  0.4574  1.7356
  172SOPE  C31219519   4.679   0.816   8.008  0.2130  0.2917 -0.8294
  172SOPE  H12X19520   4.614   0.901   7.980  0.5667  0.1676 -2.0916
  172SOPE  H12Y19521   4.783   0.843   7.981 -0.7509  2.5521 -2.6480
  172SOPE  C31319522   4.670   0.786   8.163  0.1728  0.0812  0.1308
  172SOPE  H13X19523   4.719   0.687   8.179 -1.2406 -0.9670 -1.5901
  172SOPE  H13Y19524   4.564   0.781   8.196 -0.8307 -3.6002 -2.9108
  172SOPE  C31419525   4.748   0.904   8.234 -0.1220  0.7274  0.0887
  172SOPE  H14X19526   4.857   0.909   8.212  0.1990 -1.6023  0.9060
  172SOPE  H14Y19527   4.747   0.874   8.341 -3.6404 -0.9668 -0.2853
  172SOPE  C31519528   4.682   1.044   8.222 -0.0826  0.2964 -0.1821
  172SOPE  H15X19529   4.573   1.048   8.244 -0.4170  0.3664 -1.6999
  172SOPE  H15Y19530   4.687   1.081   8.117  1.5627  1.2676  0.2044
  172SOPE  C31619531   4.738   1.136   8.324 -0.5073 -0.3946  0.1685
  172SOPE  H16X19532   4.848   1.124   8.337 -0.2449  1.5956  0.0371
  172SOPE  H16Y19533   4.698   1.112   8.425 -1.9123  2.3378  0.3637
  172SOPE  C31719534   4.712   1.284   8.298 -0.2258 -0.0949  0.5673
  172SOPE  H17X19535   4.602   1.290   8.293 -0.1346  1.3609 -0.2997
  172SOPE  H17Y19536   4.759   1.324   8.205  2.6289 -1.3143  1.3738
  172SOPE  C31819537   4.748   1.377   8.415  0.5178  0.1575 -0.1709
  172SOPE  H18X19538   4.779   1.481   8.390 -1.0463  0.8342  0.5631
  172SOPE  H18Y19539   4.826   1.323   8.474 -0.4695  1.5765  2.6143
  172SOPE  H18Z19540   4.661   1.382   8.484 -0.2505 -1.1590 -1.0206
  173SAPI   C1219541   0.800   4.030  10.928 -0.6648  0.1448  0.7902
  173SAPI    H219542   0.828   3.932  10.883 -0.6671  0.2655  0.5263
  173SAPI    O219543   0.719   4.091  10.826  0.1730 -0.4612 -0.6407
  173SAPI   HO219544   0.775   4.158  10.787  0.7724  1.5562  3.2576
  173SAPI   C1319545   0.742   4.001  11.065 -0.0218  0.7690 -0.4327
  173SAPI    H319546   0.823   3.967  11.133  0.6548  0.6518 -1.2660
  173SAPI    O319547   0.635   3.908  11.047  0.4389 -0.1023  0.3972
  173SAPI   HO319548   0.671   3.827  11.010 -1.7240 -0.8876 -0.1554
  173SAPI   C1419549   0.698   4.135  11.123  0.0659  0.0656 -0.3663
  173SAPI    H419550   0.627   4.184  11.053  0.4404 -0.4742 -1.1384
  173SAPI    O419551   0.624   4.122  11.245  0.2283 -0.1409  0.2543
  173SAPI   HO419552   0.531   4.133  11.227  0.4153  1.5022  0.1122
  173SAPI   C1519553   0.811   4.226  11.145 -0.3289  0.2262 -0.1300
  173SAPI    H519554   0.881   4.174  11.215 -0.9898 -3.0927 -1.7052
  173SAPI    O519555   0.771   4.347  11.209  0.3941  0.2797 -0.3766
  173SAPI   HO519556   0.690   4.329  11.257 -0.6514  0.9925 -1.8135
  173SAPI   C1619557   0.893   4.250  11.020  0.1783 -0.1199  0.1897
  173SAPI    H619558   0.841   4.318  10.949  1.0579  1.3122  0.8740
  173SAPI    O619559   1.015   4.324  11.055  0.0815  0.0734  0.0289
  173SAPI   HO619560   1.082   4.292  10.994  1.0637  1.3403  0.3975
  173SAPI   C1119561   0.918   4.117  10.944 -0.8539 -0.2277 -0.2752
  173SAPI    H119562   0.983   4.060  11.014 -0.1028  0.3257 -0.5032
  173SAPI     P19563   1.072   4.027  10.744 -0.1557  0.2174 -0.4689
  173SAPI   O1319564   1.077   3.907  10.826  0.3235  0.0343  0.3580
  173SAPI   O1419565   1.198   4.086  10.692 -0.0208 -0.1221  0.2432
  173SAPI   O1219566   0.991   4.146  10.822  0.2574  0.2893  0.1068
  173SAPI   O1119567   0.976   3.985  10.629 -0.7991 -0.1344 -0.6512
  173SAPI    C119568   0.992   4.038  10.497 -0.2342  0.0965  0.7593
  173SAPI    HA19569   0.890   4.062  10.459 -0.7305 -1.0799  1.2847
  173SAPI    HB19570   1.044   4.136  10.497  2.4309 -1.0197  5.0847
  173SAPI    C219571   1.040   3.938  10.394 -0.4910  0.4056 -0.1601
  173SAPI    HS19572   0.962   3.860  10.403  2.4531 -2.6757  0.5483
  173SAPI   O2119573   1.166   3.883  10.424 -0.1339 -0.0602 -0.0585
  173SAPI   C2119574   1.184   3.768  10.389 -0.2567  0.0987 -0.1167
  173SAPI   O2219575   1.103   3.699  10.321 -0.0723  0.1060 -0.5748
  173SAPI   C2219576   1.299   3.711  10.462 -0.3686  0.4226  0.0807
  173SAPI   H2R19577   1.387   3.774  10.438  0.4402 -0.0658  1.6395
  173SAPI   H2S19578   1.276   3.706  10.571 -1.3722 -0.5425 -0.1537
  173SAPI    C319579   1.042   4.007  10.252 -0.1280  0.3956 -0.4198
  173SAPI    HX19580   1.112   4.093  10.264  0.7530 -0.4354  0.5711
  173SAPI    HY19581   0.946   4.056  10.227  1.1370  2.2945 -1.8380
  173SAPI   O3119582   1.091   3.923  10.143 -0.4345  0.0325  0.0226
  173SAPI   C3119583   1.006   3.843  10.078  0.1281  0.6245  0.1663
  173SAPI   O3219584   0.888   3.827  10.108 -0.7239  0.4817  0.3488
  173SAPI   C3219585   1.079   3.761   9.975  0.2616 -0.3510  0.5615
  173SAPI   H2X19586   1.113   3.665  10.020 -1.2026 -0.6369  1.0856
  173SAPI   H2Y19587   1.170   3.814   9.937 -0.7125  0.5634 -0.5707
  173SAPI   C2319588   1.332   3.563  10.411  0.1121 -0.7698 -0.5419
  173SAPI   H3R19589   1.237   3.505  10.420 -1.0266  1.0186 -0.5739
  173SAPI   H3S19590   1.415   3.515  10.466  0.4564  0.0814 -0.3086
  173SAPI   C2419591   1.371   3.561  10.256 -0.7034  1.1769 -0.5475
  173SAPI   H4R19592   1.287   3.590  10.189 -1.7966 -1.8438 -0.6713
  173SAPI   H4S19593   1.385   3.453  10.232  1.7691  1.6473 -1.5304
  173SAPI   C2519594   1.504   3.629  10.238  0.4889  0.4630  0.0593
  173SAPI   H5R19595   1.579   3.616  10.318  1.3975 -0.5849 -0.9276
  173SAPI   C2619596   1.535   3.706  10.135 -0.8290 -0.4194  0.2477
  173SAPI   H6R19597   1.629   3.764  10.140 -1.7507  1.3791 -1.9585
  173SAPI   C2719598   1.459   3.748  10.010 -0.7347 -0.5654 -0.2880
  173SAPI   H7R19599   1.471   3.856   9.989 -0.8272 -0.4824  0.0787
  173SAPI   H7S19600   1.353   3.719  10.021 -0.4721 -2.2519 -1.6811
  173SAPI   C2819601   1.492   3.667   9.885  0.2903  0.5160  0.7797
  173SAPI   H8R19602   1.499   3.560   9.911  0.9306  0.5807  0.8895
  173SAPI   C2919603   1.493   3.702   9.753 -0.0260 -0.7662 -0.2398
  173SAPI   H9R19604   1.529   3.628   9.680 -1.0186 -2.2677  0.7222
  173SAPI  C21019605   1.475   3.844   9.696 -0.2063  0.5471 -0.8061
  173SAPI  H10R19606   1.406   3.878   9.776  1.4557 -0.8561  1.3354
  173SAPI  H10S19607   1.416   3.845   9.601 -0.1978 -4.4812 -1.1044
  173SAPI  C21119608   1.607   3.922   9.691  0.4492  0.2345 -0.0914
  173SAPI  H11R19609   1.642   3.972   9.782  2.6077  1.3895 -1.4477
  173SAPI  C21219610   1.676   3.921   9.580 -0.6163  0.1022  0.1052
  173SAPI  H12R19611   1.779   3.959   9.585 -1.4658  2.3952  1.7530
  173SAPI  C21319612   1.646   3.843   9.452  0.2801  0.0811  0.2460
  173SAPI  H13R19613   1.550   3.789   9.467 -0.4973  1.7068  1.3769
  173SAPI  H13S19614   1.718   3.760   9.436 -1.5868 -1.7760  1.0212
  173SAPI  C21419615   1.634   3.928   9.331  0.2550  0.2423 -0.5006
  173SAPI  H14R19616   1.531   3.964   9.320 -0.0109 -0.5067 -0.5189
  173SAPI  C21519617   1.721   3.967   9.241 -0.1741 -0.4943  0.2797
  173SAPI  H15R19618   1.691   4.027   9.154 -1.5365 -2.5089 -0.7057
  173SAPI  C21619619   1.865   3.932   9.253 -0.9730 -0.1390  0.6682
  173SAPI  H16R19620   1.886   3.893   9.354  1.6137  1.7862  0.9693
  173SAPI  H16S19621   1.923   4.025   9.231 -0.7045 -0.0797  1.5941
  173SAPI  C21719622   1.905   3.827   9.138  0.1413 -0.4562  0.0041
  173SAPI  H17R19623   1.849   3.733   9.152  0.8801 -0.9393 -0.1887
  173SAPI  H17S19624   2.014   3.803   9.146  0.2318  0.1203  0.6663
  173SAPI  C21819625   1.879   3.875   8.990 -0.8245 -0.3521  0.3986
  173SAPI  H18R19626   1.940   3.815   8.919 -3.1791 -1.9018 -0.4159
  173SAPI  H18S19627   1.894   3.985   8.985 -0.6167 -0.4219 -0.8699
  173SAPI  C21919628   1.742   3.851   8.932 -0.0053  0.1590 -0.6972
  173SAPI  H19R19629   1.673   3.846   9.019 -0.6302  0.0652 -1.1905
  173SAPI  H19S19630   1.744   3.750   8.884  0.4094  0.0743 -0.5045
  173SAPI  C22019631   1.695   3.958   8.837 -0.9494  0.6862 -0.0099
  173SAPI  H20R19632   1.601   3.929   8.786  0.3361 -0.9194 -1.5996
  173SAPI  H20S19633   1.776   3.967   8.761 -0.4715  0.4247  0.4557
  173SAPI  H20T19634   1.689   4.055   8.891  1.1741 -0.3132  2.2439
  173SAPI   C3319635   0.996   3.699   9.863  0.7318  0.2753  0.5965
  173SAPI   H3X19636   0.901   3.753   9.841 -0.9245 -2.1951  1.3654
  173SAPI   H3Y19637   0.960   3.599   9.892 -0.8135  0.5288 -0.2974
  173SAPI   C3419638   1.069   3.670   9.725 -0.2373 -0.5515 -0.5545
  173SAPI   H4X19639   1.023   3.577   9.683 -0.2618 -1.6859  1.8329
  173SAPI   H4Y19640   1.175   3.642   9.739 -0.6248 -1.8579 -0.0478
  173SAPI   C3519641   1.055   3.771   9.613 -0.3180 -0.6269  0.1496
  173SAPI   H5X19642   1.099   3.866   9.650 -2.0753  0.9183 -1.5145
  173SAPI   H5Y19643   0.948   3.781   9.585 -0.8183  0.4183  2.2526
  173SAPI   C3619644   1.124   3.709   9.495  0.2536 -0.9856  0.4156
  173SAPI   H6X19645   1.058   3.644   9.434 -1.2538  1.2129 -0.4308
  173SAPI   H6Y19646   1.213   3.648   9.521  1.4912  1.5088  2.5045
  173SAPI   C3719647   1.173   3.820   9.397  0.7445 -0.7841 -0.6064
  173SAPI   H7X19648   1.222   3.898   9.459 -1.0025  1.0765 -1.4857
  173SAPI   H7Y19649   1.086   3.869   9.348 -0.3507 -0.8805  1.1369
  173SAPI   C3819650   1.283   3.765   9.300 -0.3956 -0.4292 -0.5415
  173SAPI   H8X19651   1.330   3.679   9.353  0.9517  0.0706 -0.8838
  173SAPI   H8Y19652   1.347   3.847   9.259 -1.2293 -0.7967 -2.6968
  173SAPI   C3919653   1.220   3.707   9.170  0.6340 -0.1664  0.0914
  173SAPI   H9X19654   1.155   3.787   9.129  1.0660  1.0743  1.6928
  173SAPI   H9Y19655   1.155   3.619   9.188 -0.7540  0.5868 -1.0963
  173SAPI  C31019656   1.335   3.677   9.070  0.5083 -0.3209 -0.5261
  173SAPI  H10X19657   1.415   3.620   9.122  0.6714  1.5130  1.3409
  173SAPI  H10Y19658   1.390   3.770   9.044 -0.8826 -0.3411 -4.1380
  173SAPI  C31119659   1.294   3.626   8.929  0.4615 -0.1177  0.5271
  173SAPI  H11X19660   1.226   3.695   8.875 -0.9331 -2.3904 -0.8178
  173SAPI  H11Y19661   1.230   3.538   8.954  0.5530 -0.0430  1.0419
  173SAPI  C31219662   1.410   3.592   8.837 -0.4943  0.0979  0.6495
  173SAPI  H12X19663   1.446   3.499   8.887 -0.1498  0.2280  0.6438
  173SAPI  H12Y19664   1.491   3.666   8.855  0.4947 -1.5019  3.3996
  173SAPI  C31319665   1.384   3.562   8.685 -0.3481  0.1231  0.0658
  173SAPI  H13X19666   1.465   3.497   8.646 -4.3562 -4.9939 -0.8851
  173SAPI  H13Y19667   1.405   3.661   8.638 -1.2446  0.2410 -0.1088
  173SAPI  C31419668   1.252   3.491   8.650  0.2309 -1.0120 -0.1632
  173SAPI  H14X19669   1.161   3.533   8.698  0.3276 -0.0725 -0.7829
  173SAPI  H14Y19670   1.268   3.389   8.691  0.3632 -0.9248  0.0014
  173SAPI  C31519671   1.229   3.479   8.493 -0.5533 -0.9054 -0.5071
  173SAPI  H15X19672   1.189   3.377   8.471  0.1633 -1.3041 -0.0010
  173SAPI  H15Y19673   1.322   3.490   8.433 -0.6500 -1.0032 -0.6780
  173SAPI  C31619674   1.135   3.592   8.445 -0.0337 -0.2290  0.2049
  173SAPI  H16X19675   1.184   3.691   8.427 -0.5300 -0.2313 -1.2637
  173SAPI  H16Y19676   1.059   3.610   8.524 -2.1633  0.9120 -1.9769
  173SAPI  C31719677   1.050   3.568   8.315 -0.1296  0.0087 -0.1862
  173SAPI  H17X19678   0.993   3.661   8.293  0.8517  0.9825  1.2014
  173SAPI  H17Y19679   0.970   3.495   8.339 -1.0959  1.5924  1.6612
  173SAPI  C31819680   1.143   3.524   8.200 -0.3701 -0.3784 -0.2346
  173SAPI  H18X19681   1.217   3.602   8.172  0.6057 -1.5051 -0.8666
  173SAPI  H18Y19682   1.090   3.514   8.103 -0.3313 -1.7239 -0.1372
  173SAPI  H18Z19683   1.202   3.444   8.249 -0.4448  1.4911  3.2115
  174SAPI   C1219684   6.280   4.079  10.846  0.0739  0.2030  0.0683
  174SAPI    H219685   6.226   4.160  10.792 -0.9479 -0.4955  0.0050
  174SAPI    O219686   6.382   4.039  10.758 -0.0828 -0.2304 -0.2693
  174SAPI   HO219687   6.406   4.107  10.695 -2.4573 -1.6643 -2.9918
  174SAPI   C1319688   6.342   4.133  10.973  0.3400 -0.3958 -0.5978
  174SAPI    H319689   6.257   4.171  11.034  0.1289 -0.9278 -0.5495
  174SAPI    O319690   6.424   4.249  10.952 -0.0937 -0.1231 -0.2003
  174SAPI   HO319691   6.465   4.252  10.865 -0.1968  2.3116 -0.2237
  174SAPI   C1419692   6.412   4.026  11.057 -0.4625  0.3042 -0.8148
  174SAPI    H419693   6.504   4.001  11.001 -1.8712 -1.5581 -2.4217
  174SAPI    O419694   6.456   4.089  11.187  0.0067  0.4306  0.7098
  174SAPI   HO419695   6.497   4.017  11.236  0.6199  1.5141  1.8172
  174SAPI   C1519696   6.328   3.905  11.071  0.0302 -0.5971  0.0775
  174SAPI    H519697   6.242   3.924  11.138 -0.2083  0.4636 -0.5048
  174SAPI    O519698   6.407   3.810  11.135  0.3734 -0.4727  0.3391
  174SAPI   HO519699   6.428   3.745  11.068 -1.2165 -2.2989  1.5002
  174SAPI   C1619700   6.269   3.860  10.937  0.3543  0.2289  1.0406
  174SAPI    H619701   6.353   3.829  10.872  0.7917  0.0563  1.6813
  174SAPI    O619702   6.191   3.740  10.951 -0.1923 -0.1572  0.0075
  174SAPI   HO619703   6.190   3.709  10.861  1.2714 -0.6618  0.1357
  174SAPI   C1119704   6.183   3.962  10.871  0.1169 -0.3531 -0.7046
  174SAPI    H119705   6.110   4.011  10.939  1.3487  0.6380 -0.0487
  174SAPI     P19706   5.973   3.943  10.704 -0.1090 -0.1069  0.5520
  174SAPI   O1319707   5.949   4.085  10.671 -0.1248  0.0453 -0.1081
  174SAPI   O1419708   5.887   3.894  10.813 -0.2267 -0.3367  0.1939
  174SAPI   O1219709   6.127   3.921  10.746  0.3761 -0.0369  0.0602
  174SAPI   O1119710   5.966   3.845  10.581  0.3457 -0.4089  0.6607
  174SAPI    C119711   6.063   3.806  10.490 -0.1475  0.2179  0.4555
  174SAPI    HA19712   6.153   3.757  10.534 -0.5790 -0.0687  1.0368
  174SAPI    HB19713   6.007   3.732  10.428  0.0296 -0.3923  1.0066
  174SAPI    C219714   6.113   3.911  10.389 -0.2906 -0.6226 -0.0951
  174SAPI    HS19715   6.188   3.968  10.449  0.1913 -0.6850 -0.6319
  174SAPI   O2119716   6.011   3.991  10.332 -0.7194 -0.1652 -0.0053
  174SAPI   C2119717   6.041   4.125  10.330  0.1898  0.1495  0.4466
  174SAPI   O2219718   6.141   4.180  10.374  0.2061  0.8284  0.1409
  174SAPI   C2219719   5.922   4.198  10.264 -0.3498  0.1812  0.3517
  174SAPI   H2R19720   5.831   4.151  10.306  0.0860 -0.9531  0.0677
  174SAPI   H2S19721   5.925   4.305  10.294 -2.1683  0.7345 -1.2217
  174SAPI    C319722   6.198   3.842  10.283 -0.4196  0.0360  0.1281
  174SAPI    HX19723   6.142   3.776  10.212 -0.8527  1.7469 -1.1983
  174SAPI    HY19724   6.272   3.786  10.344  0.5641 -0.2854 -1.3001
  174SAPI   O3119725   6.250   3.940  10.200  0.0562 -0.3133  0.2893
  174SAPI   C3119726   6.387   3.967  10.209  0.4493  0.1345  0.0533
  174SAPI   O3219727   6.467   3.904  10.276 -0.2252 -0.1385  0.4512
  174SAPI   C3219728   6.414   4.108  10.150  0.2579  0.0647  0.2106
  174SAPI   H2X19729   6.520   4.135  10.167  0.4725  1.3543 -2.5830
  174SAPI   H2Y19730   6.356   4.175  10.215  0.1165 -0.5674  0.7478
  174SAPI   C2319731   5.922   4.193  10.110  0.6751  0.0707  0.1241
  174SAPI   H3R19732   6.012   4.253  10.085 -0.1964  0.3493 -2.8612
  174SAPI   H3S19733   5.840   4.259  10.072 -0.8322 -3.0598 -2.5790
  174SAPI   C2419734   5.923   4.065  10.026  0.5098  0.4740 -0.3896
  174SAPI   H4R19735   6.026   4.025  10.043  0.7759  0.6374 -1.5546
  174SAPI   H4S19736   5.906   4.089   9.919  0.2101 -2.8733 -1.2014
  174SAPI   C2519737   5.824   3.963  10.077 -0.3952 -0.3352  0.2818
  174SAPI   H5R19738   5.850   3.933  10.180 -0.6063  1.1456  0.7961
  174SAPI   C2619739   5.718   3.908  10.009 -0.2265 -0.5588  0.2245
  174SAPI   H6R19740   5.654   3.836  10.063 -0.8053  1.0928  1.8192
  174SAPI   C2719741   5.678   3.939   9.863 -0.2470  0.4616 -0.3949
  174SAPI   H7R19742   5.654   3.843   9.812 -1.6930  0.7383 -0.2726
  174SAPI   H7S19743   5.761   3.983   9.803  2.3585  0.6353  3.0258
  174SAPI   C2819744   5.562   4.030   9.862 -0.0378 -0.1860  0.1945
  174SAPI   H8R19745   5.569   4.112   9.936  0.1869  0.3202 -0.3761
  174SAPI   C2919746   5.455   4.025   9.781 -0.4816 -0.1355  0.1555
  174SAPI   H9R19747   5.380   4.103   9.796  1.9721  2.5285 -0.4425
  174SAPI  C21019748   5.445   3.924   9.669  0.3569 -0.2649 -0.1770
  174SAPI  H10R19749   5.413   3.824   9.705  2.1458 -0.5418  0.7816
  174SAPI  H10S19750   5.547   3.911   9.627  0.1968  1.3901 -1.1332
  174SAPI  C21119751   5.345   3.961   9.566  0.1902  0.6373  0.4776
  174SAPI  H11R19752   5.250   4.008   9.596 -0.0971  0.7497 -0.5799
  174SAPI  C21219753   5.365   3.942   9.438  0.1361 -0.0161 -0.2284
  174SAPI  H12R19754   5.282   3.969   9.371 -0.3738 -0.5087  0.1958
  174SAPI  C21319755   5.476   3.870   9.367  0.1257 -0.0747  0.4202
  174SAPI  H13R19756   5.437   3.837   9.268 -0.2422 -0.9142  0.8326
  174SAPI  H13S19757   5.494   3.782   9.431 -1.6020 -2.0266 -1.6121
  174SAPI  C21419758   5.600   3.943   9.332  0.1753  0.3996  0.9871
  174SAPI  H14R19759   5.607   4.041   9.382 -0.9462  1.5207 -0.9504
  174SAPI  C21519760   5.681   3.899   9.232  0.3337 -0.0066 -0.1110
  174SAPI  H15R19761   5.777   3.947   9.209 -0.5663  1.0197 -1.9646
  174SAPI  C21619762   5.666   3.776   9.145 -0.3570 -0.4598  0.3150
  174SAPI  H16R19763   5.625   3.809   9.047  1.1194  4.0186  0.9705
  174SAPI  H16S19764   5.593   3.704   9.187 -1.6017  0.1126 -0.7746
  174SAPI  C21719765   5.816   3.714   9.134  0.5089 -0.7619 -0.4402
  174SAPI  H17R19766   5.874   3.768   9.057  0.2745  1.1470  0.6425
  174SAPI  H17S19767   5.794   3.617   9.086 -2.9535 -1.2992  1.8373
  174SAPI  C21819768   5.887   3.688   9.272  0.7658  0.4746  0.1004
  174SAPI  H18R19769   5.826   3.613   9.328  0.8019 -1.2751 -2.0331
  174SAPI  H18S19770   5.892   3.773   9.343 -1.7438  1.7702 -1.1478
  174SAPI  C21919771   6.024   3.625   9.247 -0.8006  0.1181 -0.2190
  174SAPI  H19R19772   6.019   3.542   9.173 -1.4132 -1.4997  1.5454
  174SAPI  H19S19773   6.047   3.579   9.346  0.8887  1.7954  0.2192
  174SAPI  C22019774   6.128   3.732   9.212 -0.1422 -0.4026 -0.2254
  174SAPI  H20R19775   6.102   3.830   9.255 -0.7179 -0.3894 -0.6003
  174SAPI  H20S19776   6.139   3.748   9.103 -1.7007 -1.5128 -0.5845
  174SAPI  H20T19777   6.228   3.696   9.246 -0.5001 -1.6292 -0.4101
  174SAPI   C3319778   6.371   4.119  10.007  0.4669 -0.0318 -0.1832
  174SAPI   H3X19779   6.384   4.222   9.968 -0.4578  1.1615  2.3939
  174SAPI   H3Y19780   6.263   4.094   9.995 -0.1874  1.8075  1.3109
  174SAPI   C3419781   6.467   4.035   9.914 -0.2005 -0.1453 -0.8013
  174SAPI   H4X19782   6.469   3.930   9.951 -1.4264 -0.4540 -1.5477
  174SAPI   H4Y19783   6.560   4.092   9.934 -0.7541  0.7995 -0.8674
  174SAPI   C3519784   6.425   4.032   9.776  0.0190 -0.0853  0.1836
  174SAPI   H5X19785   6.421   4.139   9.745 -4.2932  0.9323  3.2429
  174SAPI   H5Y19786   6.317   4.004   9.771 -0.0481  0.1292  0.3986
  174SAPI   C3619787   6.503   3.954   9.676  0.7735  0.2310  0.6410
  174SAPI   H6X19788   6.487   3.846   9.700 -2.6734  0.8382  1.6245
  174SAPI   H6Y19789   6.609   3.984   9.690  0.4708  0.8084  1.8133
  174SAPI   C3719790   6.457   3.988   9.537 -0.7097  0.7805 -1.2152
  174SAPI   H7X19791   6.498   4.088   9.512  0.8385  0.4112 -0.2627
  174SAPI   H7Y19792   6.346   3.982   9.532 -0.6486 -0.9474 -1.2807
  174SAPI   C3819793   6.492   3.876   9.440  0.1906  0.0721 -0.1738
  174SAPI   H8X19794   6.424   3.791   9.460 -1.1629  1.3493  0.8949
  174SAPI   H8Y19795   6.592   3.836   9.465 -0.0767 -0.7495 -0.3989
  174SAPI   C3919796   6.474   3.918   9.293 -0.3280 -0.9484 -0.5266
  174SAPI   H9X19797   6.378   3.968   9.270  0.6372  0.1624 -2.4226
  174SAPI   H9Y19798   6.486   3.824   9.236 -1.1185 -1.6341  0.3934
  174SAPI  C31019799   6.587   4.023   9.251 -0.4750 -1.1192  0.6606
  174SAPI  H10X19800   6.685   3.989   9.290  1.0573  2.3569  0.2567
  174SAPI  H10Y19801   6.554   4.119   9.297 -2.6252 -0.9604 -1.0222
  174SAPI  C31119802   6.593   4.035   9.100 -0.4985  0.6310  0.5797
  174SAPI  H11X19803   6.639   3.941   9.064 -1.2034  0.6794 -0.4787
  174SAPI  H11Y19804   6.665   4.117   9.082  0.3309 -0.6119 -2.2970
  174SAPI  C31219805   6.466   4.041   9.023 -0.8852  0.3971  0.3781
  174SAPI  H12X19806   6.409   3.945   9.032  2.8631 -2.1371 -0.5232
  174SAPI  H12Y19807   6.490   4.042   8.915 -0.8849  0.2894  0.3768
  174SAPI  C31319808   6.379   4.164   9.057 -0.6865 -0.2648  0.3005
  174SAPI  H13X19809   6.441   4.257   9.056  0.0989 -0.7794 -0.4662
  174SAPI  H13Y19810   6.332   4.159   9.157 -2.3190 -0.2000 -0.4234
  174SAPI  C31419811   6.273   4.196   8.951 -0.4297  0.1872  0.4250
  174SAPI  H14X19812   6.317   4.206   8.849 -0.0066 -0.7477  0.5058
  174SAPI  H14Y19813   6.225   4.293   8.973 -1.1178 -0.0122 -0.1448
  174SAPI  C31519814   6.169   4.076   8.943 -0.2255 -0.2652 -0.1619
  174SAPI  H15X19815   6.106   4.070   9.035  1.4077  2.0564  1.2303
  174SAPI  H15Y19816   6.234   3.986   8.938  0.8752  0.4553  0.7547
  174SAPI  C31619817   6.081   4.078   8.817  0.3846  0.0471 -0.2640
  174SAPI  H16X19818   6.142   4.114   8.731  1.4837  1.4652  1.0565
  174SAPI  H16Y19819   6.003   4.156   8.826  1.0645  0.7875 -0.7368
  174SAPI  C31719820   6.014   3.946   8.781 -0.4065  0.3360  0.0331
  174SAPI  H17X19821   6.032   3.868   8.859  1.5883  1.6579  0.9871
  174SAPI  H17Y19822   6.042   3.909   8.680 -0.5117  2.2115 -0.7180
  174SAPI  C31819823   5.859   3.957   8.771 -0.1462 -0.0902  0.3688
  174SAPI  H18X19824   5.823   4.035   8.842  0.5810  2.3323 -1.7418
  174SAPI  H18Y19825   5.830   3.853   8.795  4.4016 -1.7075 -0.2598
  174SAPI  H18Z19826   5.823   3.980   8.669 -2.4010 -2.3757  0.5604
  175SAPI   C1219827   5.600   4.089   6.116 -0.2524 -0.6652  0.1634
  175SAPI    H219828   5.608   4.101   6.226 -0.2064 -1.8435  0.3019
  175SAPI    O219829   5.466   4.116   6.070  0.0091  0.3747  0.0892
  175SAPI   HO219830   5.425   4.146   6.151 -2.1084 -0.0002 -0.7631
  175SAPI   C1319831   5.684   4.203   6.061 -0.1276 -0.0104  0.1106
  175SAPI    H319832   5.789   4.198   6.097  0.2395 -0.1884 -0.9467
  175SAPI    O319833   5.640   4.327   6.117  0.2723 -0.6017 -0.1359
  175SAPI   HO319834   5.545   4.321   6.124  0.2759 -0.6602 -0.1416
  175SAPI   C1419835   5.673   4.196   5.904  0.6032  0.4613  0.5150
  175SAPI    H419836   5.572   4.218   5.864  0.9666  0.6328 -0.3265
  175SAPI    O419837   5.764   4.293   5.850  0.7615  0.7634 -0.5163
  175SAPI   HO419838   5.757   4.282   5.755  2.6040 -0.0689 -0.5966
  175SAPI   C1519839   5.717   4.059   5.862  0.1578  0.0420  0.8617
  175SAPI    H519840   5.825   4.060   5.887  0.1741  1.4686  0.8553
  175SAPI    O519841   5.698   4.041   5.722 -0.3569  0.8328 -0.2928
  175SAPI   HO519842   5.785   4.018   5.689 -0.6233 -3.8752  1.4030
  175SAPI   C1619843   5.644   3.946   5.935 -0.1122  0.0119  0.2032
  175SAPI    H619844   5.539   3.947   5.897  0.4498 -1.8104 -1.5198
  175SAPI    O619845   5.700   3.826   5.899 -0.1753 -0.1739  0.1076
  175SAPI   HO619846   5.663   3.803   5.813  2.1876 -0.3105 -0.9582
  175SAPI   C1119847   5.656   3.954   6.081 -0.0326 -0.2878  0.7633
  175SAPI    H119848   5.766   3.952   6.102 -0.0953 -1.4411  1.0733
  175SAPI     P19849   5.654   3.778   6.269 -0.0720 -0.3954 -0.4179
  175SAPI   O1319850   5.800   3.771   6.247 -0.2870 -0.3068 -0.6167
  175SAPI   O1419851   5.581   3.654   6.287  0.0466 -0.5770  0.2734
  175SAPI   O1219852   5.579   3.855   6.143 -0.4056  0.2703 -0.3208
  175SAPI   O1119853   5.620   3.877   6.386  0.1141 -0.2826  0.1946
  175SAPI    C119854   5.506   3.858   6.469 -0.3667 -0.5666  0.4261
  175SAPI    HA19855   5.414   3.845   6.409 -1.6037 -0.4558  2.2435
  175SAPI    HB19856   5.514   3.756   6.513  2.6705 -0.5844  0.0718
  175SAPI    C219857   5.490   3.969   6.570 -0.4576 -0.1615  0.0048
  175SAPI    HS19858   5.461   4.062   6.516 -2.4749 -0.7362 -0.0142
  175SAPI   O2119859   5.613   3.989   6.648  0.0039 -0.0145  0.4107
  175SAPI   C2119860   5.604   4.079   6.745  0.6679 -0.4326 -0.0965
  175SAPI   O2219861   5.511   4.162   6.750  0.1417  0.2032  0.1836
  175SAPI   C2219862   5.721   4.069   6.840 -0.3688  0.2214 -0.2092
  175SAPI   H2R19863   5.713   3.971   6.892 -1.1258  0.7687  0.7433
  175SAPI   H2S19864   5.815   4.071   6.780  1.4398 -3.0617  2.1379
  175SAPI    C319865   5.369   3.940   6.668  0.1454  1.1227 -0.1820
  175SAPI    HX19866   5.292   3.878   6.618 -1.4536  3.0338 -0.2433
  175SAPI    HY19867   5.320   4.039   6.686 -0.3597  1.0555 -1.1305
  175SAPI   O3119868   5.417   3.878   6.790  0.4747 -0.0430  0.2213
  175SAPI   C3119869   5.321   3.841   6.871 -0.3942 -0.2265 -0.5481
  175SAPI   O3219870   5.203   3.847   6.843  0.5960  0.1308 -0.1233
  175SAPI   C3219871   5.383   3.776   6.996  0.1731 -0.2873 -0.1371
  175SAPI   H2X19872   5.492   3.799   7.005  0.3465 -1.2421  0.2856
  175SAPI   H2Y19873   5.362   3.667   6.986  1.2723 -0.5151 -0.1940
  175SAPI   C2319874   5.713   4.180   6.950 -0.0807  0.0025  0.8610
  175SAPI   H3R19875   5.631   4.147   7.017 -0.2180 -1.4434  0.0339
  175SAPI   H3S19876   5.693   4.283   6.914 -0.3702 -0.1912  0.4541
  175SAPI   C2419877   5.844   4.182   7.023 -0.0042 -0.1724  0.1428
  175SAPI   H4R19878   5.929   4.216   6.959 -1.3527 -0.5328 -1.9372
  175SAPI   H4S19879   5.870   4.076   7.046 -0.4513 -0.3737 -0.2564
  175SAPI   C2519880   5.859   4.271   7.138  0.3127  0.4464 -0.0201
  175SAPI   H5R19881   5.868   4.378   7.115 -0.2412  0.6619  0.7152
  175SAPI   C2619882   5.865   4.233   7.274  0.4026 -0.4758  0.7570
  175SAPI   H6R19883   5.879   4.317   7.344  0.3849  0.7826 -0.6984
  175SAPI   C2719884   5.852   4.093   7.333 -0.3206 -0.8549 -0.4937
  175SAPI   H7R19885   5.875   4.114   7.440 -1.2911 -0.9380 -0.2525
  175SAPI   H7S19886   5.930   4.028   7.288  1.5790  0.5688  0.6092
  175SAPI   C2819887   5.716   4.026   7.320  0.1086 -0.1585 -0.8218
  175SAPI   H8R19888   5.699   3.986   7.220 -2.2021  0.6226 -0.8036
  175SAPI   C2919889   5.615   4.016   7.411 -0.0169 -0.4108  0.1529
  175SAPI   H9R19890   5.526   3.957   7.384 -0.9146 -0.1218  2.2483
  175SAPI  C21019891   5.606   4.077   7.552  0.2121 -0.6925 -0.1599
  175SAPI  H10R19892   5.504   4.112   7.578  0.5254 -1.0033  1.5597
  175SAPI  H10S19893   5.670   4.167   7.563  1.1900 -1.3317 -0.4773
  175SAPI  C21119894   5.659   3.985   7.663  0.1252 -0.3052 -0.1792
  175SAPI  H11R19895   5.650   3.879   7.633  1.4071 -0.5542  0.2548
  175SAPI  C21219896   5.703   4.028   7.786 -0.2384 -0.1724  0.7322
  175SAPI  H12R19897   5.751   3.953   7.850 -0.0082 -0.4767  0.2126
  175SAPI  C21319898   5.712   4.168   7.841 -0.1459 -0.4910 -0.4565
  175SAPI  H13R19899   5.625   4.193   7.906  0.2388 -1.1443  0.3270
  175SAPI  H13S19900   5.688   4.242   7.762  0.8837 -3.4300 -3.8045
  175SAPI  C21419901   5.837   4.186   7.916 -0.3074  0.4679  0.8247
  175SAPI  H14R19902   5.917   4.237   7.860  0.6465  1.3325  2.8601
  175SAPI  C21519903   5.858   4.167   8.046 -0.5407  0.7222  0.0009
  175SAPI  H15R19904   5.955   4.201   8.086 -0.1038  0.4511 -0.7959
  175SAPI  C21619905   5.757   4.120   8.145 -0.0231 -0.1216  0.6360
  175SAPI  H16R19906   5.653   4.116   8.106 -0.0063 -0.9768  0.6744
  175SAPI  H16S19907   5.765   4.187   8.233 -2.6840  1.7737 -0.4123
  175SAPI  C21719908   5.779   3.980   8.204  0.4812  0.5051 -0.2942
  175SAPI  H17R19909   5.747   3.908   8.125  1.8375 -1.0401  0.5055
  175SAPI  H17S19910   5.698   3.972   8.280  0.0414 -0.4416 -0.8392
  175SAPI  C21819911   5.916   3.942   8.266 -0.7244  0.0570 -0.7017
  175SAPI  H18R19912   5.924   4.003   8.358 -2.9783 -0.3969 -0.1618
  175SAPI  H18S19913   5.998   3.956   8.192 -0.7892 -3.0498 -1.5031
  175SAPI  C21919914   5.926   3.792   8.285 -0.2359  0.0569 -0.9078
  175SAPI  H19R19915   5.911   3.752   8.183  0.9553  0.5923 -1.3106
  175SAPI  H19S19916   5.841   3.767   8.353 -2.3182 -1.5989 -3.8694
  175SAPI  C22019917   6.061   3.748   8.340 -0.8328 -0.1328 -0.4428
  175SAPI  H20R19918   6.053   3.705   8.441 -0.3616  0.7630 -0.0114
  175SAPI  H20S19919   6.139   3.827   8.349  2.1143 -2.8206 -0.9323
  175SAPI  H20T19920   6.106   3.669   8.276 -0.5505 -0.7206  0.4680
  175SAPI   C3319921   5.296   3.816   7.122 -0.1223 -0.4163 -0.1189
  175SAPI   H3X19922   5.189   3.785   7.113 -1.1345  2.5045  0.8643
  175SAPI   H3Y19923   5.299   3.926   7.129 -1.9114 -0.3726  0.6930
  175SAPI   C3419924   5.346   3.752   7.249 -0.8456  0.4618  0.3211
  175SAPI   H4X19925   5.455   3.773   7.249 -0.5873 -0.7281 -0.6310
  175SAPI   H4Y19926   5.341   3.641   7.244  1.7934  0.3238 -1.8059
  175SAPI   C3519927   5.282   3.798   7.374  1.1287  0.0640 -0.5515
  175SAPI   H5X19928   5.173   3.777   7.381  1.3312 -1.0749 -0.7421
  175SAPI   H5Y19929   5.291   3.909   7.374 -1.5325  0.3779  1.0927
  175SAPI   C3619930   5.355   3.748   7.497 -0.0026 -0.0651  0.1615
  175SAPI   H6X19931   5.463   3.770   7.480  0.4991 -2.1683  0.3519
  175SAPI   H6Y19932   5.339   3.638   7.505 -1.7725  0.1491  0.0035
  175SAPI   C3719933   5.319   3.812   7.628 -0.2519 -0.1671 -1.0137
  175SAPI   H7X19934   5.208   3.819   7.618 -0.4495 -0.8988  0.4702
  175SAPI   H7Y19935   5.356   3.916   7.640 -1.6422  0.2497 -0.1071
  175SAPI   C3819936   5.353   3.723   7.746  0.8721 -0.4097 -0.6770
  175SAPI   H8X19937   5.445   3.664   7.726  0.2683 -0.8062 -2.5018
  175SAPI   H8Y19938   5.280   3.641   7.761  0.1790  0.3989  0.4575
  175SAPI   C3919939   5.376   3.794   7.880 -0.5711  0.3834 -0.3414
  175SAPI   H9X19940   5.285   3.852   7.907 -1.1071 -1.1142  1.2315
  175SAPI   H9Y19941   5.465   3.860   7.891 -0.8207  0.3719  2.2096
  175SAPI  C31019942   5.388   3.706   8.004 -0.0897  0.2443  0.2024
  175SAPI  H10X19943   5.492   3.672   8.025  0.2499 -0.2362 -1.9375
  175SAPI  H10Y19944   5.329   3.616   7.981  0.8758  0.0048 -1.5332
  175SAPI  C31119945   5.336   3.774   8.131  0.7157  0.7008  0.0192
  175SAPI  H11X19946   5.231   3.808   8.118  0.5524  0.1759 -0.0363
  175SAPI  H11Y19947   5.395   3.866   8.153  1.0942  1.2020 -2.6488
  175SAPI  C31219948   5.337   3.677   8.250 -0.1419 -0.0643 -0.7197
  175SAPI  H12X19949   5.443   3.646   8.249 -0.2571 -0.4743 -0.6015
  175SAPI  H12Y19950   5.265   3.593   8.235 -1.7991  0.6489  2.3808
  175SAPI  C31319951   5.304   3.739   8.387  0.1020  0.1431  0.3211
  175SAPI  H13X19952   5.378   3.820   8.404  0.7364 -0.2577 -0.4682
  175SAPI  H13Y19953   5.320   3.663   8.466  1.6117  0.2617  0.1543
  175SAPI  C31419954   5.160   3.800   8.391  0.0892 -0.0606  0.7743
  175SAPI  H14X19955   5.105   3.723   8.334 -0.7858  1.9948 -1.3315
  175SAPI  H14Y19956   5.164   3.903   8.348 -0.8788 -0.3609 -0.0631
  175SAPI  C31519957   5.114   3.801   8.534 -0.1333 -0.2208  0.6978
  175SAPI  H15X19958   5.181   3.853   8.606  0.5389 -2.9556  2.1921
  175SAPI  H15Y19959   5.130   3.698   8.573  1.1833 -0.6548 -0.8563
  175SAPI  C31619960   4.961   3.838   8.552 -0.4212  0.4823 -0.1925
  175SAPI  H16X19961   4.942   3.833   8.661 -0.7374 -2.2992 -0.2924
  175SAPI  H16Y19962   4.905   3.757   8.499  3.0932 -0.8588 -2.2055
  175SAPI  C31719963   4.927   3.972   8.499  0.2663 -0.2732  0.1140
  175SAPI  H17X19964   4.947   3.970   8.389 -0.0527  3.3685 -0.1293
  175SAPI  H17Y19965   4.993   4.054   8.534  0.7868  0.4170 -2.2579
  175SAPI  C31819966   4.793   4.037   8.529 -0.7129  0.7578 -1.0280
  175SAPI  H18X19967   4.706   3.978   8.495 -0.7816 -0.4049  0.9743
  175SAPI  H18Y19968   4.785   4.137   8.482 -1.9717  0.2392 -1.9614
  175SAPI  H18Z19969   4.762   4.050   8.635 -1.8241 -0.0889 -1.2301
  176SAPI   C1219970   6.678   1.181   6.449 -0.2187 -0.6795  0.0694
  176SAPI    H219971   6.659   1.170   6.558  0.7296 -1.4541  0.1654
  176SAPI    O219972   6.684   1.057   6.393  0.7631  0.1919 -0.1275
  176SAPI   HO219973   6.763   1.019   6.432  2.8091  2.2050 -2.0291
  176SAPI   C1319974   6.555   1.255   6.401 -0.2386 -0.4748  0.2030
  176SAPI    H319975   6.552   1.351   6.458  0.4850  0.7213 -1.6747
  176SAPI    O319976   6.429   1.181   6.420 -0.4972 -0.0360 -0.0386
  176SAPI   HO319977   6.373   1.239   6.471 -1.0428  0.8616 -1.5825
  176SAPI   C1419978   6.566   1.301   6.259 -0.1038 -0.2428  0.1095
  176SAPI    H419979   6.581   1.211   6.196  0.2152  0.1916 -0.4483
  176SAPI    O419980   6.457   1.375   6.202  0.0561  0.7637 -0.2080
  176SAPI   HO419981   6.383   1.314   6.193  0.4850 -0.5093  3.3736
  176SAPI   C1519982   6.690   1.380   6.233  0.0453  0.1577 -0.4115
  176SAPI    H519983   6.687   1.476   6.287  0.7756  0.2707 -0.5547
  176SAPI    O519984   6.710   1.412   6.092  0.3393  0.2662  0.1019
  176SAPI   HO519985   6.806   1.421   6.085  0.6457  1.1168  3.5162
  176SAPI   C1619986   6.816   1.302   6.280  1.1187 -0.0598  0.3528
  176SAPI    H619987   6.821   1.207   6.222 -2.3306  0.6757 -1.3918
  176SAPI    O619988   6.931   1.385   6.262 -0.5847  0.2586 -0.1297
  176SAPI   HO619989   6.981   1.400   6.343  0.7192 -1.1608 -0.6146
  176SAPI   C1119990   6.805   1.268   6.426  0.4727  0.1958  0.2946
  176SAPI    H119991   6.798   1.354   6.496  0.7672 -2.2339  3.5733
  176SAPI     P19992   7.030   1.255   6.557 -0.2139  0.0914 -0.4920
  176SAPI   O1319993   7.092   1.362   6.470 -0.2451 -0.1099  0.4976
  176SAPI   O1419994   7.117   1.148   6.613  0.6078  0.3721 -0.3913
  176SAPI   O1219995   6.914   1.187   6.476 -0.5980  0.2934 -0.1818
  176SAPI   O1119996   6.952   1.318   6.678 -0.0698  0.1710  0.3182
  176SAPI    C119997   6.984   1.283   6.812 -0.1632 -0.4783  0.2748
  176SAPI    HA19998   7.094   1.268   6.821 -0.4941 -2.0426  2.4348
  176SAPI    HB19999   6.953   1.363   6.883 -2.0726 -1.1493  0.2379
  176SAPI    C220000   6.920   1.148   6.854  0.2550 -0.1325  0.4218
  176SAPI    HS20001   6.970   1.071   6.791  1.5202 -0.2157  1.4896
  176SAPI   O2120002   6.779   1.159   6.839  0.3979  0.2418  0.2660
  176SAPI   C2120003   6.719   1.037   6.829  0.0651 -0.7921  0.0581
  176SAPI   O2220004   6.773   0.929   6.824 -0.6187  0.3655 -0.3130
  176SAPI   C2220005   6.570   1.041   6.847  0.1974 -0.1886 -0.6009
  176SAPI   H2R20006   6.529   1.123   6.784  0.5174  1.4592  1.2201
  176SAPI   H2S20007   6.543   0.945   6.799  3.5673 -1.2700 -0.5923
  176SAPI    C320008   6.957   1.107   7.001  0.1085  0.2125 -0.3399
  176SAPI    HX20009   7.065   1.083   7.010  0.4161  1.3735 -0.7988
  176SAPI    HY20010   6.898   1.014   7.018  0.6773 -0.1501 -0.3073
  176SAPI   O3120011   6.930   1.207   7.092  0.3703 -0.4769  0.3241
  176SAPI   C3120012   6.881   1.169   7.212 -0.0113 -0.3071  0.3252
  176SAPI   O3220013   6.868   1.055   7.244  0.6016  0.2462 -0.3725
  176SAPI   C3220014   6.838   1.294   7.286  0.1548  0.2025  0.0740
  176SAPI   H2X20015   6.730   1.309   7.265  0.1958 -0.8174 -0.9733
  176SAPI   H2Y20016   6.906   1.376   7.254  2.1705 -1.0161  1.0500
  176SAPI   C2320017   6.537   1.080   6.992 -0.5760 -0.0489  0.7457
  176SAPI   H3R20018   6.432   1.116   7.002  0.2320  1.9809  2.9502
  176SAPI   H3S20019   6.603   1.167   7.012  0.1924 -0.4626  0.0903
  176SAPI   C2420020   6.567   0.970   7.090  0.2729 -0.2509  0.1407
  176SAPI   H4R20021   6.675   0.949   7.106  0.6456  0.8592 -0.7703
  176SAPI   H4S20022   6.519   0.877   7.053 -0.5329  0.3578 -0.3735
  176SAPI   C2520023   6.525   1.008   7.233  0.7594 -0.2337 -0.2597
  176SAPI   H5R20024   6.607   1.047   7.294  0.3426  0.7696 -0.3140
  176SAPI   C2620025   6.400   1.006   7.288  0.1912  0.6323  0.5096
  176SAPI   H6R20026   6.372   1.052   7.384  0.3330  0.9801  0.3872
  176SAPI   C2720027   6.283   0.960   7.207  0.1086 -0.2130 -0.0901
  176SAPI   H7R20028   6.301   0.858   7.168  0.2296 -0.5325  0.8002
  176SAPI   H7S20029   6.285   1.020   7.113  1.9627 -1.0389 -0.6285
  176SAPI   C2820030   6.141   0.971   7.257  0.4354  0.1333 -0.0544
  176SAPI   H8R20031   6.076   1.029   7.190  0.3858 -1.6888 -1.6826
  176SAPI   C2920032   6.093   0.948   7.380 -0.4741  0.2267  0.0765
  176SAPI   H9R20033   5.985   0.956   7.398 -0.6661 -1.0006 -0.4351
  176SAPI  C21020034   6.167   0.885   7.498 -0.0587  0.1911 -0.5649
  176SAPI  H10R20035   6.260   0.834   7.465 -0.4439 -0.7651 -0.1988
  176SAPI  H10S20036   6.089   0.813   7.529 -0.5644  1.1259  0.3678
  176SAPI  C21120037   6.207   0.979   7.617 -0.1352  0.0398  0.1437
  176SAPI  H11R20038   6.279   1.058   7.590 -1.7444  1.5617  0.1365
  176SAPI  C21220039   6.139   0.982   7.732  0.5458 -0.4586  0.0818
  176SAPI  H12R20040   6.187   1.036   7.816 -0.3040  2.4352 -1.1566
  176SAPI  C21320041   6.025   0.892   7.782  0.2089 -0.1943 -0.3733
  176SAPI  H13R20042   6.069   0.807   7.839  1.1268  0.8846  0.5575
  176SAPI  H13S20043   5.973   0.846   7.695 -1.1787  0.3704  0.1249
  176SAPI  C21420044   5.922   0.966   7.867 -0.3339 -0.0532 -0.1540
  176SAPI  H14R20045   5.843   1.023   7.815 -1.0328 -0.0589  0.8679
  176SAPI  C21520046   5.918   0.954   7.996  0.2244  0.3855  1.3329
  176SAPI  H15R20047   5.843   1.018   8.044 -2.8812 -1.9983  0.0302
  176SAPI  C21620048   6.019   0.887   8.080 -0.4106  0.2844  0.7744
  176SAPI  H16R20049   6.122   0.898   8.039 -0.2974  0.4041  1.0797
  176SAPI  H16S20050   5.986   0.781   8.085  0.2454  0.0928  1.2258
  176SAPI  C21720051   6.020   0.946   8.215  0.5149  0.3390 -0.2177
  176SAPI  H17R20052   5.915   0.942   8.252  1.4621 -0.7021  2.5683
  176SAPI  H17S20053   6.044   1.054   8.226 -0.5191  0.3579  3.0394
  176SAPI  C21820054   6.117   0.864   8.303  0.0646 -0.0079  0.4871
  176SAPI  H18R20055   6.212   0.862   8.246  1.6201  2.2811  2.7839
  176SAPI  H18S20056   6.084   0.759   8.315  2.4445 -0.9181 -0.4295
  176SAPI  C21920057   6.144   0.917   8.440 -0.7345 -0.2620  0.4793
  176SAPI  H19R20058   6.195   1.014   8.425 -1.1026 -0.0883  0.3271
  176SAPI  H19S20059   6.219   0.848   8.485 -0.1774  0.2031  0.2701
  176SAPI  C22020060   6.023   0.945   8.527 -0.1677 -0.4245  0.0468
  176SAPI  H20R20061   6.054   0.985   8.626 -2.0273 -1.6545  1.1904
  176SAPI  H20S20062   5.960   0.857   8.551 -0.3489 -0.3248 -0.0664
  176SAPI  H20T20063   5.961   1.025   8.481  0.6541  0.4580  0.4456
  176SAPI   C3320064   6.860   1.284   7.440  0.1569  0.5448  0.0116
  176SAPI   H3X20065   6.858   1.385   7.487 -2.8156  0.2910  0.5981
  176SAPI   H3Y20066   6.960   1.245   7.467 -0.3021  0.2083  1.2716
  176SAPI   C3420067   6.750   1.205   7.509  0.2100 -0.2501 -0.4407
  176SAPI   H4X20068   6.766   1.099   7.480  3.4278  0.4113 -1.4416
  176SAPI   H4Y20069   6.650   1.231   7.468 -0.2955 -1.0051  0.2731
  176SAPI   C3520070   6.746   1.217   7.662  0.0167 -0.4621  0.0100
  176SAPI   H5X20071   6.726   1.316   7.706  1.2647  1.2383 -2.9456
  176SAPI   H5Y20072   6.846   1.197   7.705  0.0853 -0.0912  0.0243
  176SAPI   C3620073   6.653   1.113   7.731 -0.3830 -0.4832  0.3747
  176SAPI   H6X20074   6.647   1.030   7.656 -1.6131  0.5656 -0.7397
  176SAPI   H6Y20075   6.557   1.168   7.739  0.8533  1.5564  2.0678
  176SAPI   C3720076   6.691   1.070   7.874 -0.5055 -0.5102  0.5288
  176SAPI   H7X20077   6.699   1.164   7.933  0.3209 -1.3685  1.8403
  176SAPI   H7Y20078   6.791   1.021   7.874 -0.6662 -0.8905 -0.9250
  176SAPI   C3820079   6.598   0.958   7.930  0.0953 -0.0355  0.0823
  176SAPI   H8X20080   6.611   0.876   7.856 -1.0609 -2.0973  2.0395
  176SAPI   H8Y20081   6.493   0.983   7.906 -0.6371 -1.1570  1.9411
  176SAPI   C3920082   6.619   0.915   8.072  0.1846 -0.3941 -0.3467
  176SAPI   H9X20083   6.723   0.877   8.083  0.4046 -0.9131 -3.3759
  176SAPI   H9Y20084   6.550   0.829   8.084  1.2064 -1.0724  0.9673
  176SAPI  C31020085   6.581   1.018   8.176  0.7410 -0.5294  0.6857
  176SAPI  H10X20086   6.483   1.065   8.153  1.5335  0.8805  0.0732
  176SAPI  H10Y20087   6.664   1.092   8.184 -0.2485  0.5436  1.3046
  176SAPI  C31120088   6.567   0.947   8.313  0.2751 -0.2650  0.4195
  176SAPI  H11X20089   6.658   0.883   8.320  1.3901  0.8222 -2.6457
  176SAPI  H11Y20090   6.474   0.886   8.314 -0.0902  0.2356  2.6819
  176SAPI  C31220091   6.574   1.042   8.429 -0.0060  0.6267  0.0051
  176SAPI  H12X20092   6.482   1.102   8.443 -1.1834 -0.4732 -2.4348
  176SAPI  H12Y20093   6.662   1.105   8.405 -0.2269  0.1972 -2.1040
  176SAPI  C31320094   6.600   0.977   8.567  0.1121 -0.0875  0.4522
  176SAPI  H13X20095   6.612   1.056   8.644 -4.3484  0.8288  0.4940
  176SAPI  H13Y20096   6.697   0.925   8.552 -0.6610 -0.9311 -2.0670
  176SAPI  C31420097   6.498   0.883   8.620 -0.2010 -0.1624  0.7436
  176SAPI  H14X20098   6.474   0.798   8.553 -0.5963  0.6562 -0.1596
  176SAPI  H14Y20099   6.407   0.940   8.646  0.4162  0.4452  1.6591
  176SAPI  C31520100   6.549   0.822   8.758 -0.4273  0.1009 -0.9533
  176SAPI  H15X20101   6.474   0.746   8.788 -2.9089  2.5005 -0.5809
  176SAPI  H15Y20102   6.548   0.897   8.841  2.7956 -1.2922  0.5322
  176SAPI  C31620103   6.685   0.748   8.750 -0.1854  0.0202  0.2663
  176SAPI  H16X20104   6.770   0.819   8.758  0.6592 -0.4558 -3.0609
  176SAPI  H16Y20105   6.704   0.706   8.649  0.9819 -1.9237  1.2099
  176SAPI  C31720106   6.705   0.639   8.858 -0.3049  0.7401  0.1042
  176SAPI  H17X20107   6.698   0.685   8.959 -0.7372 -1.0381  0.9199
  176SAPI  H17Y20108   6.811   0.605   8.860 -0.3847  0.4474 -0.4372
  176SAPI  C31820109   6.618   0.519   8.832 -0.5804 -0.4892 -0.1347
  176SAPI  H18X20110   6.639   0.435   8.902  3.1841 -1.2823 -1.9472
  176SAPI  H18Y20111   6.644   0.492   8.727  0.0437 -0.4402  0.0035
  176SAPI  H18Z20112   6.513   0.555   8.837  0.5438  3.4483 -1.3263
  177SLPC     N20113   6.158   4.552  10.667  0.2061 -0.6455 -0.1749
  177SLPC   C1320114   6.263   4.631  10.600 -0.7880 -0.2922 -0.0221
  177SLPC  H13A20115   6.344   4.568  10.567  0.4491 -0.1618  2.5637
  177SLPC  H13B20116   6.233   4.695  10.518 -1.5514 -1.9504 -1.1114
  177SLPC  H13C20117   6.312   4.700  10.666  1.2554 -1.0564 -0.6809
  177SLPC   C1420118   6.223   4.519  10.795  0.2378  0.6298 -0.7987
  177SLPC  H14A20119   6.256   4.612  10.839  0.8432  0.6752 -1.3233
  177SLPC  H14B20120   6.160   4.465  10.863 -0.3696  0.7009 -1.2887
  177SLPC  H14C20121   6.312   4.462  10.772 -1.0672 -2.1954  0.7162
  177SLPC   C1520122   6.125   4.435  10.583 -0.8080 -0.1732 -0.0367
  177SLPC  H15A20123   6.078   4.466  10.490  0.1278  2.1475  0.1972
  177SLPC  H15B20124   6.210   4.375  10.554  0.7248  0.5985  2.5545
  177SLPC  H15C20125   6.049   4.376  10.631 -1.1143 -0.8448 -1.2906
  177SLPC   C1220126   6.026   4.629  10.697 -0.5840  0.7126 -0.3733
  177SLPC  H12A20127   5.948   4.563  10.733 -0.7804  0.5767 -1.0228
  177SLPC  H12B20128   5.990   4.672  10.604 -2.4441  3.9029  1.6227
  177SLPC   C1120129   6.028   4.761  10.786 -0.3746  0.1176 -0.6746
  177SLPC  H11A20130   6.053   4.722  10.887 -0.6845  0.3938 -0.4895
  177SLPC  H11B20131   5.927   4.806  10.784 -1.4783 -1.9450  1.9150
  177SLPC     P20132   6.126   4.992  10.822  0.0724  0.0852 -0.0532
  177SLPC   O1320133   6.004   4.989  10.911  0.0293  0.0078  0.2435
  177SLPC   O1420134   6.255   5.043  10.878 -0.8612 -0.1764  0.5510
  177SLPC   O1220135   6.142   4.855  10.754  0.1466 -0.4309 -0.2539
  177SLPC   O1120136   6.092   5.089  10.696 -0.4626 -1.0252 -0.3212
  177SLPC    C120137   5.999   5.046  10.595  0.7631 -0.3193  0.2825
  177SLPC    HA20138   5.917   4.978  10.627  0.0530 -0.3053 -1.4185
  177SLPC    HB20139   5.951   5.138  10.554  3.2396  0.9533  0.0742
  177SLPC    C220140   6.071   4.965  10.480  0.0445 -0.6172  0.0981
  177SLPC    HS20141   6.136   4.888  10.528  2.0839  0.9427 -0.0565
  177SLPC   O2120142   6.151   5.061  10.408 -0.1677  0.2854 -0.0556
  177SLPC   C2120143   6.259   5.000  10.340 -0.0537 -0.6873 -0.6646
  177SLPC   O2220144   6.305   4.894  10.374  0.3453  0.2308  0.3384
  177SLPC   C2220145   6.305   5.105  10.247 -0.4160  0.4678 -0.0708
  177SLPC   H2R20146   6.228   5.169  10.200 -3.5795 -1.4266  2.2066
  177SLPC   H2S20147   6.371   5.175  10.303 -1.1103  0.0781  1.2768
  177SLPC    C320148   5.968   4.893  10.399  0.1829 -0.0191  1.1297
  177SLPC    HX20149   5.890   4.970  10.381 -0.2847 -1.1051 -2.1154
  177SLPC    HY20150   5.915   4.819  10.463 -0.4962 -0.5780 -0.0392
  177SLPC   O3120151   6.009   4.845  10.268 -0.3712  0.4679 -0.4763
  177SLPC   C3120152   6.033   4.715  10.263 -0.0018 -0.0611  0.5469
  177SLPC   O3220153   5.994   4.632  10.345  0.1671 -0.6223  0.1988
  177SLPC   C3220154   6.077   4.668  10.127  1.1472 -0.5727  0.4836
  177SLPC   H2X20155   6.124   4.751  10.070 -1.8023 -0.4447 -2.0180
  177SLPC   H2Y20156   5.983   4.637  10.077  1.1840 -1.3972  0.9081
  177SLPC   C2320157   6.396   5.046  10.134 -0.3048 -0.2252 -0.5908
  177SLPC   H3R20158   6.450   4.954  10.163 -2.6255 -1.8655 -1.2099
  177SLPC   H3S20159   6.468   5.125  10.101 -0.0142 -0.9052 -1.6439
  177SLPC   C2420160   6.319   5.003  10.006  0.5432  0.3821 -0.2678
  177SLPC   H4R20161   6.248   4.927  10.046 -0.5262  1.9113  0.8840
  177SLPC   H4S20162   6.386   4.949   9.937  0.1820 -0.7199  0.2170
  177SLPC   C2520163   6.228   5.104   9.947 -0.1435 -0.5130 -0.3245
  177SLPC   H5R20164   6.294   5.192   9.932  1.0281 -1.4924 -1.1631
  177SLPC   H5S20165   6.150   5.140  10.017  1.4182  0.5141  0.9652
  177SLPC   C2620166   6.169   5.066   9.809  0.0788  0.8983  0.0533
  177SLPC   H6R20167   6.100   5.151   9.786 -1.1702  0.1185  0.7917
  177SLPC   H6S20168   6.104   4.976   9.817  1.1184  0.2065  0.8824
  177SLPC   C2720169   6.270   5.039   9.696 -0.1049  1.6065 -0.5759
  177SLPC   H7R20170   6.216   4.985   9.616  0.6902 -1.0995  0.6115
  177SLPC   H7S20171   6.343   4.964   9.734 -1.1859  1.4466  1.3182
  177SLPC   C2820172   6.342   5.165   9.647  0.1209 -0.0373 -0.7404
  177SLPC   H8R20173   6.414   5.192   9.728 -0.6707  1.9910 -0.6469
  177SLPC   H8S20174   6.278   5.256   9.652  0.0667 -0.1421  2.2134
  177SLPC   C2920175   6.415   5.141   9.515 -0.2920 -0.1161  0.2768
  177SLPC   H9R20176   6.493   5.064   9.508 -1.1921 -0.8963 -3.5524
  177SLPC  C21020177   6.388   5.205   9.397  0.3420  0.0262 -0.1002
  177SLPC  H10R20178   6.429   5.165   9.303 -2.7327  0.8174 -1.9149
  177SLPC  C21120179   6.290   5.315   9.377 -0.1539 -0.4975 -0.4604
  177SLPC  H11R20180   6.260   5.362   9.473 -0.3562  0.4232 -0.9655
  177SLPC  H11S20181   6.350   5.391   9.324 -1.0651 -0.8761 -2.0949
  177SLPC  C21220182   6.160   5.274   9.308 -0.0823 -0.1336  0.0907
  177SLPC  H12R20183   6.076   5.264   9.378  0.4911  1.4708  1.0584
  177SLPC  C21320184   6.147   5.249   9.176  0.4627 -0.0276  0.2425
  177SLPC  H13R20185   6.047   5.234   9.131  0.4463  1.7544 -0.4308
  177SLPC  C21420186   6.248   5.258   9.060  0.0900 -0.2884 -0.5922
  177SLPC  H14R20187   6.342   5.199   9.066  1.9569  2.3887 -1.7363
  177SLPC  H14S20188   6.286   5.362   9.057 -1.2467  0.2138 -0.7623
  177SLPC  C21520189   6.180   5.233   8.922  0.2695  0.1486 -0.2162
  177SLPC  H15R20190   6.140   5.131   8.936  0.5947  0.1243  0.5468
  177SLPC  H15S20191   6.251   5.227   8.836 -2.4474  2.3413 -2.8608
  177SLPC  C21620192   6.073   5.333   8.890 -0.4625  0.4798  0.2006
  177SLPC  H16R20193   6.119   5.433   8.872  3.5297 -1.5132 -2.2448
  177SLPC  H16S20194   6.007   5.335   8.979  1.7932 -0.0923  1.9810
  177SLPC  C21720195   5.991   5.299   8.763 -0.0702 -0.4364 -0.4829
  177SLPC  H17R20196   6.041   5.328   8.668 -0.2867  0.5985 -0.2987
  177SLPC  H17S20197   5.908   5.373   8.770  1.2684  0.9712  1.7979
  177SLPC  C21820198   5.940   5.154   8.759 -0.3255  0.7236  0.2101
  177SLPC  H18R20199   5.894   5.116   8.853  2.2979 -2.5485  0.3565
  177SLPC  H18S20200   6.027   5.089   8.737 -0.3539 -0.0072  2.0449
  177SLPC  H18T20201   5.872   5.136   8.673 -0.5008 -0.3130  0.5493
  177SLPC   C3320202   6.145   4.529  10.137 -0.0085  0.4952  0.3597
  177SLPC   H3X20203   6.151   4.484  10.036  0.2899 -1.9004  1.3717
  177SLPC   H3Y20204   6.081   4.465  10.201  1.8588 -0.1360  1.6956
  177SLPC   C3420205   6.290   4.523  10.199  0.4213  0.8662  0.0457
  177SLPC   H4X20206   6.310   4.416  10.221 -1.5071  0.5265  0.3364
  177SLPC   H4Y20207   6.290   4.566  10.301  0.7970 -0.2381  0.5280
  177SLPC   C3520208   6.397   4.586  10.108  0.0757 -0.2271 -0.4003
  177SLPC   H5X20209   6.490   4.566  10.165 -0.9843 -2.8363  0.6066
  177SLPC   H5Y20210   6.390   4.697  10.105  0.3620 -0.2032 -0.2135
  177SLPC   C3620211   6.402   4.532   9.967 -0.4606 -0.8324 -0.2165
  177SLPC   H6X20212   6.359   4.430   9.970 -0.8077 -0.7101 -0.8973
  177SLPC   H6Y20213   6.511   4.523   9.943 -1.1015 -2.0282 -3.0671
  177SLPC   C3720214   6.347   4.615   9.853  0.6061  0.0164 -0.3742
  177SLPC   H7X20215   6.399   4.714   9.858  0.2158  0.1710  0.8529
  177SLPC   H7Y20216   6.238   4.631   9.866  0.1893 -0.3933 -2.9256
  177SLPC   C3820217   6.368   4.542   9.716 -1.0934 -0.0632 -0.1450
  177SLPC   H8X20218   6.336   4.436   9.719 -1.7740  0.1590  2.1265
  177SLPC   H8Y20219   6.479   4.537   9.705 -1.3462 -3.1497 -2.8174
  177SLPC   C3920220   6.289   4.608   9.609 -0.3439 -0.4741  0.7456
  177SLPC   H9X20221   6.299   4.718   9.611 -1.2124 -0.3518 -0.4173
  177SLPC   H9Y20222   6.182   4.589   9.630 -1.0402  0.2086 -1.9032
  177SLPC  C31020223   6.325   4.552   9.465  0.6163  0.1645  0.1769
  177SLPC  H10X20224   6.304   4.443   9.459 -0.8482  0.5123 -3.1893
  177SLPC  H10Y20225   6.430   4.554   9.428 -0.0290 -0.1728 -1.7542
  177SLPC  C31120226   6.240   4.621   9.356 -0.7641 -0.1177  0.4104
  177SLPC  H11X20227   6.265   4.729   9.365  0.2676 -0.2290 -0.8516
  177SLPC  H11Y20228   6.131   4.612   9.376 -1.1206  1.7527 -0.4631
  177SLPC  C31220229   6.270   4.577   9.208  0.5294 -0.1329 -0.6468
  177SLPC  H12X20230   6.190   4.625   9.148  1.1420 -1.5713 -2.7001
  177SLPC  H12Y20231   6.255   4.469   9.189 -0.1224 -0.4324  1.3883
  177SLPC  C31320232   6.407   4.612   9.154 -0.5803  0.9718  0.2599
  177SLPC  H13X20233   6.483   4.564   9.220 -1.6523 -4.1825 -1.7855
  177SLPC  H13Y20234   6.418   4.721   9.142  4.0648  0.5657 -1.1771
  177SLPC  C31420235   6.426   4.551   9.016  0.0365  0.0115  0.2513
  177SLPC  H14X20236   6.399   4.444   9.013  1.7255 -0.4333  0.2580
  177SLPC  H14Y20237   6.535   4.555   8.998 -0.0628  1.9838 -0.1644
  177SLPC  C31520238   6.345   4.623   8.901 -0.3717  0.4227  0.1366
  177SLPC  H15X20239   6.369   4.731   8.904  0.8552  0.1632  0.3099
  177SLPC  H15Y20240   6.235   4.617   8.915 -0.5635 -1.6417 -1.7559
  177SLPC  C31620241   6.332   4.558   8.762  0.2330  0.2635  0.1131
  177SLPC  H16X20242   6.312   4.450   8.779  2.3953 -0.5235 -1.7239
  177SLPC  H16Y20243   6.432   4.557   8.713 -0.0698 -0.7050 -0.5132
  177SLPC  C31720244   6.231   4.635   8.680 -0.2407  0.5158  0.1513
  177SLPC  H17X20245   6.247   4.745   8.678 -1.6877  0.7489  0.5881
  177SLPC  H17Y20246   6.134   4.612   8.728 -0.2016  1.3683  0.6473
  177SLPC  C31820247   6.221   4.595   8.529 -0.1657 -0.3812  0.0557
  177SLPC  H18X20248   6.324   4.605   8.488 -1.1051  0.0841 -2.3426
  177SLPC  H18Y20249   6.153   4.659   8.468  0.5520  0.8660  0.5397
  177SLPC  H18Z20250   6.188   4.489   8.522 -0.4651 -0.3817  1.1894
  178SLPC     N20251   0.741   2.358  11.037 -0.1316 -0.7689  1.2942
  178SLPC   C1320252   0.863   2.410  11.105  0.0094 -0.2863  0.3528
  178SLPC  H13A20253   0.837   2.499  11.161  0.9290 -0.5531  1.2475
  178SLPC  H13B20254   0.893   2.330  11.172 -4.2571 -0.6511  2.1761
  178SLPC  H13C20255   0.949   2.421  11.040 -0.4283 -2.0467 -0.5936
  178SLPC   C1420256   0.684   2.470  10.956 -0.6924  0.4535 -0.1358
  178SLPC  H14A20257   0.753   2.539  10.909 -0.6084  1.5739  1.5630
  178SLPC  H14B20258   0.615   2.428  10.883 -1.2258 -2.4293  1.8688
  178SLPC  H14C20259   0.633   2.537  11.023 -0.8563 -1.5915  1.8754
  178SLPC   C1520260   0.639   2.304  11.137 -0.1257 -0.8233  0.1284
  178SLPC  H15A20261   0.609   2.387  11.199 -0.4998 -0.2542 -0.7788
  178SLPC  H15B20262   0.556   2.256  11.086  0.4807 -1.7157 -0.0340
  178SLPC  H15C20263   0.681   2.233  11.206  0.6510 -0.8836 -0.3945
  178SLPC   C1220264   0.792   2.243  10.941  0.7654  0.0252  0.3948
  178SLPC  H12A20265   0.833   2.160  10.998  2.5220 -0.1717 -1.0838
  178SLPC  H12B20266   0.874   2.285  10.886  0.3509  0.5274  0.1534
  178SLPC   C1120267   0.685   2.162  10.866  0.1289  0.3502 -0.2542
  178SLPC  H11A20268   0.721   2.096  10.784  0.0179 -2.1208  1.5814
  178SLPC  H11B20269   0.641   2.242  10.803  0.0577 -0.2671 -0.9996
  178SLPC     P20270   0.637   1.969  11.007  0.1738 -0.0560  0.5618
  178SLPC   O1320271   0.765   1.982  11.083  0.0907 -0.0022 -0.4732
  178SLPC   O1420272   0.530   1.906  11.074 -0.3135  0.2655  0.4189
  178SLPC   O1220273   0.591   2.110  10.962  0.1771 -0.1605  0.5568
  178SLPC   O1120274   0.662   1.892  10.877 -0.1215 -0.2136  0.1299
  178SLPC    C120275   0.575   1.880  10.775  0.5314  0.7190 -0.1604
  178SLPC    HA20276   0.468   1.905  10.794  0.5285  0.2797  0.4308
  178SLPC    HB20277   0.607   1.946  10.692  1.3566 -1.8512 -1.9894
  178SLPC    C220278   0.590   1.742  10.718  0.0089 -0.0277 -0.5227
  178SLPC    HS20279   0.569   1.669  10.798  0.3104 -0.2710 -0.6597
  178SLPC   O2120280   0.723   1.722  10.662  0.5010  0.4521  0.2955
  178SLPC   C2120281   0.753   1.594  10.626 -0.0620 -0.1954  0.0662
  178SLPC   O2220282   0.689   1.493  10.641 -0.0145 -0.3326  0.2971
  178SLPC   C2220283   0.889   1.609  10.555 -0.6255  0.9732  0.3472
  178SLPC   H2R20284   0.874   1.650  10.452  1.5157 -0.2624 -0.5304
  178SLPC   H2S20285   0.958   1.667  10.619 -0.0537 -0.3222  0.9507
  178SLPC    C320286   0.482   1.718  10.602  0.5984  0.4059 -0.7599
  178SLPC    HX20287   0.387   1.740  10.655 -0.3437 -0.1880 -2.1523
  178SLPC    HY20288   0.475   1.612  10.570  1.3761 -0.6908  2.3223
  178SLPC   O3120289   0.484   1.817  10.496 -0.3149  0.3344 -0.9019
  178SLPC   C3120290   0.542   1.783  10.383 -0.3672 -0.2507 -0.1330
  178SLPC   O3220291   0.584   1.669  10.362 -0.5854  0.1589  0.5101
  178SLPC   C3220292   0.566   1.912  10.290  0.6335  0.2377 -0.1862
  178SLPC   H2X20293   0.612   1.987  10.357  2.2279 -2.1768  1.6327
  178SLPC   H2Y20294   0.471   1.962  10.261  1.7786  2.0115 -1.0637
  178SLPC   C2320295   0.955   1.470  10.532 -0.6009  0.2721 -0.3144
  178SLPC   H3R20296   0.931   1.403  10.618  2.7701  0.0974  0.6454
  178SLPC   H3S20297   1.065   1.484  10.544 -0.7541  0.0822  1.5633
  178SLPC   C2420298   0.930   1.413  10.393  0.3102 -0.0612 -0.2355
  178SLPC   H4R20299   0.820   1.405  10.377  0.4249 -0.9183 -0.6821
  178SLPC   H4S20300   0.970   1.309  10.391  2.8504  0.8092 -3.0875
  178SLPC   C2520301   0.996   1.478  10.271  0.4313  0.0197 -0.7428
  178SLPC   H5R20302   1.100   1.508  10.296 -0.2398 -0.3683  3.0651
  178SLPC   H5S20303   0.937   1.567  10.242 -2.1655 -2.5117 -4.2475
  178SLPC   C2620304   0.995   1.385  10.146  1.0641 -0.2549  0.4865
  178SLPC   H6R20305   1.081   1.315  10.150  0.3135 -1.2632 -0.6151
  178SLPC   H6S20306   1.003   1.460  10.065 -2.6052 -1.4596 -1.2343
  178SLPC   C2720307   0.868   1.310  10.134  0.4406  0.2327  0.0405
  178SLPC   H7R20308   0.782   1.379  10.141  0.3183  0.0676  0.1817
  178SLPC   H7S20309   0.844   1.238  10.216  0.8057 -0.6533 -0.6039
  178SLPC   C2820310   0.858   1.225  10.009 -0.0145 -0.3049 -0.1062
  178SLPC   H8R20311   0.884   1.287   9.921 -0.8037 -3.0118 -2.4166
  178SLPC   H8S20312   0.759   1.176  10.009  0.7888 -2.0186  0.2067
  178SLPC   C2920313   0.964   1.118  10.032  0.5102  1.0032  0.1324
  178SLPC   H9R20314   0.981   1.097  10.139  2.7086 -0.7470 -0.4717
  178SLPC  C21020315   1.057   1.076   9.945 -0.0463 -0.1430  0.1210
  178SLPC  H10R20316   1.134   1.004   9.977  0.2638 -0.7650 -1.8831
  178SLPC  C21120317   1.073   1.128   9.798 -0.0067  0.3150  0.1704
  178SLPC  H11R20318   1.184   1.139   9.792 -0.1178  1.5444  0.2039
  178SLPC  H11S20319   1.017   1.221   9.774 -0.2629  0.8949  2.7521
  178SLPC  C21220320   1.020   1.035   9.689  0.0496 -0.2361  0.2447
  178SLPC  H12R20321   0.923   0.989   9.711 -0.1148 -0.5315 -1.0085
  178SLPC  C21320322   1.059   1.009   9.565 -0.5803 -0.5312 -0.3908
  178SLPC  H13R20323   1.012   0.927   9.509  1.0182  0.4056 -3.3008
  178SLPC  C21420324   1.178   1.072   9.500  0.3506 -0.5905 -0.0016
  178SLPC  H14R20325   1.255   1.107   9.573  1.5302 -1.8776 -0.5796
  178SLPC  H14S20326   1.157   1.162   9.439  2.0877  0.6733  1.1344
  178SLPC  C21520327   1.253   0.970   9.415 -0.1841  0.0835 -0.7175
  178SLPC  H15R20328   1.333   1.021   9.358  0.5200  1.6621  1.5266
  178SLPC  H15S20329   1.186   0.926   9.338  2.2108 -0.7799 -2.4340
  178SLPC  C21620330   1.317   0.851   9.501 -0.6821 -0.2612  0.3422
  178SLPC  H16R20331   1.252   0.830   9.589  1.2679  1.4514  2.3289
  178SLPC  H16S20332   1.416   0.894   9.528 -1.3465  0.8925  1.0375
  178SLPC  C21720333   1.324   0.722   9.425 -0.2641  0.7214 -0.1330
  178SLPC  H17R20334   1.223   0.715   9.379  0.9562 -0.6308 -2.8395
  178SLPC  H17S20335   1.340   0.645   9.504  2.9217  0.7142 -0.6429
  178SLPC  C21820336   1.427   0.716   9.312  0.4734 -0.6495 -0.6717
  178SLPC  H18R20337   1.443   0.612   9.276  0.8296 -1.4998  1.7621
  178SLPC  H18S20338   1.521   0.763   9.345  0.6375 -0.9639 -0.6921
  178SLPC  H18T20339   1.391   0.785   9.233  1.9034  2.0510  0.9255
  178SLPC   C3320340   0.653   1.888  10.173  0.0659  0.2859  0.0799
  178SLPC   H3X20341   0.742   1.826  10.201  1.0072  0.4403 -2.3429
  178SLPC   H3Y20342   0.696   1.984  10.139 -1.5033  1.4265  1.1906
  178SLPC   C3420343   0.571   1.815  10.063 -0.0440 -0.3302 -0.6855
  178SLPC   H4X20344   0.489   1.889  10.044 -0.3302 -0.2086  0.9157
  178SLPC   H4Y20345   0.523   1.727  10.110  1.0453  0.8039  2.8480
  178SLPC   C3520346   0.647   1.767   9.942  0.4044 -0.6421  1.0082
  178SLPC   H5X20347   0.673   1.859   9.886 -2.2291 -0.1599  0.4465
  178SLPC   H5Y20348   0.568   1.713   9.885  0.2178  2.4196 -1.8830
  178SLPC   C3620349   0.762   1.679   9.975  0.0397 -0.1810 -0.2013
  178SLPC   H6X20350   0.733   1.586  10.029  1.2905 -0.1208  0.6195
  178SLPC   H6Y20351   0.822   1.742  10.044 -2.0388  1.8483 -0.1209
  178SLPC   C3720352   0.853   1.651   9.852  0.7858 -0.1791  0.5086
  178SLPC   H7X20353   0.946   1.615   9.901 -0.5750 -0.5753  2.9663
  178SLPC   H7Y20354   0.866   1.749   9.801  0.2607  0.8709  2.2781
  178SLPC   C3820355   0.792   1.547   9.759  0.2866 -0.2723  0.0752
  178SLPC   H8X20356   0.710   1.583   9.692 -0.2397 -2.0889 -0.3239
  178SLPC   H8Y20357   0.748   1.463   9.816 -0.6534 -1.6886 -2.5544
  178SLPC   C3920358   0.901   1.500   9.663 -0.0707  0.3460 -0.2102
  178SLPC   H9X20359   0.980   1.441   9.715 -1.5567 -0.6058  1.0561
  178SLPC   H9Y20360   0.949   1.586   9.611  1.4124 -0.8112 -0.8396
  178SLPC  C31020361   0.831   1.401   9.571 -0.4168  0.0851  0.7090
  178SLPC  H10X20362   0.735   1.437   9.528  0.0293 -0.0763 -0.4512
  178SLPC  H10Y20363   0.799   1.308   9.623 -0.8446  1.5822  3.2957
  178SLPC  C31120364   0.916   1.365   9.445  0.6059 -1.1919 -0.4786
  178SLPC  H11X20365   1.014   1.328   9.483  0.7190 -0.7218 -0.2950
  178SLPC  H11Y20366   0.936   1.461   9.393 -1.8201 -0.8808 -0.9707
  178SLPC  C31220367   0.849   1.263   9.354  0.6760  0.8980 -0.9215
  178SLPC  H12X20368   0.749   1.303   9.325  0.3374  0.2400 -0.6766
  178SLPC  H12Y20369   0.820   1.177   9.417  0.2609  0.7525 -1.3059
  178SLPC  C31320370   0.918   1.227   9.224  0.2856  0.1534  0.2726
  178SLPC  H13X20371   0.846   1.159   9.172  1.8706 -0.0934 -1.6961
  178SLPC  H13Y20372   1.011   1.173   9.254 -0.6602 -0.6428  1.9932
  178SLPC  C31420373   0.953   1.347   9.140 -0.0285  0.3511  0.4489
  178SLPC  H14X20374   1.042   1.391   9.189 -1.5882  2.6166  1.3911
  178SLPC  H14Y20375   0.869   1.419   9.132  0.3691  0.7665 -0.1114
  178SLPC  C31520376   0.986   1.313   8.994 -0.6777  0.2033  0.0403
  178SLPC  H15X20377   1.057   1.388   8.955  0.7202 -1.2869 -0.3821
  178SLPC  H15Y20378   1.046   1.220   8.993 -2.2707 -0.8778 -0.0294
  178SLPC  C31620379   0.861   1.281   8.909  0.5235  0.8922 -0.2698
  178SLPC  H16X20380   0.798   1.371   8.913  0.1568  0.6029  2.0597
  178SLPC  H16Y20381   0.809   1.194   8.954  0.9943  0.3862 -0.6822
  178SLPC  C31720382   0.902   1.239   8.767  0.8641  0.7969  0.0608
  178SLPC  H17X20383   0.979   1.160   8.778  0.2472 -0.0270 -1.1973
  178SLPC  H17Y20384   0.943   1.327   8.712  1.7092 -1.7381 -3.7686
  178SLPC  C31820385   0.783   1.190   8.680 -0.5604 -0.1799  0.1062
  178SLPC  H18X20386   0.726   1.111   8.734  1.9041 -2.7182 -0.7434
  178SLPC  H18Y20387   0.811   1.159   8.577 -0.4718 -1.5520  0.5296
  178SLPC  H18Z20388   0.710   1.273   8.669  2.6880  2.9395  0.1904
  179SLPC     N20389   3.325   3.297  11.098 -0.6262 -0.0126 -0.4993
  179SLPC   C1320390   3.274   3.314  11.237 -0.0008  0.0643 -0.0562
  179SLPC  H13A20391   3.315   3.402  11.285 -2.4915  0.8690  0.7539
  179SLPC  H13B20392   3.166   3.316  11.236 -0.0351 -0.9227 -1.3206
  179SLPC  H13C20393   3.305   3.234  11.302  0.5034 -0.4287 -0.8813
  179SLPC   C1420394   3.252   3.195  11.020 -0.3680 -0.1584 -0.2910
  179SLPC  H14A20395   3.276   3.093  11.049 -1.9428 -0.0062  1.7638
  179SLPC  H14B20396   3.151   3.214  11.053  0.0843 -0.3617  1.3355
  179SLPC  H14C20397   3.258   3.201  10.913  0.4436 -0.5074 -0.2748
  179SLPC   C1520398   3.473   3.261  11.106  0.6641  0.5259 -0.7089
  179SLPC  H15A20399   3.481   3.170  11.163 -0.8982  0.9391  0.2114
  179SLPC  H15B20400   3.515   3.262  11.006 -2.8969  2.1802 -2.3735
  179SLPC  H15C20401   3.522   3.330  11.173 -0.8188  0.8785  0.0533
  179SLPC   C1220402   3.318   3.434  11.023  0.5647  0.2882 -0.1886
  179SLPC  H12A20403   3.357   3.513  11.085 -2.0295  0.0133  1.9892
  179SLPC  H12B20404   3.213   3.454  11.003  0.4428 -1.7083 -2.0258
  179SLPC   C1120405   3.370   3.436  10.880  0.3069 -0.2956 -1.0065
  179SLPC  H11A20406   3.473   3.395  10.881 -0.2727 -1.8669  0.9359
  179SLPC  H11B20407   3.387   3.541  10.848  0.9621 -0.2338 -0.4867
  179SLPC     P20408   3.138   3.409  10.745 -0.0455 -0.0357 -0.2491
  179SLPC   O1320409   3.090   3.326  10.631  0.5465 -1.0992 -0.6129
  179SLPC   O1420410   3.056   3.417  10.868 -0.1291  0.0056 -0.0207
  179SLPC   O1220411   3.287   3.354  10.791 -0.3498  0.4751 -0.0823
  179SLPC   O1120412   3.168   3.559  10.699 -0.1052  0.1801 -0.0361
  179SLPC    C120413   3.249   3.589  10.592 -0.4191  0.5109 -0.0344
  179SLPC    HA20414   3.319   3.668  10.626  0.5678  0.5156 -1.9505
  179SLPC    HB20415   3.311   3.505  10.555 -1.2885  0.0553 -0.4844
  179SLPC    C220416   3.176   3.646  10.471  0.4418 -0.8837  0.2499
  179SLPC    HS20417   3.091   3.703  10.514  1.1302 -0.5072  1.1406
  179SLPC   O2120418   3.130   3.532  10.388  0.3055  0.1205  0.2012
  179SLPC   C2120419   3.000   3.498  10.392 -0.9355 -0.2915  0.1764
  179SLPC   O2220420   2.910   3.571  10.424 -0.0899  0.1880 -0.1630
  179SLPC   C2220421   2.984   3.355  10.337  0.2105 -1.5281 -0.0745
  179SLPC   H2R20422   3.081   3.304  10.351  1.6438  0.3023 -2.5494
  179SLPC   H2S20423   2.900   3.303  10.389 -0.4341 -0.6319 -0.1896
  179SLPC    C320424   3.257   3.741  10.381 -0.0711 -0.3304  0.1288
  179SLPC    HX20425   3.353   3.692  10.354  0.8280  1.9433 -1.0883
  179SLPC    HY20426   3.279   3.832  10.440  0.2102  0.4437 -1.1464
  179SLPC   O3120427   3.180   3.785  10.269 -0.1914  0.1760  0.4835
  179SLPC   C3120428   3.183   3.702  10.170  0.2789 -0.0096 -0.1833
  179SLPC   O3220429   3.260   3.609  10.154 -0.2204  1.0143 -0.6506
  179SLPC   C3220430   3.066   3.738  10.074 -0.0775  0.3355  0.1819
  179SLPC   H2X20431   3.029   3.838  10.105  2.6539  2.1456 -1.9101
  179SLPC   H2Y20432   2.979   3.677  10.106  0.2044  0.5704  1.4688
  179SLPC   C2320433   2.959   3.354  10.190  0.3610  0.4119  0.5025
  179SLPC   H3R20434   2.968   3.249  10.154  1.3313  1.3569 -2.2598
  179SLPC   H3S20435   3.044   3.406  10.143  1.1299 -1.0086  0.2606
  179SLPC   C2420436   2.830   3.428  10.143  0.2113  0.1803  0.1731
  179SLPC   H4R20437   2.845   3.537  10.158  1.2094  0.0423  0.2443
  179SLPC   H4S20438   2.748   3.383  10.202 -0.8870  0.3311 -1.1804
  179SLPC   C2520439   2.807   3.401   9.998  0.0442 -1.1968  0.4773
  179SLPC   H5R20440   2.767   3.298   9.988  1.9184 -1.7754 -2.0262
  179SLPC   H5S20441   2.907   3.394   9.950  1.4207  0.1213  2.9277
  179SLPC   C2620442   2.722   3.508   9.939 -0.1340  0.1179  0.0056
  179SLPC   H6R20443   2.790   3.595   9.921 -0.9118  1.5211  3.2385
  179SLPC   H6S20444   2.654   3.534  10.022  0.1248 -0.1518  0.3009
  179SLPC   C2720445   2.651   3.477   9.811  0.6009  0.8559 -0.3653
  179SLPC   H7R20446   2.582   3.389   9.820  1.4100  0.4338  3.4999
  179SLPC   H7S20447   2.727   3.445   9.737 -0.3298 -2.0616 -0.2148
  179SLPC   C2820448   2.552   3.590   9.771  1.0697 -0.1598 -0.3815
  179SLPC   H8R20449   2.482   3.612   9.854 -0.4277  0.8970 -1.8483
  179SLPC   H8S20450   2.480   3.555   9.694 -0.8229 -1.4222  1.8433
  179SLPC   C2920451   2.625   3.709   9.726 -0.2646 -0.3759  0.8945
  179SLPC   H9R20452   2.647   3.699   9.619  0.0598 -1.4440  1.0486
  179SLPC  C21020453   2.654   3.815   9.799  0.1649 -0.1621  0.6060
  179SLPC  H10R20454   2.711   3.897   9.752  1.2949 -1.2664 -0.0166
  179SLPC  C21120455   2.614   3.845   9.941 -0.0296 -0.8431  0.2927
  179SLPC  H11R20456   2.704   3.895   9.981  1.1678 -3.2201  0.7926
  179SLPC  H11S20457   2.601   3.747   9.992 -0.6452 -0.9732 -0.1081
  179SLPC  C21220458   2.486   3.923   9.942 -0.8024  0.7811 -0.1013
  179SLPC  H12R20459   2.394   3.864   9.930 -1.7459  1.5142  2.7760
  179SLPC  C21320460   2.474   4.053   9.963 -0.3149  0.2650  0.0269
  179SLPC  H13R20461   2.373   4.096   9.970 -1.0522 -1.3960  0.1669
  179SLPC  C21420462   2.586   4.155   9.990  0.6950  0.0382 -0.7018
  179SLPC  H14R20463   2.669   4.113  10.051 -0.1146 -0.3056  0.1910
  179SLPC  H14S20464   2.547   4.227  10.065  1.6140 -0.3778  0.1958
  179SLPC  C21520465   2.632   4.241   9.874  0.1122  0.0411  0.1365
  179SLPC  H15R20466   2.653   4.346   9.903 -1.4066  0.3159  0.3120
  179SLPC  H15S20467   2.556   4.256   9.794  1.7821 -0.5731 -1.6373
  179SLPC  C21620468   2.759   4.190   9.804 -0.6226 -0.2792  0.6073
  179SLPC  H16R20469   2.746   4.084   9.773  2.4732 -1.6565  3.4651
  179SLPC  H16S20470   2.853   4.193   9.863  0.8448  0.5248 -1.6284
  179SLPC  C21720471   2.799   4.256   9.673 -0.4688 -0.6865 -0.3458
  179SLPC  H17R20472   2.891   4.216   9.627  1.2562  1.6200  0.8880
  179SLPC  H17S20473   2.837   4.359   9.689 -0.6959 -0.6155 -0.2628
  179SLPC  C21820474   2.691   4.250   9.564  0.4196 -0.3617  0.5324
  179SLPC  H18R20475   2.613   4.327   9.577  1.8448  1.1742  0.3236
  179SLPC  H18S20476   2.658   4.145   9.550  0.8115 -0.6673  1.7536
  179SLPC  H18T20477   2.745   4.282   9.473 -0.5982  1.7444  0.6259
  179SLPC   C3320478   3.091   3.730   9.918 -0.1591  0.8743 -1.0455
  179SLPC   H3X20479   3.061   3.623   9.908  3.9097 -0.7971  1.8017
  179SLPC   H3Y20480   3.198   3.724   9.889  0.2092  0.2532  0.3492
  179SLPC   C3420481   3.027   3.844   9.840 -0.9165 -0.3325 -0.2802
  179SLPC   H4X20482   3.088   3.935   9.859  0.2364 -0.9971 -0.6632
  179SLPC   H4Y20483   2.929   3.864   9.887  0.2741 -1.4840  3.0159
  179SLPC   C3520484   3.007   3.826   9.687 -0.1085 -0.0123  0.2860
  179SLPC   H5X20485   2.950   3.730   9.680  2.1912 -1.7075  2.6333
  179SLPC   H5Y20486   3.112   3.804   9.657  0.4009  1.3868  0.9734
  179SLPC   C3620487   2.957   3.945   9.609 -0.3923  0.5920 -0.0617
  179SLPC   H6X20488   3.017   4.038   9.615 -0.4318  0.6809 -0.9664
  179SLPC   H6Y20489   2.853   3.965   9.643 -1.0368 -0.5500 -1.2715
  179SLPC   C3720490   2.945   3.922   9.452 -0.6593  0.0790 -0.8758
  179SLPC   H7X20491   2.850   3.867   9.439 -0.9529  0.8680 -2.1955
  179SLPC   H7Y20492   3.029   3.851   9.435 -0.7805 -0.2754 -0.0335
  179SLPC   C3820493   2.958   4.040   9.362  0.0311 -0.3979  0.1878
  179SLPC   H8X20494   3.036   4.018   9.286  1.5264  1.4278  1.1113
  179SLPC   H8Y20495   2.989   4.130   9.420 -0.8092  0.7165 -1.0555
  179SLPC   C3920496   2.830   4.067   9.283  0.5077 -0.3475  0.4474
  179SLPC   H9X20497   2.734   4.060   9.338  0.7235  0.7423  0.9902
  179SLPC   H9Y20498   2.821   3.987   9.206 -3.2267  1.4826 -1.2918
  179SLPC  C31020499   2.846   4.198   9.199  0.2019 -0.1995 -0.1571
  179SLPC  H10X20500   2.921   4.180   9.119  2.2587 -0.5177  1.7503
  179SLPC  H10Y20501   2.891   4.276   9.264  0.0113 -1.3357  1.3991
  179SLPC  C31120502   2.713   4.235   9.133  0.2336 -0.7675 -0.1463
  179SLPC  H11X20503   2.731   4.323   9.068  3.3071 -1.7182 -0.7651
  179SLPC  H11Y20504   2.640   4.266   9.211  0.1984 -0.9770 -0.0936
  179SLPC  C31220505   2.641   4.127   9.053  0.8764  1.4095 -0.8044
  179SLPC  H12X20506   2.544   4.176   9.028 -1.6334 -1.1210  2.8945
  179SLPC  H12Y20507   2.602   4.050   9.123  0.4854  0.9064 -1.5467
  179SLPC  C31320508   2.718   4.078   8.934 -1.1576  0.1883  0.1471
  179SLPC  H13X20509   2.664   3.994   8.886 -0.8626  0.4333 -0.6308
  179SLPC  H13Y20510   2.806   4.028   8.982 -1.6909  1.6643  2.8749
  179SLPC  C31420511   2.768   4.185   8.837  0.2597  0.1479 -0.1097
  179SLPC  H14X20512   2.848   4.242   8.889  0.2828  1.9274 -1.9552
  179SLPC  H14Y20513   2.684   4.252   8.811 -0.3663 -0.0421  1.3695
  179SLPC  C31520514   2.839   4.121   8.723  0.2328 -0.0267 -0.1443
  179SLPC  H15X20515   2.933   4.072   8.757 -0.2775 -1.7778 -1.1484
  179SLPC  H15Y20516   2.878   4.204   8.661  2.2730 -0.1011  0.9461
  179SLPC  C31620517   2.772   4.014   8.635  0.7236  0.3900  0.6351
  179SLPC  H16X20518   2.751   3.923   8.696  0.9968 -0.1724 -0.0969
  179SLPC  H16Y20519   2.847   3.982   8.559  1.7991 -0.9555  2.1761
  179SLPC  C31720520   2.659   4.067   8.548 -0.5472 -0.3448 -0.6425
  179SLPC  H17X20521   2.700   4.148   8.484 -0.3696 -1.6118 -2.1928
  179SLPC  H17Y20522   2.586   4.111   8.619 -0.2051 -2.2691  0.9991
  179SLPC  C31820523   2.592   3.964   8.455 -0.1395 -0.4700  0.2302
  179SLPC  H18X20524   2.523   3.898   8.512  0.6689 -0.6393  1.0319
  179SLPC  H18Y20525   2.668   3.908   8.397  1.7639  2.6231 -0.5219
  179SLPC  H18Z20526   2.528   4.019   8.383  1.2780 -1.8751 -2.2331
  180SLPC     N20527   4.015   0.856  11.010 -0.3678  0.1886  0.2520
  180SLPC   C1320528   4.138   0.833  11.101 -0.4888 -0.0254 -0.2097
  180SLPC  H13A20529   4.120   0.766  11.184 -1.4788 -0.7014 -0.9428
  180SLPC  H13B20530   4.223   0.791  11.049 -0.2524 -0.8112  0.7774
  180SLPC  H13C20531   4.173   0.929  11.136  0.5911  0.0513 -1.4457
  180SLPC   C1420532   4.043   0.958  10.903 -0.0541  0.8887  0.6250
  180SLPC  H14A20533   4.137   0.928  10.858  0.1501  1.0922  0.9083
  180SLPC  H14B20534   3.968   0.943  10.827  0.3028 -3.3062  0.8961
  180SLPC  H14C20535   4.030   1.059  10.939  0.0222  1.6018 -1.2275
  180SLPC   C1520536   3.903   0.894  11.109  0.5117  0.0467 -0.0762
  180SLPC  H15A20537   3.891   0.833  11.196  1.9209  1.0506  0.8707
  180SLPC  H15B20538   3.895   0.999  11.136 -1.6431  0.0059 -0.3186
  180SLPC  H15C20539   3.805   0.888  11.062  1.7414  0.8110 -2.9688
  180SLPC   C1220540   3.983   0.721  10.945 -0.3607 -0.1070  0.1277
  180SLPC  H12A20541   3.899   0.728  10.876  0.4805 -0.1867 -0.9254
  180SLPC  H12B20542   3.967   0.657  11.030  2.5308  1.6670  2.1764
  180SLPC   C1120543   4.103   0.657  10.867  0.2201 -0.1330  0.5072
  180SLPC  H11A20544   4.198   0.660  10.925  0.6627  0.3230 -0.2183
  180SLPC  H11B20545   4.119   0.724  10.779  0.3551  1.2346  1.5522
  180SLPC     P20546   4.041   0.406  10.921 -0.1144  0.1854  0.2179
  180SLPC   O1320547   4.100   0.436  11.052  0.0246 -0.5301  0.1739
  180SLPC   O1420548   3.899   0.367  10.916 -0.3074 -0.2326  0.2021
  180SLPC   O1220549   4.066   0.528  10.822  0.1993 -0.2769 -0.0440
  180SLPC   O1120550   4.126   0.287  10.847 -0.0154 -0.5415 -0.0309
  180SLPC    C120551   4.255   0.307  10.784 -0.0690  0.7094  0.1937
  180SLPC    HA20552   4.305   0.397  10.824  1.0076  0.1514  0.1222
  180SLPC    HB20553   4.312   0.217  10.817 -3.6567 -2.0553 -0.4011
  180SLPC    C220554   4.245   0.310  10.625  0.0263  0.5928 -0.1276
  180SLPC    HS20555   4.195   0.408  10.608 -0.8429  0.3850  1.0391
  180SLPC   O2120556   4.159   0.205  10.574 -1.0994 -0.3955 -0.0564
  180SLPC   C2120557   4.074   0.239  10.482  0.4182 -0.2258 -0.1505
  180SLPC   O2220558   4.051   0.353  10.441 -0.0916 -0.0608 -0.7314
  180SLPC   C2220559   4.011   0.107  10.427  0.0847  0.0111 -0.7598
  180SLPC   H2R20560   4.087   0.026  10.432  0.1178  0.0896  2.7712
  180SLPC   H2S20561   3.935   0.074  10.502  0.9591  0.6489  0.4361
  180SLPC    C320562   4.386   0.305  10.568 -0.0285 -0.3678  0.2319
  180SLPC    HX20563   4.411   0.198  10.579 -0.8248 -0.5311  0.5239
  180SLPC    HY20564   4.459   0.362  10.629 -0.8020 -0.0853  0.9140
  180SLPC   O3120565   4.376   0.346  10.432  0.1900  0.2066 -0.2279
  180SLPC   C3120566   4.392   0.466  10.388 -0.0350  0.4932  0.2585
  180SLPC   O3220567   4.425   0.566  10.456 -0.0974  0.5893  0.7339
  180SLPC   C3220568   4.371   0.454  10.234  0.1438  0.0013 -0.5338
  180SLPC   H2X20569   4.264   0.470  10.210 -0.5504 -1.3072  1.4774
  180SLPC   H2Y20570   4.392   0.348  10.209 -0.1375 -0.1991  0.0558
  180SLPC   C2320571   3.932   0.123  10.300 -0.2664 -0.1351  0.0351
  180SLPC   H3R20572   3.995   0.095  10.212 -1.8346  1.5888 -1.7289
  180SLPC   H3S20573   3.891   0.225  10.285  0.4075  0.3374  1.3210
  180SLPC   C2420574   3.818   0.026  10.291  0.0820  0.6247  0.2773
  180SLPC   H4R20575   3.734   0.071  10.348  0.1411  0.8623  0.1773
  180SLPC   H4S20576   3.850  -0.076  10.322 -3.3699 -0.8958 -0.8127
  180SLPC   C2520577   3.775   0.011  10.144  0.1260 -0.2908  0.3550
  180SLPC   H5R20578   3.765   0.109  10.093 -1.2767 -0.8878 -0.6039
  180SLPC   H5S20579   3.679  -0.045  10.134  0.1540  0.0629 -3.8368
  180SLPC   C2620580   3.866  -0.078  10.051  0.1321  0.6470 -0.0563
  180SLPC   H6R20581   3.897  -0.163  10.115  0.4781  1.5745  1.0433
  180SLPC   H6S20582   3.959  -0.026  10.020 -1.5011  2.9635 -1.3807
  180SLPC   C2720583   3.790  -0.135   9.925  0.2215 -0.1928  0.1323
  180SLPC   H7R20584   3.687  -0.168   9.950  0.0458  0.9208  0.9291
  180SLPC   H7S20585   3.858  -0.219   9.895  2.2161  0.7731  1.6654
  180SLPC   C2820586   3.786  -0.035   9.806  0.3153 -0.2081  0.3861
  180SLPC   H8R20587   3.775   0.069   9.842 -1.1478 -0.6119  1.1464
  180SLPC   H8S20588   3.688  -0.046   9.755 -0.8373 -1.5467  2.7678
  180SLPC   C2920589   3.911  -0.040   9.712  0.0009  0.3666 -0.5715
  180SLPC   H9R20590   4.006  -0.036   9.766 -0.2683  2.6255 -0.1430
  180SLPC  C21020591   3.910  -0.044   9.579 -0.2257 -0.6391 -0.1492
  180SLPC  H10R20592   4.006  -0.052   9.525  0.1893 -3.7345  0.8715
  180SLPC  C21120593   3.788  -0.056   9.489 -0.1309 -0.3699 -0.1013
  180SLPC  H11R20594   3.701   0.010   9.509 -0.5842 -1.1501  0.5666
  180SLPC  H11S20595   3.748  -0.159   9.493  0.9163 -0.8776 -1.6842
  180SLPC  C21220596   3.832  -0.030   9.339  0.2511  0.3643  0.3213
  180SLPC  H12R20597   3.920   0.036   9.328 -1.1726  2.2988  0.0868
  180SLPC  C21320598   3.771  -0.071   9.226  0.4477 -0.1551  0.1732
  180SLPC  H13R20599   3.813  -0.035   9.131  1.7223 -3.7119 -0.8146
  180SLPC  C21420600   3.645  -0.151   9.219 -1.2974 -0.0355 -0.5650
  180SLPC  H14R20601   3.576  -0.111   9.296 -1.1978  0.2059 -0.6015
  180SLPC  H14S20602   3.673  -0.258   9.231 -2.1835 -0.0967  1.3658
  180SLPC  C21520603   3.577  -0.151   9.077  0.0136 -0.2143  0.7325
  180SLPC  H15R20604   3.556  -0.049   9.037 -0.5717  0.0611  1.7154
  180SLPC  H15S20605   3.474  -0.192   9.084 -0.5692  1.2616  1.1551
  180SLPC  C21620606   3.655  -0.242   8.977 -0.3960  0.0552  0.9004
  180SLPC  H16R20607   3.757  -0.262   9.016  0.0538 -2.3759 -1.2583
  180SLPC  H16S20608   3.651  -0.186   8.882  0.5652  1.5542  1.6948
  180SLPC  C21720609   3.603  -0.381   8.960  0.5103  0.5002 -0.0850
  180SLPC  H17R20610   3.672  -0.450   8.908  0.4102 -1.4768  2.1902
  180SLPC  H17S20611   3.510  -0.366   8.901 -0.3642  1.0902  1.3816
  180SLPC  C21820612   3.544  -0.457   9.084 -0.4180  0.3062 -0.3677
  180SLPC  H18R20613   3.494  -0.549   9.049  0.3791  0.8235 -3.1204
  180SLPC  H18S20614   3.484  -0.396   9.155 -0.7688 -0.1989 -0.2283
  180SLPC  H18T20615   3.626  -0.496   9.148  0.1505 -1.1988 -1.9290
  180SLPC   C3320616   4.446   0.555  10.144 -0.4132  0.4714 -0.5709
  180SLPC   H3X20617   4.554   0.549  10.167 -0.0398 -1.2556 -2.4610
  180SLPC   H3Y20618   4.412   0.659  10.163  2.3587  1.2637  0.5346
  180SLPC   C3420619   4.428   0.518   9.999  0.7293 -0.4846 -0.6043
  180SLPC   H4X20620   4.320   0.524   9.976  0.2062  0.5723  1.7617
  180SLPC   H4Y20621   4.465   0.417   9.973  1.4590 -0.4529  0.2454
  180SLPC   C3520622   4.508   0.601   9.900  0.3948  0.3676  0.6295
  180SLPC   H5X20623   4.612   0.604   9.938  0.1216 -1.9712  1.7561
  180SLPC   H5Y20624   4.458   0.700   9.889 -1.5743 -0.8608 -4.0070
  180SLPC   C3620625   4.486   0.555   9.756 -0.1992  0.1241 -0.3908
  180SLPC   H6X20626   4.378   0.546   9.732 -0.6243 -0.6883  1.6609
  180SLPC   H6Y20627   4.520   0.450   9.739 -1.4435 -0.5439  1.0278
  180SLPC   C3720628   4.526   0.656   9.650  0.2326 -0.8211  0.2452
  180SLPC   H7X20629   4.634   0.676   9.664  0.1933  0.4666 -1.0968
  180SLPC   H7Y20630   4.477   0.754   9.669 -0.5842 -0.5299 -2.7561
  180SLPC   C3820631   4.496   0.601   9.506  0.2581  0.6763  0.6059
  180SLPC   H8X20632   4.387   0.578   9.501 -0.1936  2.2785  2.2236
  180SLPC   H8Y20633   4.552   0.509   9.480 -1.8010  0.0635 -2.2473
  180SLPC   C3920634   4.543   0.710   9.404 -0.5960 -0.1169  0.1830
  180SLPC   H9X20635   4.651   0.736   9.409 -1.0424  1.9928 -0.2286
  180SLPC   H9Y20636   4.494   0.806   9.431  0.5936  0.7449 -0.5989
  180SLPC  C31020637   4.510   0.682   9.257  0.2291  0.0125 -0.7567
  180SLPC  H10X20638   4.530   0.783   9.215 -1.4340  1.2408  1.2049
  180SLPC  H10Y20639   4.405   0.652   9.237  1.1237 -2.8338 -1.6922
  180SLPC  C31120640   4.608   0.577   9.189  0.4782  0.3278 -0.2565
  180SLPC  H11X20641   4.586   0.477   9.231 -2.8928  0.6994 -0.8507
  180SLPC  H11Y20642   4.713   0.598   9.219  0.9840 -1.3116 -0.7991
  180SLPC  C31220643   4.591   0.557   9.038 -1.2910 -0.4214 -0.0904
  180SLPC  H12X20644   4.666   0.491   8.988  0.4665  1.2358  0.2068
  180SLPC  H12Y20645   4.597   0.661   8.999  2.6605 -0.5924 -0.4344
  180SLPC  C31320646   4.457   0.504   9.006  0.0071  0.1108 -0.6590
  180SLPC  H13X20647   4.377   0.580   9.022  0.0476 -0.0989  0.6604
  180SLPC  H13Y20648   4.437   0.420   9.077 -3.1247  1.8799  0.7785
  180SLPC  C31420649   4.452   0.445   8.864 -0.1164  0.0422 -0.3507
  180SLPC  H14X20650   4.343   0.433   8.848 -0.0538 -0.3253 -0.5037
  180SLPC  H14Y20651   4.503   0.348   8.880 -1.9076 -0.7249  1.1599
  180SLPC  C31520652   4.505   0.532   8.750 -0.1239 -0.1225 -0.2417
  180SLPC  H15X20653   4.477   0.476   8.658 -0.4693 -1.4068  0.6224
  180SLPC  H15Y20654   4.614   0.535   8.772  0.1015  0.5519 -1.3622
  180SLPC  C31620655   4.445   0.676   8.733  0.3721 -0.3823  0.7030
  180SLPC  H16X20656   4.456   0.721   8.834 -0.5161  0.5094  0.4200
  180SLPC  H16Y20657   4.337   0.672   8.710  0.5575  0.1107 -0.3443
  180SLPC  C31720658   4.511   0.762   8.628 -0.6076 -0.0048  0.3178
  180SLPC  H17X20659   4.551   0.702   8.543  0.3761  0.4035  0.4825
  180SLPC  H17Y20660   4.604   0.799   8.676 -0.3416  1.2451 -1.0736
  180SLPC  C31820661   4.426   0.874   8.580  0.4357 -0.0074 -0.4430
  180SLPC  H18X20662   4.457   0.895   8.475  1.7427 -0.7387 -0.2277
  180SLPC  H18Y20663   4.442   0.963   8.644 -0.5491 -0.1951  0.0741
  180SLPC  H18Z20664   4.317   0.853   8.587  0.5612 -0.1239  2.1284
  181SLPC     N20665   5.408   0.144  10.893 -0.0047  0.2468  0.4413
  181SLPC   C1320666   5.472   0.189  11.015  0.4824 -0.3180 -0.4721
  181SLPC  H13A20667   5.491   0.099  11.071 -1.1827  0.9850  2.4143
  181SLPC  H13B20668   5.562   0.244  10.993 -0.4794  1.3259 -0.4801
  181SLPC  H13C20669   5.408   0.253  11.074  0.0436 -0.4447 -0.8090
  181SLPC   C1420670   5.354   0.262  10.815  0.1070 -0.1758  0.4323
  181SLPC  H14A20671   5.426   0.322  10.762  0.2909 -2.5601 -2.2131
  181SLPC  H14B20672   5.296   0.219  10.735  1.9750 -0.7238 -0.6730
  181SLPC  H14C20673   5.290   0.327  10.875  2.1357  0.9537  1.4806
  181SLPC   C1520674   5.293   0.054  10.928 -0.1353 -0.0201 -0.4578
  181SLPC  H15A20675   5.327  -0.026  10.993 -2.2347 -1.8205 -1.4246
  181SLPC  H15B20676   5.211   0.103  10.978  1.2519  1.1826  0.7182
  181SLPC  H15C20677   5.249   0.006  10.842  0.6708  0.3059 -1.0717
  181SLPC   C1220678   5.519   0.075  10.809  0.1530 -0.4644  0.5034
  181SLPC  H12A20679   5.590   0.012  10.862 -0.3218 -1.2942  0.1772
  181SLPC  H12B20680   5.579   0.158  10.774  1.1162 -1.1040  0.5764
  181SLPC   C1120681   5.489  -0.004  10.681  0.5869  0.5974 -0.2142
  181SLPC  H11A20682   5.576  -0.007  10.611  1.2871 -0.3487  0.6683
  181SLPC  H11B20683   5.406   0.049  10.629  1.5248  2.2710 -0.0630
  181SLPC     P20684   5.537  -0.235  10.798  0.0804 -0.2168  0.0678
  181SLPC   O1320685   5.515  -0.231  10.944  0.0484 -0.7746  0.3707
  181SLPC   O1420686   5.535  -0.368  10.738  0.4989  0.0667 -0.8225
  181SLPC   O1220687   5.445  -0.136  10.721  0.2914  0.5882  0.0369
  181SLPC   O1120688   5.683  -0.170  10.772  0.3174 -0.0886 -0.2738
  181SLPC    C120689   5.792  -0.262  10.752 -0.3630  0.1832  0.3169
  181SLPC    HA20690   5.875  -0.222  10.813 -0.7170  1.2306  0.1349
  181SLPC    HB20691   5.773  -0.366  10.786  1.5127 -0.2734  0.0857
  181SLPC    C220692   5.839  -0.254  10.608  1.0574 -0.3606 -0.5208
  181SLPC    HS20693   5.881  -0.155  10.580 -0.6719  1.0104  1.4949
  181SLPC   O2120694   5.735  -0.307  10.529 -0.2734 -0.1720  0.2243
  181SLPC   C2120695   5.693  -0.215  10.441 -0.3500 -0.1713  0.0742
  181SLPC   O2220696   5.726  -0.099  10.425 -0.6789 -0.4116  0.2702
  181SLPC   C2220697   5.568  -0.263  10.372  0.8002  0.9612 -0.3594
  181SLPC   H2R20698   5.545  -0.368  10.400 -2.4295  2.1937  2.1205
  181SLPC   H2S20699   5.491  -0.212  10.433  0.2705 -1.8088  1.4719
  181SLPC    C320700   5.970  -0.338  10.599 -0.0798  0.2266  0.3071
  181SLPC    HX20701   5.956  -0.434  10.653 -0.8373 -1.1297 -2.1235
  181SLPC    HY20702   6.044  -0.273  10.650 -0.0784  1.5048 -1.2515
  181SLPC   O3120703   6.020  -0.358  10.464 -0.4110 -0.1680 -0.2129
  181SLPC   C3120704   5.968  -0.458  10.400 -1.0144 -0.1312  1.1898
  181SLPC   O3220705   5.894  -0.542  10.445  0.3108  0.1165  0.0628
  181SLPC   C3220706   6.011  -0.455  10.253  0.4680 -0.0138  0.2800
  181SLPC   H2X20707   6.119  -0.438  10.234  0.1955  0.1248 -1.2602
  181SLPC   H2Y20708   5.954  -0.372  10.207  1.1006  1.3258  1.8506
  181SLPC   C2320709   5.544  -0.232  10.223 -0.7065 -0.6268  0.2195
  181SLPC   H3R20710   5.574  -0.127  10.202  0.9510 -1.4268 -1.6949
  181SLPC   H3S20711   5.434  -0.240  10.207 -0.8003  1.3128 -0.4200
  181SLPC   C2420712   5.625  -0.321  10.130  0.2217  0.5334  0.4959
  181SLPC   H4R20713   5.640  -0.421  10.177  0.1272 -0.4665 -1.5100
  181SLPC   H4S20714   5.729  -0.285  10.115  0.9288 -1.4853  0.2802
  181SLPC   C2520715   5.564  -0.337   9.993 -0.2956  0.8763  0.2350
  181SLPC   H5R20716   5.541  -0.242   9.940 -2.4625 -0.1142 -0.7036
  181SLPC   H5S20717   5.467  -0.388  10.012 -0.7080  1.5202 -0.0879
  181SLPC   C2620718   5.637  -0.422   9.890  0.0842  0.5702 -0.1139
  181SLPC   H6R20719   5.658  -0.524   9.930 -0.5637  0.2931 -0.4676
  181SLPC   H6S20720   5.736  -0.379   9.865 -1.0064  2.2504 -1.7825
  181SLPC   C2720721   5.559  -0.429   9.757  0.1121 -0.7377  0.0434
  181SLPC   H7R20722   5.540  -0.326   9.720 -0.3887 -0.6506  0.5246
  181SLPC   H7S20723   5.461  -0.466   9.794 -1.0334  1.6635 -0.4016
  181SLPC   C2820724   5.621  -0.508   9.638 -0.0964  0.9934  0.2908
  181SLPC   H8R20725   5.542  -0.510   9.561 -2.8507 -1.6859  2.9251
  181SLPC   H8S20726   5.628  -0.615   9.668 -2.7518  0.2991 -1.2670
  181SLPC   C2920727   5.752  -0.455   9.588  0.4380 -0.6518  1.0594
  181SLPC   H9R20728   5.835  -0.444   9.659  0.7118 -0.5788  0.7285
  181SLPC  C21020729   5.791  -0.427   9.463 -0.0216  0.1308 -0.2912
  181SLPC  H10R20730   5.892  -0.384   9.459 -0.5317  1.5048  0.8782
  181SLPC  C21120731   5.712  -0.446   9.339  0.1374 -0.0696  0.6559
  181SLPC  H11R20732   5.606  -0.415   9.342 -0.8477 -2.4901 -2.6998
  181SLPC  H11S20733   5.691  -0.553   9.314 -1.0112  0.3928 -0.4871
  181SLPC  C21220734   5.778  -0.370   9.227 -0.4168  0.7645  0.6819
  181SLPC  H12R20735   5.829  -0.277   9.258  3.3118 -1.3241  1.4495
  181SLPC  C21320736   5.792  -0.403   9.091 -0.1187  0.4783 -0.7161
  181SLPC  H13R20737   5.851  -0.344   9.019 -1.0001  1.1313 -0.9097
  181SLPC  C21420738   5.740  -0.534   9.023  0.0309 -0.6768  0.7428
  181SLPC  H14R20739   5.651  -0.578   9.074 -2.0006  2.2952  0.0224
  181SLPC  H14S20740   5.829  -0.601   9.017 -0.7189 -1.5361 -2.0026
  181SLPC  C21520741   5.682  -0.515   8.875 -0.1552  0.1676  0.7752
  181SLPC  H15R20742   5.696  -0.618   8.836 -2.3820 -0.3335  1.1799
  181SLPC  H15S20743   5.753  -0.463   8.807 -0.9849 -0.1843 -0.4026
  181SLPC  C21620744   5.541  -0.465   8.871  0.2161 -1.2725 -0.8333
  181SLPC  H16R20745   5.534  -0.379   8.941 -0.7123 -1.9142 -0.1153
  181SLPC  H16S20746   5.476  -0.550   8.900  0.5172 -1.0156  0.6933
  181SLPC  C21720747   5.498  -0.409   8.736 -0.3041 -0.3405 -0.1801
  181SLPC  H17R20748   5.550  -0.311   8.728 -2.2941  0.8259  0.5086
  181SLPC  H17S20749   5.390  -0.384   8.728 -0.5358 -1.4317 -0.6468
  181SLPC  C21820750   5.541  -0.503   8.622  0.0412  0.6103 -0.2528
  181SLPC  H18R20751   5.502  -0.461   8.527 -0.7025  0.1592 -0.1542
  181SLPC  H18S20752   5.492  -0.602   8.627 -4.7335  2.7207 -0.1669
  181SLPC  H18T20753   5.652  -0.497   8.617  0.0707  0.2616 -0.0276
  181SLPC   C3320754   5.965  -0.586  10.175 -0.0513  1.0018  0.4145
  181SLPC   H3X20755   5.856  -0.607  10.185 -0.3480  2.3629  0.2205
  181SLPC   H3Y20756   6.021  -0.679  10.201  1.3433  1.4133 -1.0327
  181SLPC   C3420757   5.985  -0.581  10.019  0.0139  0.3761  0.0802
  181SLPC   H4X20758   5.922  -0.501   9.974  1.2266  2.7964  2.4149
  181SLPC   H4Y20759   5.972  -0.683   9.976 -0.1662 -0.5698  2.2431
  181SLPC   C3520760   6.118  -0.528   9.970 -0.7112 -0.4875  0.5061
  181SLPC   H5X20761   6.194  -0.608   9.982 -1.5084 -1.1391  1.3753
  181SLPC   H5Y20762   6.154  -0.437  10.023 -2.1663  0.1192  0.5224
  181SLPC   C3620763   6.122  -0.495   9.826 -0.9549 -0.6037  0.0237
  181SLPC   H6X20764   6.225  -0.459   9.805 -1.7640  2.2404  0.4978
  181SLPC   H6Y20765   6.059  -0.405   9.805  2.4251  1.9761 -0.0080
  181SLPC   C3720766   6.111  -0.611   9.724 -0.1165 -0.0025  0.0156
  181SLPC   H7X20767   6.002  -0.626   9.707  0.0889 -2.7635  0.5849
  181SLPC   H7Y20768   6.150  -0.705   9.769  1.3785  0.6110  0.0785
  181SLPC   C3820769   6.176  -0.588   9.589 -0.2566 -0.4782 -0.5205
  181SLPC   H8X20770   6.285  -0.610   9.598 -0.1678  0.7913  3.9836
  181SLPC   H8Y20771   6.157  -0.480   9.568  0.2196 -0.5034 -1.1105
  181SLPC   C3920772   6.127  -0.689   9.484  0.5820 -0.6503 -0.2726
  181SLPC   H9X20773   6.016  -0.686   9.477  0.5779 -0.0764  0.0084
  181SLPC   H9Y20774   6.169  -0.790   9.505  3.4084 -0.0122 -2.2947
  181SLPC  C31020775   6.183  -0.658   9.345 -0.0256 -0.3724  0.4837
  181SLPC  H10X20776   6.293  -0.674   9.338  0.1270  1.0313 -1.0638
  181SLPC  H10Y20777   6.154  -0.557   9.307  2.2800  1.1222  2.3921
  181SLPC  C31120778   6.128  -0.755   9.240 -0.6321  0.0512 -0.7353
  181SLPC  H11X20779   6.018  -0.744   9.228 -0.8300 -0.6795  0.2399
  181SLPC  H11Y20780   6.131  -0.862   9.270 -2.0995 -0.1578 -1.2198
  181SLPC  C31220781   6.202  -0.738   9.111  0.2737 -0.7396  0.0284
  181SLPC  H12X20782   6.309  -0.759   9.128  0.1813 -0.4221  1.0392
  181SLPC  H12Y20783   6.191  -0.635   9.069 -1.2759 -2.0533 -3.1808
  181SLPC  C31320784   6.149  -0.836   9.002  0.6445  0.2388  0.2921
  181SLPC  H13X20785   6.199  -0.814   8.905  1.9072 -0.0377  0.8648
  181SLPC  H13Y20786   6.041  -0.820   8.980  0.4520 -1.5067 -0.1662
  181SLPC  C31420787   6.180  -0.989   9.034  0.1274 -0.2322 -0.4863
  181SLPC  H14X20788   6.145  -1.021   9.135 -3.1685 -0.7074 -1.6376
  181SLPC  H14Y20789   6.291  -0.999   9.033 -0.0195 -2.3018 -0.7652
  181SLPC  C31520790   6.135  -1.096   8.941 -0.4467  0.3930  0.1979
  181SLPC  H15X20791   6.210  -1.176   8.958  0.8814  1.9009  1.8461
  181SLPC  H15Y20792   6.144  -1.068   8.834  1.5938  1.3663  0.5627
  181SLPC  C31620793   6.001  -1.156   8.976 -0.0541  0.2706 -1.2116
  181SLPC  H16X20794   6.016  -1.211   9.071 -0.6606 -0.4208 -1.5110
  181SLPC  H16Y20795   5.973  -1.241   8.911 -2.1885 -1.1476  1.3504
  181SLPC  C31720796   5.887  -1.058   8.980  0.0281  0.0434  0.9202
  181SLPC  H17X20797   5.904  -0.983   9.061  1.3522  1.0374 -0.2328
  181SLPC  H17Y20798   5.792  -1.100   9.017 -1.1346  0.6893 -1.1913
  181SLPC  C31820799   5.854  -0.987   8.850  0.3099  0.7350  0.2101
  181SLPC  H18X20800   5.949  -0.960   8.798  0.4237 -1.5351 -0.8958
  181SLPC  H18Y20801   5.787  -0.899   8.864  0.6480  0.6833  2.6861
  181SLPC  H18Z20802   5.801  -1.060   8.785  0.8944  1.5280 -1.2041
  182SLPC     N20803   5.829   0.771  10.793 -0.0378  0.5822 -0.6273
  182SLPC   C1320804   5.769   0.838  10.672  0.0765 -1.1242  0.4936
  182SLPC  H13A20805   5.824   0.924  10.637 -1.1702 -0.5367 -0.1081
  182SLPC  H13B20806   5.756   0.758  10.601 -1.0551 -0.7084  0.2091
  182SLPC  H13C20807   5.665   0.862  10.687  0.1089 -1.7793  1.8987
  182SLPC   C1420808   5.816   0.859  10.898  0.3562 -0.1608 -0.1190
  182SLPC  H14A20809   5.826   0.965  10.880 -0.7315  0.2863  1.6347
  182SLPC  H14B20810   5.714   0.864  10.936  0.7023  4.0350  0.7881
  182SLPC  H14C20811   5.868   0.830  10.988 -0.5629  2.4557  1.3925
  182SLPC   C1520812   5.967   0.740  10.759  0.5195 -0.5299 -0.7367
  182SLPC  H15A20813   6.021   0.830  10.734 -0.5389  0.3362  0.0147
  182SLPC  H15B20814   6.014   0.689  10.841 -0.4372  0.8440  0.7221
  182SLPC  H15C20815   5.966   0.680  10.669  2.1371 -4.1352  1.4559
  182SLPC   C1220816   5.754   0.642  10.829  0.2100  0.6449  0.0338
  182SLPC  H12A20817   5.809   0.594  10.908  0.8170 -1.1665 -1.4016
  182SLPC  H12B20818   5.762   0.583  10.738 -0.7366  1.4876 -0.6220
  182SLPC   C1120819   5.601   0.651  10.844 -0.1620  0.1327 -0.1036
  182SLPC  H11A20820   5.576   0.731  10.917 -1.4338 -1.0499  0.7842
  182SLPC  H11B20821   5.565   0.558  10.892 -0.6715  0.6181  0.4738
  182SLPC     P20822   5.468   0.585  10.629  0.4128  0.4730 -0.1864
  182SLPC   O1320823   5.551   0.461  10.626  0.1461  0.1725 -0.1732
  182SLPC   O1420824   5.327   0.581  10.678 -0.1125  0.3625  0.1542
  182SLPC   O1220825   5.544   0.685  10.723 -0.2941  0.0152  0.0072
  182SLPC   O1120826   5.484   0.659  10.493 -0.3194  0.1312  0.2452
  182SLPC    C120827   5.408   0.772  10.456 -0.4740  0.3379 -1.0616
  182SLPC    HA20828   5.300   0.754  10.480 -0.3010  1.9304  1.1817
  182SLPC    HB20829   5.443   0.857  10.517  0.2771  0.6332 -1.8915
  182SLPC    C220830   5.428   0.821  10.310  0.0606  0.3642  0.1993
  182SLPC    HS20831   5.353   0.900  10.290 -1.7933 -0.7848  2.1103
  182SLPC   O2120832   5.434   0.717  10.212  0.5008 -0.1549 -0.2256
  182SLPC   C2120833   5.322   0.658  10.190 -0.7107  0.1915 -0.5930
  182SLPC   O2220834   5.210   0.673  10.241  0.1965  0.5663  0.1797
  182SLPC   C2220835   5.357   0.580  10.066 -0.3181 -0.1781  0.2726
  182SLPC   H2R20836   5.457   0.533  10.070 -0.2816 -0.1429 -0.1216
  182SLPC   H2S20837   5.283   0.500  10.043 -1.7772  1.7861 -2.5805
  182SLPC    C320838   5.570   0.893  10.306  0.0680  0.1080  0.2830
  182SLPC    HX20839   5.657   0.824  10.311  1.8779  2.1316 -1.2634
  182SLPC    HY20840   5.568   0.958  10.396 -0.8479  3.4950 -1.9849
  182SLPC   O3120841   5.579   0.976  10.189  0.4195 -0.3323  0.2623
  182SLPC   C3120842   5.677   1.049  10.188 -0.3545  0.0908  0.1286
  182SLPC   O3220843   5.762   1.071  10.274  0.3290 -0.0170  0.7565
  182SLPC   C3220844   5.677   1.124  10.048 -0.0354  1.0259 -0.1098
  182SLPC   H2X20845   5.733   1.057   9.979 -0.2946 -0.6033  1.1909
  182SLPC   H2Y20846   5.740   1.215  10.063  0.9606  0.0205  2.4197
  182SLPC   C2320847   5.361   0.660   9.936  0.1175 -0.1816 -0.1749
  182SLPC   H3R20848   5.452   0.725   9.940 -1.1038  1.5428  1.0927
  182SLPC   H3S20849   5.276   0.731   9.939  1.4915  1.5256  0.1653
  182SLPC   C2420850   5.371   0.573   9.811 -0.1155  0.2350 -0.1287
  182SLPC   H4R20851   5.285   0.505   9.794  0.1915 -0.7068  1.8198
  182SLPC   H4S20852   5.455   0.501   9.823  0.1334  0.6477  0.7021
  182SLPC   C2520853   5.392   0.657   9.685 -0.4409  0.3698 -0.2343
  182SLPC   H5R20854   5.466   0.738   9.704  1.9980 -1.6571 -0.5196
  182SLPC   H5S20855   5.292   0.696   9.656 -0.6649  0.0395  0.0808
  182SLPC   C2620856   5.442   0.576   9.566 -0.4807  0.0986  0.0929
  182SLPC   H6R20857   5.369   0.507   9.519 -0.1080 -1.4653  1.7221
  182SLPC   H6S20858   5.516   0.497   9.591 -0.6652  0.0412  0.4588
  182SLPC   C2720859   5.501   0.666   9.454  0.1047 -0.0262 -0.0803
  182SLPC   H7R20860   5.595   0.713   9.489  1.2480 -0.4090 -2.4179
  182SLPC   H7S20861   5.429   0.749   9.439 -1.7041 -1.7296 -1.3664
  182SLPC   C2820862   5.520   0.586   9.324  0.4057  0.4109 -0.1025
  182SLPC   H8R20863   5.599   0.512   9.350 -1.6598 -1.5955  0.7988
  182SLPC   H8S20864   5.562   0.654   9.247  2.7381  0.7388  1.3589
  182SLPC   C2920865   5.409   0.509   9.258  1.0375 -0.3653 -0.1069
  182SLPC   H9R20866   5.343   0.460   9.331  1.0091 -0.7010 -0.3574
  182SLPC  C21020867   5.394   0.492   9.124 -0.2144 -0.7322 -0.8306
  182SLPC  H10R20868   5.297   0.450   9.095 -0.8157 -0.8792  1.2109
  182SLPC  C21120869   5.488   0.551   9.019 -0.2552 -0.0203  0.0082
  182SLPC  H11R20870   5.532   0.476   8.950 -0.4599 -1.0218  0.9269
  182SLPC  H11S20871   5.586   0.594   9.047  0.4465  0.5656 -3.0168
  182SLPC  C21220872   5.410   0.658   8.944  0.1166 -0.4205  0.5310
  182SLPC  H12R20873   5.422   0.756   8.991 -2.1902  0.2212 -0.0944
  182SLPC  C21320874   5.340   0.641   8.824 -0.2292 -0.9896  0.7087
  182SLPC  H13R20875   5.296   0.725   8.768 -0.0513 -1.8205 -0.7413
  182SLPC  C21420876   5.321   0.515   8.740  1.0684 -1.2216 -0.2418
  182SLPC  H14R20877   5.367   0.428   8.792  2.1985  1.1277  3.0144
  182SLPC  H14S20878   5.362   0.516   8.637 -2.5484 -0.0472 -1.8429
  182SLPC  C21520879   5.176   0.476   8.707  0.4918 -0.3905  0.0626
  182SLPC  H15R20880   5.130   0.463   8.807  1.8391  1.3378  0.9728
  182SLPC  H15S20881   5.174   0.375   8.662 -1.7254  0.1387 -1.1381
  182SLPC  C21620882   5.101   0.582   8.629  0.6769  0.6079  0.2447
  182SLPC  H16R20883   5.170   0.628   8.555 -1.4855  2.7103 -0.5912
  182SLPC  H16S20884   5.078   0.667   8.695  2.7474  0.4385  1.2567
  182SLPC  C21720885   4.967   0.538   8.561  0.5424 -0.6573  0.4312
  182SLPC  H17R20886   4.892   0.495   8.631 -2.7445 -1.9713 -3.4792
  182SLPC  H17S20887   4.995   0.461   8.486  0.4616 -0.5280  0.2695
  182SLPC  C21820888   4.893   0.652   8.491 -0.2355  1.3653  0.5621
  182SLPC  H18R20889   4.784   0.643   8.511 -0.1965  0.3336  0.3723
  182SLPC  H18S20890   4.906   0.643   8.381 -0.4744  3.4423  0.3236
  182SLPC  H18T20891   4.919   0.752   8.530 -0.7502  1.5256  0.5087
  182SLPC   C3320892   5.533   1.154   9.993  0.5804 -0.2381 -0.1339
  182SLPC   H3X20893   5.470   1.184  10.079  0.1770  0.0893 -0.5330
  182SLPC   H3Y20894   5.490   1.057   9.960 -2.1817 -0.6499  3.9445
  182SLPC   C3420895   5.539   1.265   9.885 -0.2409 -0.0401 -0.7477
  182SLPC   H4X20896   5.562   1.367   9.922 -0.3394 -0.0558 -0.6421
  182SLPC   H4Y20897   5.434   1.275   9.848 -0.2488 -1.8299 -1.3240
  182SLPC   C3520898   5.636   1.238   9.768  0.2153  0.2205 -0.0889
  182SLPC   H5X20899   5.731   1.198   9.808 -0.2619 -0.5881  0.2484
  182SLPC   H5Y20900   5.664   1.335   9.720  2.8032 -0.6685 -0.5039
  182SLPC   C3620901   5.573   1.151   9.672  0.4264  0.2490  0.4208
  182SLPC   H6X20902   5.465   1.175   9.661  0.0001 -1.0713  1.4619
  182SLPC   H6Y20903   5.568   1.048   9.714  0.4751 -0.5010 -1.3151
  182SLPC   C3720904   5.642   1.159   9.533  0.0604 -0.9324  0.0515
  182SLPC   H7X20905   5.748   1.127   9.539  0.9774  1.9920  1.0516
  182SLPC   H7Y20906   5.653   1.266   9.506 -0.1446 -0.6004  1.2201
  182SLPC   C3820907   5.559   1.095   9.420 -0.7623  0.9342 -0.6092
  182SLPC   H8X20908   5.453   1.126   9.434 -0.6706  0.3028  1.9272
  182SLPC   H8Y20909   5.568   0.984   9.422  0.8766  0.8854 -4.0807
  182SLPC   C3920910   5.611   1.137   9.279 -0.4192 -0.1240 -0.8625
  182SLPC   H9X20911   5.717   1.167   9.296 -0.7283 -0.3708  1.9175
  182SLPC   H9Y20912   5.548   1.225   9.251 -1.2888 -0.8565 -1.2643
  182SLPC  C31020913   5.602   1.023   9.177 -0.0138 -0.2373  0.1144
  182SLPC  H10X20914   5.501   0.990   9.146  0.2416  0.4569 -1.5876
  182SLPC  H10Y20915   5.656   0.929   9.198 -0.5951 -0.5248  0.3285
  182SLPC  C31120916   5.677   1.070   9.041 -0.0511 -0.2166  0.4047
  182SLPC  H11X20917   5.786   1.069   9.064 -0.0432  1.0567  0.5466
  182SLPC  H11Y20918   5.639   1.173   9.020 -0.0690 -0.3159 -0.0523
  182SLPC  C31220919   5.644   0.979   8.927 -0.3198  0.0428 -0.0381
  182SLPC  H12X20920   5.534   0.962   8.916 -0.0933 -1.1354 -0.5664
  182SLPC  H12Y20921   5.691   0.881   8.947 -0.1708  0.0063 -0.5606
  182SLPC  C31320922   5.706   1.024   8.792  0.0322  0.7567  0.6120
  182SLPC  H13X20923   5.813   1.034   8.820 -0.3279  0.6598  2.0982
  182SLPC  H13Y20924   5.663   1.121   8.758 -0.3780  0.6900  0.9348
  182SLPC  C31420925   5.691   0.922   8.677  0.0901  0.7996  0.0756
  182SLPC  H14X20926   5.735   0.822   8.697  0.8792  0.6062 -2.3757
  182SLPC  H14Y20927   5.747   0.959   8.589  0.0081 -0.0328 -0.3344
  182SLPC  C31520928   5.545   0.908   8.634 -0.1293 -0.6837  0.4357
  182SLPC  H15X20929   5.502   1.010   8.627 -0.4187 -0.8629 -0.5583
  182SLPC  H15Y20930   5.492   0.856   8.716  1.1226 -2.3123  0.2661
  182SLPC  C31620931   5.539   0.827   8.504  0.1959 -0.4419  0.1152
  182SLPC  H16X20932   5.565   0.724   8.535  2.8109  0.5144  1.3895
  182SLPC  H16Y20933   5.614   0.867   8.433  1.2529 -1.4525  0.6493
  182SLPC  C31720934   5.413   0.828   8.425  0.5293  0.1123 -0.3563
  182SLPC  H17X20935   5.389   0.930   8.389  0.3075 -0.6414 -2.4389
  182SLPC  H17Y20936   5.334   0.793   8.495  0.3449 -0.0335 -0.6346
  182SLPC  C31820937   5.423   0.736   8.307  0.1522  0.1706  0.6265
  182SLPC  H18X20938   5.504   0.762   8.237 -1.9717 -1.8510 -2.8928
  182SLPC  H18Y20939   5.335   0.739   8.239  1.6306 -1.2279 -1.4809
  182SLPC  H18Z20940   5.425   0.631   8.345  1.9700 -0.4120 -0.9715
  183SLPC     N20941   6.629   2.295  11.386  0.0917 -0.0156 -0.2444
  183SLPC   C1320942   6.742   2.350  11.470  0.7229 -0.1507 -1.2230
  183SLPC  H13A20943   6.717   2.449  11.507 -0.0289 -0.8177  0.1594
  183SLPC  H13B20944   6.777   2.294  11.556 -1.9529  0.0720  0.1213
  183SLPC  H13C20945   6.831   2.364  11.411  1.8475  0.8814  0.6062
  183SLPC   C1420946   6.499   2.315  11.454 -0.4591 -0.1199 -0.3787
  183SLPC  H14A20947   6.473   2.419  11.465  0.8627  0.4398 -2.1741
  183SLPC  H14B20948   6.414   2.274  11.401  0.1216 -1.8186 -0.0774
  183SLPC  H14C20949   6.519   2.273  11.551 -1.7416  0.5796  0.2166
  183SLPC   C1520950   6.648   2.152  11.363 -0.5684 -0.6964  0.2020
  183SLPC  H15A20951   6.647   2.098  11.456  0.8368  0.7773  1.1165
  183SLPC  H15B20952   6.571   2.115  11.295 -0.6979 -0.4423  0.2077
  183SLPC  H15C20953   6.742   2.139  11.311  0.2576  2.0611  0.8511
  183SLPC   C1220954   6.627   2.365  11.247 -0.1374 -0.5643  0.4274
  183SLPC  H12A20955   6.585   2.462  11.268 -1.9714 -2.0776  4.8362
  183SLPC  H12B20956   6.558   2.316  11.180 -1.6544  0.7019  0.9859
  183SLPC   C1120957   6.756   2.370  11.163  0.3723 -0.3019  0.4489
  183SLPC  H11A20958   6.847   2.414  11.211 -0.0721  0.7463  0.3710
  183SLPC  H11B20959   6.746   2.426  11.067 -1.0215 -0.1252  0.6671
  183SLPC     P20960   6.707   2.169  11.014  0.3738 -0.3239  0.1808
  183SLPC   O1320961   6.764   2.038  10.981  0.1826  0.4168  0.3935
  183SLPC   O1420962   6.568   2.161  11.065  0.1004 -0.1288  0.0817
  183SLPC   O1220963   6.794   2.239  11.129 -0.0103  0.0766  0.1492
  183SLPC   O1120964   6.712   2.265  10.894 -0.4960  0.1149  0.0141
  183SLPC    C120965   6.847   2.294  10.844  0.4544 -0.5949  0.1081
  183SLPC    HA20966   6.856   2.404  10.853  1.9469 -0.7809  1.2624
  183SLPC    HB20967   6.934   2.259  10.903  0.1836 -0.9643  0.2884
  183SLPC    C220968   6.875   2.252  10.698 -0.0184  0.8101  0.4886
  183SLPC    HS20969   6.973   2.295  10.669  0.4635 -0.8723 -0.5087
  183SLPC   O2120970   6.767   2.288  10.610  0.2794 -0.3582 -0.1856
  183SLPC   C2120971   6.783   2.402  10.560  0.5533  0.2768  0.3067
  183SLPC   O2220972   6.870   2.487  10.590  0.7208  0.2856 -0.0251
  183SLPC   C2220973   6.693   2.415  10.437 -0.2777 -0.4467  0.2235
  183SLPC   H2R20974   6.642   2.317  10.419 -1.5312 -0.1213  1.7246
  183SLPC   H2S20975   6.609   2.483  10.462  0.2060  0.6817 -1.1490
  183SLPC    C320976   6.892   2.094  10.679 -0.2827 -0.2122 -0.2251
  183SLPC    HX20977   6.799   2.042  10.710  0.4389 -0.9354  0.7549
  183SLPC    HY20978   6.981   2.074  10.741 -0.3462  1.0693  0.3194
  183SLPC   O3120979   6.927   2.064  10.549  0.6133 -0.6389 -0.2469
  183SLPC   C3120980   6.963   1.934  10.530  0.0979 -0.1645 -0.3322
  183SLPC   O3220981   6.954   1.849  10.620 -0.9274 -0.7090 -0.5945
  183SLPC   C3220982   7.006   1.913  10.389  0.2101  0.2178 -0.9574
  183SLPC   H2X20983   7.110   1.949  10.371  1.4872 -3.3716 -1.4507
  183SLPC   H2Y20984   6.925   1.951  10.322  0.0220 -2.5730 -2.4600
  183SLPC   C2320985   6.759   2.475  10.315  0.6105  0.7916 -0.4341
  183SLPC   H3R20986   6.858   2.432  10.288  0.7798  0.7563  0.2131
  183SLPC   H3S20987   6.779   2.584  10.326 -1.1295  1.2373 -1.3282
  183SLPC   C2420988   6.666   2.468  10.191 -0.5345 -0.5060 -0.6219
  183SLPC   H4R20989   6.566   2.507  10.221 -0.5267 -1.2937  0.4877
  183SLPC   H4S20990   6.646   2.364  10.158 -1.8151 -0.8516  1.1005
  183SLPC   C2520991   6.714   2.558  10.081  0.2710  0.0512  0.6201
  183SLPC   H5R20992   6.809   2.520  10.039  1.4472  2.3812  1.0096
  183SLPC   H5S20993   6.729   2.658  10.127 -0.9641  1.0149 -0.9698
  183SLPC   C2620994   6.609   2.569   9.967 -0.6891 -0.0193  0.2189
  183SLPC   H6R20995   6.519   2.623  10.005 -0.1845  0.1867  1.1552
  183SLPC   H6S20996   6.575   2.469   9.935  2.8248 -1.4798  0.6344
  183SLPC   C2720997   6.665   2.648   9.851 -0.2616  1.0401  0.3537
  183SLPC   H7R20998   6.712   2.735   9.900  0.5917  0.0438  1.3455
  183SLPC   H7S20999   6.578   2.692   9.797  0.9375  1.8398 -1.0366
  183SLPC   C2821000   6.756   2.569   9.759 -0.1674  0.1110 -0.3207
  183SLPC   H8R21001   6.713   2.469   9.734 -0.7176  0.6653 -1.6740
  183SLPC   H8S21002   6.852   2.565   9.815 -0.9316 -1.1863  0.9698
  183SLPC   C2921003   6.772   2.656   9.640 -0.6340  0.0236  0.4373
  183SLPC   H9R21004   6.755   2.765   9.649  2.5789  0.5760  0.9353
  183SLPC  C21021005   6.809   2.606   9.517  0.0427  0.0749 -0.1842
  183SLPC  H10R21006   6.820   2.680   9.437 -0.1928  1.2305  0.8067
  183SLPC  C21121007   6.861   2.468   9.493 -0.5775  0.0157 -0.1173
  183SLPC  H11R21008   6.776   2.401   9.466 -2.0125  1.5519  0.4103
  183SLPC  H11S21009   6.891   2.429   9.593 -1.3658 -1.6606 -0.4895
  183SLPC  C21221010   6.978   2.463   9.400 -0.1900  0.8542 -0.2953
  183SLPC  H12R21011   7.071   2.491   9.452 -0.5756  0.6669  0.5248
  183SLPC  C21321012   6.975   2.465   9.267  0.7532  0.1880 -0.7779
  183SLPC  H13R21013   7.071   2.464   9.212  0.4983  2.4976 -1.3556
  183SLPC  C21421014   6.852   2.472   9.184 -0.3865  0.1735 -0.0716
  183SLPC  H14R21015   6.762   2.468   9.249 -0.7824  1.5796 -0.5128
  183SLPC  H14S21016   6.860   2.393   9.106  2.0837  0.5569 -0.2617
  183SLPC  C21521017   6.830   2.615   9.116  0.1838  0.4803  0.2182
  183SLPC  H15R21018   6.872   2.690   9.186 -0.6336  1.8001 -0.6684
  183SLPC  H15S21019   6.724   2.619   9.084  0.5856 -0.4433 -1.3465
  183SLPC  C21621020   6.924   2.627   8.996  0.8514  0.2962 -0.2910
  183SLPC  H16R21021   6.882   2.597   8.898  2.9655  2.1910 -1.8863
  183SLPC  H16S21022   7.015   2.573   9.030 -0.9245 -4.0593 -1.7033
  183SLPC  C21721023   6.957   2.774   8.980 -0.2113  0.6413 -0.1626
  183SLPC  H17R21024   7.010   2.809   9.071 -1.3179  0.9400  0.3882
  183SLPC  H17S21025   6.858   2.825   8.974 -0.5664  0.6869  3.4072
  183SLPC  C21821026   7.045   2.795   8.851  0.3851  0.5160 -0.5568
  183SLPC  H18R21027   7.049   2.901   8.816  0.5178  0.2280 -1.4452
  183SLPC  H18S21028   6.997   2.747   8.763  1.8452 -0.9149 -0.6104
  183SLPC  H18T21029   7.143   2.744   8.850  0.0766 -0.0925  0.1760
  183SLPC   C3321030   7.025   1.762  10.343  0.0358  0.0651  0.4553
  183SLPC   H3X21031   6.937   1.694  10.351 -0.1581  0.0927 -1.1030
  183SLPC   H3Y21032   7.100   1.709  10.406  0.2976 -0.6418 -0.4284
  183SLPC   C3421033   7.057   1.739  10.195 -0.0001  0.1868 -0.1012
  183SLPC   H4X21034   7.063   1.629  10.181  1.0849  0.3699 -1.2415
  183SLPC   H4Y21035   7.161   1.776  10.188  0.4011 -0.0456  2.9092
  183SLPC   C3521036   6.967   1.794  10.088 -0.0003 -0.3324 -0.4551
  183SLPC   H5X21037   6.976   1.904  10.076 -0.1579 -0.3801 -1.0855
  183SLPC   H5Y21038   6.866   1.778  10.131  0.0166 -1.2799 -0.7514
  183SLPC   C3621039   6.964   1.702   9.965  0.4327 -0.3012  0.0518
  183SLPC   H6X21040   6.878   1.718   9.896 -0.0538  4.5938  1.4355
  183SLPC   H6Y21041   6.942   1.601  10.006 -0.1394 -0.6363 -1.0237
  183SLPC   C3721042   7.087   1.719   9.888 -0.5995  0.8723  0.5011
  183SLPC   H7X21043   7.183   1.707   9.944  0.3648  0.6008 -1.1648
  183SLPC   H7Y21044   7.091   1.829   9.870 -0.0626  0.8973  0.7403
  183SLPC   C3821045   7.102   1.648   9.755 -0.7534 -0.4134  0.3004
  183SLPC   H8X21046   7.014   1.673   9.691  0.6599  0.8935 -1.2090
  183SLPC   H8Y21047   7.089   1.538   9.771  0.1670 -0.7899 -1.3085
  183SLPC   C3921048   7.231   1.690   9.671  0.6226 -0.0860 -0.5102
  183SLPC   H9X21049   7.314   1.628   9.711 -0.0297 -2.6339 -2.8033
  183SLPC   H9Y21050   7.252   1.800   9.669  0.9294 -0.1022  0.8012
  183SLPC  C31021051   7.217   1.662   9.519  0.6147  0.1200  0.2867
  183SLPC  H10X21052   7.141   1.732   9.478  0.5030  0.0906  0.4433
  183SLPC  H10Y21053   7.185   1.559   9.492  0.5499  0.5742 -1.4860
  183SLPC  C31121054   7.345   1.674   9.438  0.4471  0.0895  0.1487
  183SLPC  H11X21055   7.419   1.601   9.478  0.4334  0.4578  0.8570
  183SLPC  H11Y21056   7.397   1.771   9.451 -0.3356  0.6085 -0.4672
  183SLPC  C31221057   7.328   1.642   9.293  0.3797  0.2830  0.3755
  183SLPC  H12X21058   7.293   1.736   9.246 -1.0221 -0.2882  0.2155
  183SLPC  H12Y21059   7.253   1.561   9.283 -1.0415  1.5129  0.7245
  183SLPC  C31321060   7.453   1.602   9.219 -0.3555 -0.5304 -0.0717
  183SLPC  H13X21061   7.486   1.500   9.250 -2.7942 -1.5735 -0.6803
  183SLPC  H13Y21062   7.532   1.677   9.244 -0.7472 -0.4934  1.1153
  183SLPC  C31421063   7.440   1.611   9.066 -0.6266  0.4572  0.8733
  183SLPC  H14X21064   7.540   1.595   9.021 -0.7619  0.2974  0.6305
  183SLPC  H14Y21065   7.403   1.711   9.034 -1.3070 -0.0954 -0.1045
  183SLPC  C31521066   7.358   1.493   9.002 -0.5070  0.3833 -0.4670
  183SLPC  H15X21067   7.258   1.501   9.048 -0.0846  0.5048  0.4576
  183SLPC  H15Y21068   7.404   1.397   9.035  1.9247  1.8596  0.7520
  183SLPC  C31621069   7.367   1.504   8.848  0.7077 -0.4842  0.5782
  183SLPC  H16X21070   7.468   1.518   8.805  0.3327 -0.6919 -0.3883
  183SLPC  H16Y21071   7.308   1.598   8.834 -0.2508 -1.1127  0.3272
  183SLPC  C31721072   7.294   1.393   8.775  0.0895 -0.0826  0.7145
  183SLPC  H17X21073   7.189   1.389   8.810  0.0294  0.1301  0.5568
  183SLPC  H17Y21074   7.338   1.291   8.785  2.2837  0.7864  0.5765
  183SLPC  C31821075   7.285   1.428   8.620 -0.0476 -0.2374  0.2722
  183SLPC  H18X21076   7.389   1.442   8.586 -0.3582  1.5141 -0.0737
  183SLPC  H18Y21077   7.231   1.524   8.605 -0.0202  0.1021  2.0992
  183SLPC  H18Z21078   7.254   1.343   8.554  2.1589 -1.4928  0.7696
  184SLPC     N21079   1.923   5.448  10.513 -0.4764  0.0085  0.2494
  184SLPC   C1321080   1.991   5.553  10.428 -0.0137 -0.9109 -0.3406
  184SLPC  H13A21081   1.994   5.652  10.472 -0.2002 -0.4529 -1.3275
  184SLPC  H13B21082   2.094   5.525  10.410 -0.0510 -3.2047  2.3571
  184SLPC  H13C21083   1.949   5.551  10.329 -2.7415 -1.4327  0.7451
  184SLPC   C1421084   1.790   5.498  10.545  0.0637  0.0321  0.0307
  184SLPC  H14A21085   1.732   5.487  10.455  1.4195 -0.2128 -0.8425
  184SLPC  H14B21086   1.732   5.449  10.622  0.0370  0.8662  0.5621
  184SLPC  H14C21087   1.783   5.605  10.562 -3.7097 -0.1342  0.2688
  184SLPC   C1521088   2.003   5.430  10.643  0.7800 -1.0561 -0.2275
  184SLPC  H15A21089   2.110   5.429  10.629  1.0363  0.6964  1.3123
  184SLPC  H15B21090   1.980   5.508  10.714  1.0940 -0.3649 -0.8712
  184SLPC  H15C21091   1.965   5.344  10.697  0.1803 -0.2330  0.6988
  184SLPC   C1221092   1.927   5.320  10.432 -0.2151 -0.4302 -0.2387
  184SLPC  H12A21093   1.882   5.246  10.496  0.4642 -1.1735 -0.6083
  184SLPC  H12B21094   2.029   5.299  10.406  0.0640  1.1790 -0.5815
  184SLPC   C1121095   1.846   5.322  10.306  0.7162 -0.4049  0.8394
  184SLPC  H11A21096   1.885   5.231  10.256 -0.6261 -2.1585  2.8096
  184SLPC  H11B21097   1.880   5.399  10.233  0.0339 -1.9018 -1.1406
  184SLPC     P21098   1.631   5.202  10.375  0.4659 -0.1297 -0.3694
  184SLPC   O1321099   1.716   5.102  10.450 -0.3182 -0.4207  1.3069
  184SLPC   O1421100   1.521   5.258  10.456 -0.4635 -0.0543  0.1983
  184SLPC   O1221101   1.713   5.328  10.327 -0.0364 -0.2482  0.6471
  184SLPC   O1121102   1.568   5.130  10.245  0.0928 -0.1245  0.1470
  184SLPC    C121103   1.513   5.212  10.144 -0.1207  0.5622  0.5908
  184SLPC    HA21104   1.419   5.260  10.177 -1.4332 -0.2588 -1.7117
  184SLPC    HB21105   1.584   5.290  10.107  0.2872  0.1402  0.4763
  184SLPC    C221106   1.485   5.126  10.017  0.3528  0.8289  0.3754
  184SLPC    HS21107   1.464   5.195   9.932  2.7248  0.3374 -0.6681
  184SLPC   O2121108   1.382   5.024  10.043  0.0369  0.1590  0.0491
  184SLPC   C2121109   1.319   4.982   9.932 -0.0949 -0.4769  0.1513
  184SLPC   O2221110   1.328   5.041   9.822 -0.1147 -0.0133 -0.5985
  184SLPC   C2221111   1.235   4.865   9.974  0.4308  0.0076  0.6801
  184SLPC   H2R21112   1.299   4.809  10.046 -1.2177 -2.4068  0.3832
  184SLPC   H2S21113   1.142   4.909  10.017  1.0293  0.2703  1.7618
  184SLPC    C321114   1.614   5.046   9.979  0.1733 -0.1328 -0.0441
  184SLPC    HX21115   1.641   4.958  10.041 -0.5784  0.7121  1.5507
  184SLPC    HY21116   1.700   5.114   9.995  0.5855 -0.6690  0.0374
  184SLPC   O3121117   1.627   5.012   9.837 -0.3346 -0.2829  0.4539
  184SLPC   C3121118   1.604   4.883   9.801 -0.2813 -0.0806  0.1717
  184SLPC   O3221119   1.565   4.789   9.870  0.3193 -0.1091 -0.0180
  184SLPC   C3221120   1.630   4.875   9.651  0.7185 -0.2910 -0.0935
  184SLPC   H2X21121   1.736   4.875   9.619  0.1901 -2.3191 -2.1434
  184SLPC   H2Y21122   1.603   4.976   9.615  1.2052 -0.3391 -0.6082
  184SLPC   C2321123   1.214   4.766   9.852 -0.3502  0.1807  0.3024
  184SLPC   H3R21124   1.191   4.661   9.880  0.4623 -0.4326 -1.2356
  184SLPC   H3S21125   1.299   4.777   9.782 -0.1937  0.7307  0.5701
  184SLPC   C2421126   1.089   4.799   9.766 -0.2919 -0.2588  0.3663
  184SLPC   H4R21127   1.114   4.901   9.729 -0.3276 -0.2850  0.2711
  184SLPC   H4S21128   1.004   4.801   9.838 -1.1169  0.6664 -0.6102
  184SLPC   C2521129   1.061   4.700   9.647  0.1862  0.4803  0.0176
  184SLPC   H5R21130   1.049   4.595   9.679  0.6568 -0.1756 -1.8331
  184SLPC   H5S21131   1.155   4.697   9.587 -0.3909  1.1627 -0.9533
  184SLPC   C2621132   0.942   4.740   9.560  0.0244 -0.1603 -0.2775
  184SLPC   H6R21133   0.947   4.673   9.472 -0.6176 -1.4383  0.6187
  184SLPC   H6S21134   0.949   4.848   9.535  1.3462 -0.4795 -1.4068
  184SLPC   C2721135   0.810   4.721   9.630  0.0955  0.2050  0.1059
  184SLPC   H7R21136   0.819   4.789   9.717  0.0797  2.9254 -1.9025
  184SLPC   H7S21137   0.792   4.623   9.679 -2.5651  0.6148  0.0497
  184SLPC   C2821138   0.686   4.747   9.541  0.0770  0.1030  0.0095
  184SLPC   H8R21139   0.598   4.746   9.609 -1.6430 -1.3330 -2.0747
  184SLPC   H8S21140   0.679   4.658   9.475  0.1100 -0.6781  1.0356
  184SLPC   C2921141   0.691   4.881   9.466 -0.3832 -0.6385 -0.1687
  184SLPC   H9R21142   0.667   4.968   9.529 -2.2848 -1.6568  0.5949
  184SLPC  C21021143   0.720   4.888   9.336  0.1133  0.1690  0.2935
  184SLPC  H10R21144   0.736   4.988   9.294  0.2259  0.9801  2.1471
  184SLPC  C21121145   0.736   4.767   9.243  0.6450  1.0498  0.3843
  184SLPC  H11R21146   0.652   4.694   9.241  2.0817 -0.6495 -0.4438
  184SLPC  H11S21147   0.817   4.701   9.281 -1.4360 -1.7320  0.3038
  184SLPC  C21221148   0.760   4.796   9.101  0.0095  0.2615  0.4068
  184SLPC  H12R21149   0.676   4.840   9.046  2.0086  0.4260 -2.7855
  184SLPC  C21321150   0.875   4.785   9.025  0.1401  0.2625  0.2468
  184SLPC  H13R21151   0.868   4.820   8.920 -0.9065 -2.5007 -0.6880
  184SLPC  C21421152   1.008   4.735   9.068  0.8155  0.7834  0.4746
  184SLPC  H14R21153   1.036   4.772   9.169  0.6496  0.7019  0.5516
  184SLPC  H14S21154   1.081   4.778   8.996  1.1147  1.3819  1.1251
  184SLPC  C21521155   1.031   4.581   9.068  0.5041  0.2369 -0.6977
  184SLPC  H15R21156   0.968   4.521   9.139  0.4648  0.8074 -0.2444
  184SLPC  H15S21157   1.138   4.559   9.089  0.9028  2.2586 -0.4778
  184SLPC  C21621158   1.024   4.530   8.925 -0.9128 -0.2388  0.4201
  184SLPC  H16R21159   1.107   4.457   8.912  1.0688  1.9213  0.3169
  184SLPC  H16S21160   1.036   4.610   8.849 -1.8926  0.2472  0.7522
  184SLPC  C21721161   0.897   4.445   8.904 -1.2153  0.1311  0.4298
  184SLPC  H17R21162   0.813   4.509   8.939 -1.1384  0.6788 -0.3395
  184SLPC  H17S21163   0.900   4.348   8.957 -1.1369 -1.3701 -2.1326
  184SLPC  C21821164   0.887   4.419   8.754  0.0736 -0.0528  0.3872
  184SLPC  H18R21165   0.783   4.385   8.737  0.0764 -0.1397  0.5445
  184SLPC  H18S21166   0.964   4.344   8.727 -0.8524 -0.9259  0.1433
  184SLPC  H18T21167   0.900   4.515   8.699 -1.5736  0.0737  0.1785
  184SLPC   C3321168   1.547   4.764   9.586 -0.2481  0.1754 -0.3995
  184SLPC   H3X21169   1.445   4.769   9.627 -0.0723  0.7015 -0.0158
  184SLPC   H3Y21170   1.589   4.663   9.609 -1.4657 -0.4705 -0.9552
  184SLPC   C3421171   1.538   4.777   9.434  0.3310  0.9442 -0.2071
  184SLPC   H4X21172   1.633   4.769   9.375 -1.7855  1.5602 -4.0426
  184SLPC   H4Y21173   1.499   4.880   9.414 -1.2646  0.7724  1.7865
  184SLPC   C3521174   1.420   4.692   9.372 -0.5830  0.1685  0.0478
  184SLPC   H5X21175   1.325   4.737   9.409  0.7564  3.3765 -0.0353
  184SLPC   H5Y21176   1.430   4.586   9.404  2.5174 -0.1598 -1.5817
  184SLPC   C3621177   1.414   4.691   9.221  0.2133 -0.1818  0.3273
  184SLPC   H6X21178   1.330   4.639   9.172  0.3054 -0.7118  0.7170
  184SLPC   H6Y21179   1.505   4.634   9.192 -0.5017  0.1101 -2.7993
  184SLPC   C3721180   1.446   4.823   9.145 -0.9565 -0.6965 -0.2768
  184SLPC   H7X21181   1.554   4.839   9.168 -1.2173 -1.8257  1.8978
  184SLPC   H7Y21182   1.381   4.907   9.177  1.3328  1.2170 -0.3427
  184SLPC   C3821183   1.433   4.791   8.994 -0.4283 -0.4436 -0.2220
  184SLPC   H8X21184   1.346   4.724   8.974 -1.5558  1.0563 -0.5892
  184SLPC   H8Y21185   1.517   4.722   8.975 -1.0185 -1.5919  1.1878
  184SLPC   C3921186   1.431   4.909   8.898  0.0576 -0.1589 -0.3211
  184SLPC   H9X21187   1.446   4.883   8.791 -0.8951  0.2492 -0.5621
  184SLPC   H9Y21188   1.515   4.978   8.925  1.6346 -1.4971 -1.5580
  184SLPC  C31021189   1.301   4.992   8.905 -0.2009 -0.4173 -0.3637
  184SLPC  H10X21190   1.284   5.025   9.009 -0.1416  2.4317 -1.1945
  184SLPC  H10Y21191   1.218   4.921   8.883 -1.7889  1.1361  0.3846
  184SLPC  C31121192   1.303   5.122   8.824  0.4381  0.2795 -0.2188
  184SLPC  H11X21193   1.408   5.154   8.844  0.1811  0.2787  1.2135
  184SLPC  H11Y21194   1.230   5.192   8.870 -0.9884  0.0862 -2.0700
  184SLPC  C31221195   1.271   5.111   8.672 -0.0234 -0.6327 -0.2593
  184SLPC  H12X21196   1.324   5.017   8.643 -0.9858 -0.7185 -1.7832
  184SLPC  H12Y21197   1.314   5.200   8.621 -1.2328  1.2594  1.8394
  184SLPC  C31321198   1.121   5.101   8.646  0.1896 -0.2391  0.4935
  184SLPC  H13X21199   1.066   5.195   8.670  0.1258 -0.5588  1.6527
  184SLPC  H13Y21200   1.075   5.037   8.724 -0.5528  0.0847  0.3323
  184SLPC  C31421201   1.092   5.051   8.501  0.4114 -0.1921 -0.1716
  184SLPC  H14X21202   1.147   4.956   8.487 -2.3981 -1.6670 -2.0417
  184SLPC  H14Y21203   1.124   5.129   8.429 -1.3502  1.9031  1.1363
  184SLPC  C31521204   0.942   5.032   8.471 -0.0914 -0.4710  0.7928
  184SLPC  H15X21205   0.895   5.131   8.491 -0.3804  0.2206 -2.7213
  184SLPC  H15Y21206   0.896   4.959   8.541  1.9124 -0.6135  2.0566
  184SLPC  C31621207   0.927   4.981   8.330 -0.0649  0.7082 -0.0567
  184SLPC  H16X21208   1.026   4.990   8.281  0.3120 -0.7546  0.4051
  184SLPC  H16Y21209   0.857   5.041   8.268 -0.2795 -2.2695 -2.9663
  184SLPC  C31721210   0.879   4.842   8.322  0.1449 -0.9412  0.2369
  184SLPC  H17X21211   0.879   4.822   8.213  0.8225 -0.0875  0.0706
  184SLPC  H17Y21212   0.786   4.818   8.378  0.7549 -0.3236  1.5564
  184SLPC  C31821213   0.975   4.740   8.379  0.1762 -0.3295  0.7657
  184SLPC  H18X21214   0.947   4.634   8.358  1.5107 -0.1878 -2.1578
  184SLPC  H18Y21215   0.970   4.756   8.489 -1.1099  1.2659  0.5022
  184SLPC  H18Z21216   1.080   4.751   8.347  0.4603 -1.1082  1.3990
  185SLPC     N21217   6.812   2.338   6.578 -0.2615  0.3276  0.2550
  185SLPC   C1321218   6.793   2.404   6.709 -0.2717 -0.1886 -0.6832
  185SLPC  H13A21219   6.741   2.498   6.709 -1.6880 -0.9262  0.5859
  185SLPC  H13B21220   6.734   2.345   6.777 -0.1914  0.2984 -0.1866
  185SLPC  H13C21221   6.889   2.411   6.758 -1.5050 -0.2017  1.8685
  185SLPC   C1421222   6.694   2.347   6.485 -0.7552 -0.8948 -0.2157
  185SLPC  H14A21223   6.605   2.312   6.535  0.0031 -1.3603  0.8442
  185SLPC  H14B21224   6.680   2.449   6.450 -2.0476 -0.9552  0.0896
  185SLPC  H14C21225   6.705   2.297   6.390  0.4432 -1.0641 -0.0037
  185SLPC   C1521226   6.839   2.193   6.599 -0.0265  0.4384 -0.8934
  185SLPC  H15A21227   6.774   2.143   6.669 -0.0458  1.9874  0.2579
  185SLPC  H15B21228   6.811   2.141   6.509 -1.0550  0.5757 -0.6645
  185SLPC  H15C21229   6.937   2.177   6.642 -0.2945 -0.4804 -0.5882
  185SLPC   C1221230   6.939   2.400   6.508  0.1793  0.8531 -0.1106
  185SLPC  H12A21231   6.913   2.504   6.522 -1.8308  0.3979 -0.0836
  185SLPC  H12B21232   6.932   2.372   6.404  1.7977  2.6172 -0.7576
  185SLPC   C1121233   7.078   2.360   6.563 -0.3557  0.6117 -0.1249
  185SLPC  H11A21234   7.072   2.357   6.674  1.2488 -1.6337 -0.0280
  185SLPC  H11B21235   7.144   2.443   6.532 -0.8835  0.5750 -1.3848
  185SLPC     P21236   7.199   2.214   6.391 -0.5123  0.1980 -0.2797
  185SLPC   O1321237   7.203   2.075   6.353 -0.2689  0.3681 -0.2322
  185SLPC   O1421238   7.158   2.311   6.289 -0.4475  0.0554  0.4995
  185SLPC   O1221239   7.115   2.233   6.519 -0.1202 -0.1055  0.2173
  185SLPC   O1121240   7.336   2.258   6.458 -0.3428 -0.3172  0.1265
  185SLPC    C121241   7.420   2.159   6.519 -0.3599 -0.1521 -0.1210
  185SLPC    HA21242   7.449   2.067   6.463  0.2333 -1.5724  2.3674
  185SLPC    HB21243   7.515   2.209   6.547 -0.7453  2.0350 -2.4133
  185SLPC    C221244   7.364   2.104   6.656  0.0520 -0.1011 -0.2009
  185SLPC    HS21245   7.259   2.074   6.635 -0.6433 -1.1180  3.9354
  185SLPC   O2121246   7.369   2.217   6.749  0.3774 -0.3565 -0.1803
  185SLPC   C2121247   7.276   2.221   6.841  0.5295 -0.0423  0.7422
  185SLPC   O2221248   7.182   2.146   6.855 -0.0782  0.4833  0.3324
  185SLPC   C2221249   7.292   2.351   6.915  0.5745  0.2003  0.6027
  185SLPC   H2R21250   7.392   2.397   6.896  0.5277  0.9132  1.9847
  185SLPC   H2S21251   7.226   2.421   6.859 -1.4335 -0.9671  1.4137
  185SLPC    C321252   7.443   1.985   6.716 -0.1870  0.8810 -0.1576
  185SLPC    HX21253   7.542   2.033   6.732  0.2183  0.7232 -2.0259
  185SLPC    HY21254   7.471   1.903   6.647  1.3094  0.3088  1.0881
  185SLPC   O3121255   7.391   1.931   6.839 -0.6998  0.5571 -0.2835
  185SLPC   C3121256   7.308   1.827   6.838  0.3780 -0.3354 -0.1093
  185SLPC   O3221257   7.251   1.776   6.745  0.1248  0.1362  0.1064
  185SLPC   C3221258   7.274   1.784   6.978  0.4861 -0.1655  0.4326
  185SLPC   H2X21259   7.275   1.873   7.045 -0.0230  0.9473 -0.9732
  185SLPC   H2Y21260   7.363   1.730   7.017  0.9312 -0.3750 -0.8455
  185SLPC   C2321261   7.251   2.349   7.067 -0.4133 -0.1855 -0.6492
  185SLPC   H3R21262   7.325   2.286   7.120 -0.2814  2.0454  2.0548
  185SLPC   H3S21263   7.160   2.287   7.080 -0.9850  0.6613 -0.5401
  185SLPC   C2421264   7.209   2.484   7.125 -0.0808 -0.4168  0.6441
  185SLPC   H4R21265   7.119   2.505   7.063 -0.4046 -3.8542 -0.2603
  185SLPC   H4S21266   7.288   2.560   7.107 -1.3651  0.9676  0.6636
  185SLPC   C2521267   7.175   2.469   7.279  0.6009 -0.3439  0.4086
  185SLPC   H5R21268   7.264   2.424   7.327  0.2345  0.2084  1.6594
  185SLPC   H5S21269   7.090   2.398   7.284  0.1810 -0.2078 -2.6530
  185SLPC   C2621270   7.153   2.612   7.343 -0.5097  0.2427 -0.1195
  185SLPC   H6R21271   7.070   2.660   7.286 -0.4916  0.7872  0.3048
  185SLPC   H6S21272   7.243   2.676   7.338 -1.2225  1.3339  0.5848
  185SLPC   C2721273   7.110   2.612   7.494  0.0392  0.2796 -0.2708
  185SLPC   H7R21274   7.175   2.551   7.560 -1.7562 -1.3617  0.0842
  185SLPC   H7S21275   7.013   2.558   7.499 -0.4856  0.8881 -2.4201
  185SLPC   C2821276   7.106   2.751   7.564 -0.4025 -0.6143  0.2722
  185SLPC   H8R21277   7.054   2.816   7.489  0.6570 -1.6202 -1.4125
  185SLPC   H8S21278   7.211   2.783   7.577 -0.7010  1.0089 -0.9350
  185SLPC   C2921279   7.033   2.728   7.696  0.5858 -0.7848 -0.1129
  185SLPC   H9R21280   6.924   2.719   7.690  0.6389 -0.6884 -1.3823
  185SLPC  C21021281   7.086   2.725   7.816  0.0905  0.4098  0.1741
  185SLPC  H10R21282   7.013   2.712   7.897 -1.7103  2.8102 -0.9301
  185SLPC  C21121283   7.228   2.749   7.862  0.2733 -0.2328  0.9080
  185SLPC  H11R21284   7.304   2.726   7.784  2.1149  3.4841  1.4016
  185SLPC  H11S21285   7.246   2.676   7.944 -0.9494  0.0622  1.4680
  185SLPC  C21221286   7.250   2.890   7.916  0.0179  0.2057  0.4727
  185SLPC  H12R21287   7.250   2.973   7.843  1.2565 -0.8343 -0.7555
  185SLPC  C21321288   7.270   2.915   8.047  0.4266  0.0351  0.3124
  185SLPC  H13R21289   7.279   3.020   8.078 -2.2995  0.1013  1.2143
  185SLPC  C21421290   7.274   2.828   8.165 -0.2951 -0.0009 -0.8777
  185SLPC  H14R21291   7.321   2.731   8.137 -1.0092 -0.7886  0.5375
  185SLPC  H14S21292   7.171   2.806   8.199  0.0075  0.0942  0.1564
  185SLPC  C21521293   7.342   2.879   8.294 -0.3469  0.5427 -0.1966
  185SLPC  H15R21294   7.452   2.893   8.289  0.0523 -1.5457  1.2617
  185SLPC  H15S21295   7.339   2.789   8.360 -0.5799  1.0765  0.5312
  185SLPC  C21621296   7.299   2.997   8.368  0.0923 -0.7731 -0.0955
  185SLPC  H16R21297   7.191   3.020   8.351 -0.0007 -0.7221  0.5216
  185SLPC  H16S21298   7.360   3.082   8.330 -2.4165  0.7500 -0.9563
  185SLPC  C21721299   7.308   2.985   8.525  0.6479  0.5016 -0.2066
  185SLPC  H17R21300   7.240   2.909   8.567  1.9640 -0.0202  1.0831
  185SLPC  H17S21301   7.279   3.078   8.578  0.2875 -0.4669  1.3377
  185SLPC  C21821302   7.450   2.934   8.577 -0.5889 -0.2005 -0.8242
  185SLPC  H18R21303   7.453   2.974   8.680 -3.8811 -2.3728  0.2343
  185SLPC  H18S21304   7.534   2.978   8.518  0.8332 -2.2414 -0.4231
  185SLPC  H18T21305   7.459   2.823   8.580  1.5571 -0.1079 -1.7375
  185SLPC   C3321306   7.139   1.711   6.982  0.2628  0.0092  0.3257
  185SLPC   H3X21307   7.137   1.616   6.925  0.9880 -0.8227  1.6302
  185SLPC   H3Y21308   7.059   1.777   6.943 -0.5919 -0.0333  1.9100
  185SLPC   C3421309   7.113   1.653   7.122  0.6954 -0.4142 -0.7064
  185SLPC   H4X21310   7.194   1.607   7.183 -1.6761 -2.6316  1.0076
  185SLPC   H4Y21311   7.035   1.574   7.115 -0.9149  1.0135  0.2651
  185SLPC   C3521312   7.054   1.769   7.209  0.2241 -0.2007  0.8095
  185SLPC   H5X21313   6.975   1.819   7.149  0.4442  0.2043  0.8568
  185SLPC   H5Y21314   7.129   1.845   7.239  0.7678  0.1487 -1.2646
  185SLPC   C3621315   6.982   1.712   7.328 -0.3178  0.2748  0.4182
  185SLPC   H6X21316   7.039   1.626   7.370 -0.2095 -0.1146 -0.5137
  185SLPC   H6Y21317   6.887   1.659   7.304  0.2546 -0.5407 -0.1110
  185SLPC   C3721318   6.958   1.813   7.443  0.2678 -0.8249  1.0625
  185SLPC   H7X21319   6.879   1.885   7.412 -1.1570 -2.2743  1.1317
  185SLPC   H7Y21320   7.053   1.860   7.475  1.1904 -1.3664 -0.7437
  185SLPC   C3821321   6.907   1.732   7.567 -0.2755 -1.2023 -0.3212
  185SLPC   H8X21322   6.988   1.669   7.610 -0.8862 -2.4343 -0.9333
  185SLPC   H8Y21323   6.831   1.654   7.545 -0.7329 -1.9780  3.3619
  185SLPC   C3921324   6.844   1.828   7.676  0.0715  0.6508  0.0772
  185SLPC   H9X21325   6.789   1.910   7.627 -0.4343 -1.0516 -2.4017
  185SLPC   H9Y21326   6.928   1.873   7.733  0.0396  1.3554 -0.4173
  185SLPC  C31021327   6.735   1.754   7.759 -0.7589 -0.4922 -0.0866
  185SLPC  H10X21328   6.770   1.651   7.786  0.4525  0.0493  0.5096
  185SLPC  H10Y21329   6.639   1.760   7.704 -0.2601  4.6754 -0.8783
  185SLPC  C31121330   6.712   1.835   7.895  0.6689  0.2167  0.2013
  185SLPC  H11X21331   6.631   1.787   7.954 -0.2554  1.0950 -0.3224
  185SLPC  H11Y21332   6.683   1.941   7.882 -0.0786  0.0619  0.6105
  185SLPC  C31221333   6.829   1.841   7.998 -0.3082  0.6330  0.2734
  185SLPC  H12X21334   6.912   1.894   7.947 -0.8566  0.4536 -0.8396
  185SLPC  H12Y21335   6.882   1.744   8.012  1.1490  1.4424  0.6057
  185SLPC  C31321336   6.812   1.914   8.129 -0.2133  0.1272 -1.0666
  185SLPC  H13X21337   6.749   1.853   8.198 -2.9981  1.1488 -2.5429
  185SLPC  H13Y21338   6.758   2.010   8.115 -0.4455  0.7000  2.6515
  185SLPC  C31421339   6.939   1.960   8.213  0.3115  0.2084 -0.0627
  185SLPC  H14X21340   6.996   2.040   8.161  0.4263  2.1423  2.8167
  185SLPC  H14Y21341   7.003   1.872   8.234  0.6219  0.1278 -1.2556
  185SLPC  C31521342   6.920   2.022   8.358  0.0347 -0.1549  0.5921
  185SLPC  H15X21343   6.894   2.130   8.349  2.3520  0.5025  1.0295
  185SLPC  H15Y21344   7.014   2.003   8.414 -0.8506 -1.1926  1.7782
  185SLPC  C31621345   6.811   1.951   8.448  0.3252 -0.1118  1.1280
  185SLPC  H16X21346   6.827   1.841   8.458 -3.2575 -1.1798 -2.3200
  185SLPC  H16Y21347   6.718   1.970   8.390  0.7960 -2.4093 -0.5369
  185SLPC  C31721348   6.801   2.013   8.583  0.2541 -0.5830  0.0712
  185SLPC  H17X21349   6.697   2.051   8.584 -0.3338 -1.9989 -1.5590
  185SLPC  H17Y21350   6.878   2.093   8.592 -1.1974  0.8629 -0.0199
  185SLPC  C31821351   6.813   1.924   8.703 -0.2640  0.4152 -0.7489
  185SLPC  H18X21352   6.778   1.973   8.797 -0.8718  1.1721 -1.3670
  185SLPC  H18Y21353   6.918   1.893   8.723 -0.5960  0.2698  1.0095
  185SLPC  H18Z21354   6.742   1.839   8.699  0.2966 -0.1096  0.0039
  186SLPC     N21355   5.088   4.741   6.447 -0.0233 -0.3825  0.2010
  186SLPC   C1321356   5.217   4.675   6.424  0.4293 -0.2420 -0.6336
  186SLPC  H13A21357   5.214   4.589   6.358  0.4242  0.2092 -1.2365
  186SLPC  H13B21358   5.286   4.750   6.386  1.1961 -0.2238  0.7611
  186SLPC  H13C21359   5.248   4.636   6.519 -2.9975  0.7889  1.0467
  186SLPC   C1421360   4.985   4.650   6.507 -0.3607  0.8724  0.2290
  186SLPC  H14A21361   4.961   4.575   6.433 -2.2197  2.4439 -0.8618
  186SLPC  H14B21362   5.018   4.600   6.597  0.5525  0.8958 -0.0887
  186SLPC  H14C21363   4.894   4.704   6.530  0.7423  2.2364  1.6313
  186SLPC   C1521364   5.023   4.800   6.324 -0.3572 -0.3771 -0.1115
  186SLPC  H15A21365   5.082   4.886   6.296  0.6160 -0.4717  1.5091
  186SLPC  H15B21366   5.031   4.729   6.244  1.4413  1.5248 -1.7300
  186SLPC  H15C21367   4.921   4.835   6.337 -1.1142 -2.2311 -0.7295
  186SLPC   C1221368   5.115   4.853   6.545 -0.0034 -0.5430 -0.1193
  186SLPC  H12A21369   5.142   4.806   6.638  3.4966 -0.6704 -1.0621
  186SLPC  H12B21370   5.026   4.914   6.554  0.2374 -0.0980 -0.6963
  186SLPC   C1121371   5.240   4.949   6.514  0.3472  0.7311  0.0052
  186SLPC  H11A21372   5.330   4.884   6.520 -0.1445  0.1283  1.0986
  186SLPC  H11B21373   5.264   5.007   6.605  0.6216 -0.5272  0.7566
  186SLPC     P21374   5.133   5.157   6.413  0.5145  0.0443  0.1640
  186SLPC   O1321375   5.129   5.238   6.285 -0.6901  0.7167 -0.2699
  186SLPC   O1421376   5.007   5.116   6.475  0.1863 -0.6860 -0.0102
  186SLPC   O1221377   5.228   5.023   6.387 -0.2222 -0.4170  0.1801
  186SLPC   O1121378   5.222   5.225   6.518  0.1259 -0.5308 -0.1365
  186SLPC    C121379   5.211   5.368   6.539 -0.5385  0.3952 -0.6126
  186SLPC    HA21380   5.319   5.396   6.543  0.4245 -3.0408  1.9551
  186SLPC    HB21381   5.171   5.428   6.454  0.9193  1.0074 -0.9122
  186SLPC    C221382   5.146   5.402   6.678  0.0293  0.0731  0.8093
  186SLPC    HS21383   5.183   5.506   6.693  1.5805 -0.4932  1.1490
  186SLPC   O2121384   5.179   5.308   6.779 -0.0975 -0.1801 -0.0752
  186SLPC   C2121385   5.316   5.313   6.811  0.1319  0.0109  0.2205
  186SLPC   O2221386   5.387   5.407   6.781  0.4778 -0.2851 -0.5850
  186SLPC   C2221387   5.349   5.190   6.883  1.0313 -0.1387 -0.7125
  186SLPC   H2R21388   5.317   5.200   6.989  1.4206 -1.9095 -0.3889
  186SLPC   H2S21389   5.297   5.100   6.843  0.5961 -1.0953  1.8233
  186SLPC    C321390   4.987   5.411   6.673 -0.2006  0.1391 -0.5235
  186SLPC    HX21391   4.956   5.308   6.645 -0.7044 -1.1691  4.0156
  186SLPC    HY21392   4.942   5.462   6.586 -0.5333  0.2088 -0.3150
  186SLPC   O3121393   4.934   5.457   6.795  0.2819 -0.2370  0.6073
  186SLPC   C3121394   4.842   5.378   6.861  0.1716  0.1121 -0.0473
  186SLPC   O3221395   4.802   5.270   6.825  0.2599  0.4515 -0.0529
  186SLPC   C3221396   4.814   5.445   6.995 -0.3597 -0.1869 -0.0060
  186SLPC   H2X21397   4.793   5.552   6.977  1.0372  0.1105  0.0459
  186SLPC   H2Y21398   4.912   5.435   7.048 -0.1796 -0.5342 -0.3962
  186SLPC   C2321399   5.502   5.155   6.897  0.0669  0.5608 -0.6012
  186SLPC   H3R21400   5.550   5.255   6.906  0.0501  0.4039  2.2415
  186SLPC   H3S21401   5.537   5.110   6.802 -0.7668 -2.2974  0.3666
  186SLPC   C2421402   5.544   5.079   7.030  0.4716  0.4995  0.0664
  186SLPC   H4R21403   5.518   4.973   7.009  0.4118  0.8060 -1.4971
  186SLPC   H4S21404   5.488   5.107   7.122  1.8091 -0.4518  1.2090
  186SLPC   C2521405   5.693   5.067   7.048  0.4587  0.1472  0.1284
  186SLPC   H5R21406   5.744   5.099   6.955  0.3353  0.6530  0.2279
  186SLPC   H5S21407   5.715   4.962   7.074 -0.9931 -0.4108 -0.7823
  186SLPC   C2621408   5.763   5.150   7.159  0.4365 -0.1967  0.2077
  186SLPC   H6R21409   5.748   5.259   7.144  2.7644  0.1247 -0.1840
  186SLPC   H6S21410   5.872   5.126   7.157  0.3151 -0.8329 -1.6257
  186SLPC   C2721411   5.710   5.105   7.299 -0.4000  0.0634  0.3178
  186SLPC   H7R21412   5.719   4.995   7.299  0.2255  0.1071 -0.3577
  186SLPC   H7S21413   5.606   5.144   7.311 -0.5336 -0.1385 -0.1439
  186SLPC   C2821414   5.783   5.162   7.417 -0.5437 -0.0346 -0.3988
  186SLPC   H8R21415   5.886   5.120   7.415  0.0945  1.1219  2.6184
  186SLPC   H8S21416   5.745   5.104   7.504 -1.6252  0.2623 -0.6585
  186SLPC   C2921417   5.775   5.306   7.451 -0.2273  0.1678 -0.7918
  186SLPC   H9R21418   5.837   5.371   7.388  1.6551  0.0592  0.8425
  186SLPC  C21021419   5.693   5.364   7.537  0.3411  0.0394  0.2571
  186SLPC  H10R21420   5.699   5.474   7.533 -2.1615  0.1966 -1.6906
  186SLPC  C21121421   5.576   5.298   7.616 -0.4576 -0.4497 -0.8935
  186SLPC  H11R21422   5.626   5.275   7.712  1.1060  1.7588 -1.0887
  186SLPC  H11S21423   5.542   5.203   7.569  1.0639 -1.3308 -0.2842
  186SLPC  C21221424   5.467   5.397   7.630 -0.7337 -0.7367 -0.3817
  186SLPC  H12R21425   5.438   5.447   7.536  0.8293  1.8901  0.4315
  186SLPC  C21321426   5.416   5.439   7.751  0.0311 -0.6180 -0.1063
  186SLPC  H13R21427   5.325   5.500   7.756 -0.9043 -1.9964  0.0576
  186SLPC  C21421428   5.452   5.382   7.888  0.4243 -0.6159 -0.6672
  186SLPC  H14R21429   5.547   5.433   7.913  0.6266 -0.0816 -2.3673
  186SLPC  H14S21430   5.453   5.272   7.897 -1.1721 -0.7025 -1.1314
  186SLPC  C21521431   5.344   5.434   7.990  0.4957 -0.2566  0.0745
  186SLPC  H15R21432   5.242   5.399   7.964 -1.3914  3.4063  1.7803
  186SLPC  H15S21433   5.344   5.544   7.973  2.0968 -0.1351  0.6554
  186SLPC  C21621434   5.384   5.381   8.131  0.6653  0.2841 -0.0500
  186SLPC  H16R21435   5.387   5.463   8.206 -0.6795 -0.3698  0.7629
  186SLPC  H16S21436   5.486   5.338   8.126  0.0563 -1.0571 -2.0156
  186SLPC  C21721437   5.302   5.268   8.193  0.7061 -0.1897  0.2071
  186SLPC  H17R21438   5.353   5.241   8.288  0.9369  1.9516  0.7531
  186SLPC  H17S21439   5.308   5.179   8.127  1.3818  1.0379 -1.4663
  186SLPC  C21821440   5.144   5.273   8.212 -0.0047  0.3973  0.1277
  186SLPC  H18R21441   5.110   5.358   8.274  0.4365  1.7479 -1.4119
  186SLPC  H18S21442   5.105   5.177   8.252  1.1934  0.8222  2.4435
  186SLPC  H18T21443   5.099   5.304   8.115 -0.3701  0.8899  0.4513
  186SLPC   C3321444   4.704   5.364   7.078 -0.0664 -0.3613  0.2509
  186SLPC   H3X21445   4.724   5.255   7.077  2.8380  0.1072  0.3478
  186SLPC   H3Y21446   4.609   5.398   7.031  0.6407 -0.2419 -1.1520
  186SLPC   C3421447   4.709   5.422   7.226 -0.2168 -0.0026  0.1496
  186SLPC   H4X21448   4.666   5.525   7.230 -0.5981 -0.1818  0.8158
  186SLPC   H4Y21449   4.813   5.442   7.259 -0.5997 -0.8001  1.9930
  186SLPC   C3521450   4.659   5.325   7.335  0.9174  0.3048  0.4967
  186SLPC   H5X21451   4.740   5.254   7.359  1.1027  0.3063 -0.1102
  186SLPC   H5Y21452   4.571   5.262   7.309  1.1876 -0.5483  1.5650
  186SLPC   C3621453   4.623   5.397   7.463  0.3035  0.3316  0.0049
  186SLPC   H6X21454   4.530   5.454   7.444 -0.1178 -0.4330 -0.3012
  186SLPC   H6Y21455   4.713   5.462   7.474 -0.8514  2.1000 -0.5442
  186SLPC   C3721456   4.607   5.311   7.583 -0.9191  0.3505  0.7907
  186SLPC   H7X21457   4.709   5.268   7.598 -0.1372  1.7727 -0.1442
  186SLPC   H7Y21458   4.535   5.229   7.565 -1.0602  0.7841 -0.6982
  186SLPC   C3821459   4.575   5.374   7.717 -0.6149 -0.1610  0.0991
  186SLPC   H8X21460   4.464   5.378   7.731 -0.5103 -2.3364  2.2628
  186SLPC   H8Y21461   4.618   5.476   7.720  0.9774 -0.8381  1.9237
  186SLPC   C3921462   4.637   5.302   7.835  0.0934  0.1117 -0.1762
  186SLPC   H9X21463   4.747   5.295   7.825  0.4562  0.3973  2.6278
  186SLPC   H9Y21464   4.607   5.198   7.858  0.4350  0.2943  1.2199
  186SLPC  C31021465   4.625   5.392   7.958 -0.3953  0.5517  0.5619
  186SLPC  H10X21466   4.518   5.417   7.976 -0.3677  0.9729  0.1387
  186SLPC  H10Y21467   4.684   5.484   7.941 -0.6876  0.6981  0.3254
  186SLPC  C31121468   4.672   5.317   8.079 -0.2187 -0.6532 -0.5841
  186SLPC  H11X21469   4.775   5.284   8.055 -0.6511 -2.7061  0.1509
  186SLPC  H11Y21470   4.607   5.227   8.088 -0.4678 -0.3609  0.7936
  186SLPC  C31221471   4.666   5.405   8.209 -0.2192  0.0117  0.0070
  186SLPC  H12X21472   4.727   5.498   8.208 -0.4795  0.1844  0.1680
  186SLPC  H12Y21473   4.715   5.344   8.288  0.5851  2.9350  1.9356
  186SLPC  C31321474   4.528   5.430   8.265  0.1415 -0.3737  0.3120
  186SLPC  H13X21475   4.489   5.510   8.198  0.0182 -0.4955  0.2367
  186SLPC  H13Y21476   4.536   5.479   8.364 -0.6505 -0.1992  0.2985
  186SLPC  C31421477   4.421   5.316   8.252 -0.1899 -0.1221  0.1940
  186SLPC  H14X21478   4.476   5.226   8.286 -0.1477 -0.7938 -1.5698
  186SLPC  H14Y21479   4.398   5.309   8.144 -3.1966 -1.1255  0.7967
  186SLPC  C31521480   4.303   5.350   8.341 -0.0378 -0.1769 -0.2491
  186SLPC  H15X21481   4.345   5.342   8.443  0.7697 -0.3093 -0.5837
  186SLPC  H15Y21482   4.214   5.286   8.322 -2.3141  2.4448  0.8891
  186SLPC  C31621483   4.247   5.489   8.320  0.1556 -0.1639 -0.1428
  186SLPC  H16X21484   4.231   5.506   8.212 -1.3177 -1.0968 -0.0919
  186SLPC  H16Y21485   4.311   5.575   8.349  0.5250 -0.5489  0.2122
  186SLPC  C31721486   4.121   5.526   8.408 -0.2080  0.5807 -0.4348
  186SLPC  H17X21487   4.151   5.506   8.513  3.6279  2.2570 -1.0480
  186SLPC  H17Y21488   4.030   5.467   8.384  1.0172 -3.0968  2.9227
  186SLPC  C31821489   4.077   5.674   8.381 -0.3272 -0.3678  0.3459
  186SLPC  H18X21490   3.984   5.709   8.431  0.1999  0.7788  0.5407
  186SLPC  H18Y21491   4.065   5.689   8.272 -0.3331 -0.9671  0.2602
  186SLPC  H18Z21492   4.154   5.744   8.418 -0.6858  1.7277 -2.5827
  187SLPC     N21493   0.361   6.201   6.262  0.0876 -0.2537 -0.3615
  187SLPC   C1321494   0.259   6.099   6.284  0.2591  0.8442 -0.5033
  187SLPC  H13A21495   0.222   6.070   6.187 -0.6122  3.3766 -1.0009
  187SLPC  H13B21496   0.295   6.019   6.347  0.8264  1.4788 -0.0132
  187SLPC  H13C21497   0.174   6.140   6.338  0.0636  0.3343 -0.4167
  187SLPC   C1421498   0.311   6.297   6.160 -0.0364 -0.5473  0.0353
  187SLPC  H14A21499   0.306   6.243   6.067  1.0749 -0.9919  0.2190
  187SLPC  H14B21500   0.214   6.338   6.184 -0.0114 -0.9617  0.8891
  187SLPC  H14C21501   0.387   6.373   6.148 -0.0253 -0.4483  0.6653
  187SLPC   C1521502   0.485   6.129   6.211 -0.5406 -0.5592 -0.1363
  187SLPC  H15A21503   0.537   6.073   6.287 -0.5932 -0.4486 -0.0181
  187SLPC  H15B21504   0.467   6.068   6.124  1.1181 -2.3426  0.7111
  187SLPC  H15C21505   0.557   6.205   6.183 -2.4363  1.2610 -0.4127
  187SLPC   C1221506   0.396   6.258   6.398  0.4591  0.0891 -0.5580
  187SLPC  H12A21507   0.424   6.177   6.464  0.2735 -0.7462 -1.4749
  187SLPC  H12B21508   0.300   6.297   6.429  0.0277 -1.1938 -0.2154
  187SLPC   C1121509   0.520   6.354   6.402  0.1005 -0.3155  0.2605
  187SLPC  H11A21510   0.607   6.292   6.374 -2.0245 -3.2973 -0.2624
  187SLPC  H11B21511   0.540   6.391   6.505 -1.1409  1.9383 -0.2574
  187SLPC     P21512   0.597   6.551   6.252  0.3186  0.0740  0.6872
  187SLPC   O1321513   0.714   6.472   6.212  0.1110  0.1995 -0.2364
  187SLPC   O1421514   0.537   6.623   6.136 -0.9212  0.0373 -0.4339
  187SLPC   O1221515   0.485   6.460   6.314 -0.0710  0.3367 -0.5812
  187SLPC   O1121516   0.642   6.648   6.363  0.0942  0.3238 -0.2049
  187SLPC    C121517   0.564   6.673   6.486  0.2219 -0.1390 -0.2985
  187SLPC    HA21518   0.523   6.776   6.488 -0.9035 -0.4762 -2.4020
  187SLPC    HB21519   0.480   6.602   6.500  2.1534 -2.7505 -1.1528
  187SLPC    C221520   0.655   6.666   6.611  0.1068 -0.0765  0.1628
  187SLPC    HS21521   0.722   6.755   6.612  1.3946 -1.0091 -0.2674
  187SLPC   O2121522   0.726   6.542   6.590 -0.1729  0.3888  0.0976
  187SLPC   C2121523   0.858   6.551   6.602  0.2518  0.8681 -0.3767
  187SLPC   O2221524   0.921   6.649   6.627  0.4813  0.0385 -0.0810
  187SLPC   C2221525   0.924   6.411   6.578 -0.2471  0.8323 -0.0095
  187SLPC   H2R21526   0.861   6.320   6.589  2.9921 -1.4849  1.4032
  187SLPC   H2S21527   0.957   6.416   6.472  0.2004  2.4862  0.1920
  187SLPC    C321528   0.575   6.657   6.750 -0.1928 -0.3501  0.5098
  187SLPC    HX21529   0.500   6.576   6.741 -1.0917  0.5691 -0.5392
  187SLPC    HY21530   0.530   6.758   6.761 -1.9787 -0.7697 -2.0676
  187SLPC   O3121531   0.669   6.633   6.858  0.4774  0.0427 -0.1126
  187SLPC   C3121532   0.737   6.735   6.910 -0.0035  0.4786  0.1262
  187SLPC   O3221533   0.728   6.851   6.874 -0.5485 -0.0519  0.0906
  187SLPC   C3221534   0.825   6.683   7.023  0.1583  0.0314 -0.4968
  187SLPC   H2X21535   0.899   6.609   6.987  0.5001  0.3436 -0.4485
  187SLPC   H2Y21536   0.759   6.622   7.088  2.8007  0.1819  2.6120
  187SLPC   C2321537   1.058   6.393   6.659  0.5496 -0.9342  0.0629
  187SLPC   H3R21538   1.139   6.445   6.603  1.0760 -3.1623 -1.3938
  187SLPC   H3S21539   1.082   6.285   6.654 -0.3001 -1.0663 -2.2240
  187SLPC   C2421540   1.051   6.451   6.802  0.2751  0.2165 -0.6195
  187SLPC   H4R21541   0.973   6.417   6.873  2.2288  0.5911  1.8720
  187SLPC   H4S21542   1.037   6.561   6.808 -1.5493  0.0354  6.0545
  187SLPC   C2521543   1.170   6.414   6.890 -0.2160  0.5742 -0.3125
  187SLPC   H5R21544   1.265   6.452   6.848  0.2354 -1.0621 -0.8267
  187SLPC   H5S21545   1.188   6.305   6.893  2.1964  0.9105  3.0267
  187SLPC   C2621546   1.144   6.459   7.039 -0.2776 -0.0296  0.8590
  187SLPC   H6R21547   1.064   6.397   7.083 -1.3124 -1.4420 -2.6924
  187SLPC   H6S21548   1.109   6.564   7.033  2.6876  1.0206  0.1932
  187SLPC   C2721549   1.267   6.456   7.128  1.0626  0.0745 -0.0389
  187SLPC   H7R21550   1.322   6.549   7.101  0.5177  1.0259  1.9484
  187SLPC   H7S21551   1.315   6.356   7.129 -0.9374 -0.9481 -0.9798
  187SLPC   C2821552   1.231   6.497   7.273  0.4124 -0.3515  0.2515
  187SLPC   H8R21553   1.154   6.427   7.311 -0.5625 -0.1991 -1.3736
  187SLPC   H8S21554   1.179   6.595   7.276  2.1791  0.6187  0.7495
  187SLPC   C2921555   1.354   6.502   7.351  0.3067 -0.3195  0.1319
  187SLPC   H9R21556   1.446   6.537   7.301  1.2344 -0.1020  1.8931
  187SLPC  C21021557   1.375   6.451   7.476  0.2201  0.5858 -0.5052
  187SLPC  H10R21558   1.471   6.466   7.528 -0.3071  4.7143 -0.3386
  187SLPC  C21121559   1.264   6.374   7.551  0.3059 -0.2255  0.1290
  187SLPC  H11R21560   1.163   6.385   7.506 -1.3594 -3.1616  2.7198
  187SLPC  H11S21561   1.265   6.414   7.655 -0.7812  0.1762  0.0018
  187SLPC  C21221562   1.300   6.228   7.540 -0.4091  0.8504 -0.6188
  187SLPC  H12R21563   1.283   6.176   7.445 -0.9413 -0.7133  0.2927
  187SLPC  C21321564   1.351   6.154   7.639  0.6729  1.2546 -0.2335
  187SLPC  H13R21565   1.373   6.047   7.626 -0.5534  1.1486 -1.6401
  187SLPC  C21421566   1.386   6.209   7.776  0.4139  0.2068 -0.2064
  187SLPC  H14R21567   1.303   6.278   7.802  0.0398  1.0339 -3.2030
  187SLPC  H14S21568   1.475   6.275   7.771 -0.2811  1.3096  1.4056
  187SLPC  C21521569   1.419   6.106   7.887 -0.0901 -0.6146 -0.1404
  187SLPC  H15R21570   1.333   6.035   7.889 -1.5685  1.0473  2.8471
  187SLPC  H15S21571   1.424   6.157   7.985  1.1726  0.0997 -0.5660
  187SLPC  C21621572   1.537   6.028   7.857 -0.5125 -0.3467  0.5808
  187SLPC  H16R21573   1.616   6.104   7.838 -2.8073  1.8668 -0.7173
  187SLPC  H16S21574   1.512   5.968   7.767  0.5238  0.1930 -0.1000
  187SLPC  C21721575   1.592   5.941   7.975 -0.1489  0.4166 -0.8268
  187SLPC  H17R21576   1.679   5.880   7.945  1.6637  1.2956  2.2285
  187SLPC  H17S21577   1.511   5.869   8.000 -1.8123  2.3494 -0.3794
  187SLPC  C21821578   1.642   6.010   8.105  0.7146 -0.8680 -0.1529
  187SLPC  H18R21579   1.560   6.061   8.160 -0.8694 -2.0236 -1.3492
  187SLPC  H18S21580   1.722   6.082   8.077 -0.3584  0.3424 -0.2133
  187SLPC  H18T21581   1.680   5.941   8.184  2.6513 -0.4349 -0.6618
  187SLPC   C3321582   0.881   6.781   7.126  0.5777  0.0704 -0.0041
  187SLPC   H3X21583   0.809   6.859   7.158  0.6583 -0.9140  2.9132
  187SLPC   H3Y21584   0.973   6.827   7.085  0.7700  0.9918  1.3737
  187SLPC   C3421585   0.914   6.702   7.249 -0.2401 -0.1953  0.2337
  187SLPC   H4X21586   0.968   6.612   7.213 -3.1142 -1.4878 -1.2451
  187SLPC   H4Y21587   0.823   6.649   7.285  0.7778 -2.0715  0.1505
  187SLPC   C3521588   0.968   6.780   7.371  0.7521 -0.5677  0.3193
  187SLPC   H5X21589   0.911   6.871   7.398  1.1304 -0.0992 -0.4349
  187SLPC   H5Y21590   1.065   6.815   7.331 -0.0724 -0.2702 -1.4869
  187SLPC   C3621591   0.995   6.692   7.496  1.1101 -0.1702  0.6485
  187SLPC   H6X21592   1.081   6.623   7.478  0.7714 -0.0261 -1.9057
  187SLPC   H6Y21593   0.899   6.637   7.505  1.1772 -0.4898 -0.4256
  187SLPC   C3721594   1.016   6.761   7.634  0.2889  0.8705 -0.6323
  187SLPC   H7X21595   1.088   6.845   7.637  1.4249 -0.1106  0.2296
  187SLPC   H7Y21596   0.918   6.811   7.652  0.9313  1.8128  0.3054
  187SLPC   C3821597   1.057   6.670   7.746 -0.3800 -0.0496 -0.6075
  187SLPC   H8X21598   1.020   6.565   7.737 -0.0825 -0.0768 -1.6241
  187SLPC   H8Y21599   1.013   6.700   7.844 -1.6567 -3.0873 -0.1412
  187SLPC   C3921600   1.209   6.669   7.770 -0.1207 -0.1002  0.0234
  187SLPC   H9X21601   1.258   6.768   7.778 -0.9153  0.3336 -0.3925
  187SLPC   H9Y21602   1.267   6.625   7.686 -0.3978  1.6836 -1.1638
  187SLPC  C31021603   1.246   6.593   7.896  0.0698  0.1241 -0.9142
  187SLPC  H10X21604   1.220   6.486   7.878  0.3922 -0.0699 -0.2753
  187SLPC  H10Y21605   1.189   6.639   7.980  2.2114 -0.2372  0.8288
  187SLPC  C31121606   1.402   6.599   7.932  0.3816  0.2200  0.2727
  187SLPC  H11X21607   1.426   6.707   7.923  3.3014 -0.3680 -0.1929
  187SLPC  H11Y21608   1.464   6.542   7.860 -0.4941 -0.3645 -0.0336
  187SLPC  C31221609   1.431   6.562   8.075 -0.3947  0.4344  0.5318
  187SLPC  H12X21610   1.351   6.600   8.141 -1.2539 -0.4543  0.0274
  187SLPC  H12Y21611   1.529   6.611   8.093 -1.1623  2.7581 -1.1854
  187SLPC  C31321612   1.450   6.413   8.092  0.0833 -0.2847 -0.5461
  187SLPC  H13X21613   1.549   6.392   8.045 -0.5430 -2.2603 -1.0731
  187SLPC  H13Y21614   1.371   6.359   8.036 -0.6216 -0.0297  0.1873
  187SLPC  C31421615   1.451   6.354   8.235  0.1459 -0.6016  0.2947
  187SLPC  H14X21616   1.422   6.247   8.224  0.7339 -0.6702 -0.6997
  187SLPC  H14Y21617   1.361   6.397   8.284  1.6283  2.2359  0.7064
  187SLPC  C31521618   1.567   6.379   8.330 -0.4301 -0.2679  0.8235
  187SLPC  H15X21619   1.598   6.485   8.321 -1.6453 -0.0537 -1.4899
  187SLPC  H15Y21620   1.651   6.323   8.284 -2.3463 -2.5780 -0.0270
  187SLPC  C31621621   1.553   6.349   8.481  0.4593  0.2779  0.0218
  187SLPC  H16X21622   1.527   6.245   8.509  0.4012  0.3992  0.4278
  187SLPC  H16Y21623   1.471   6.415   8.517 -0.9398 -1.4880  0.2407
  187SLPC  C31721624   1.680   6.392   8.556 -0.1073  0.0723  0.2282
  187SLPC  H17X21625   1.723   6.492   8.533  0.1390 -0.0887 -0.0217
  187SLPC  H17Y21626   1.761   6.318   8.536  0.4039  0.4294  0.9288
  187SLPC  C31821627   1.662   6.387   8.711 -0.3231  0.3871 -0.4316
  187SLPC  H18X21628   1.622   6.287   8.740  1.0735  0.0593  0.4937
  187SLPC  H18Y21629   1.583   6.459   8.740 -0.6884  0.3721 -1.3547
  187SLPC  H18Z21630   1.753   6.410   8.770 -0.0654 -0.4456 -0.4847
  188SLPC     N21631   3.519   3.096   6.247 -0.2240 -0.4729 -0.1838
  188SLPC   C1321632   3.642   3.086   6.336 -1.3611 -0.8142 -0.2659
  188SLPC  H13A21633   3.705   3.000   6.318 -1.2947 -0.9444  0.5496
  188SLPC  H13B21634   3.698   3.175   6.358 -0.9051 -0.7783 -1.4669
  188SLPC  H13C21635   3.603   3.079   6.437 -0.5107 -0.6988  0.0721
  188SLPC   C1421636   3.564   3.109   6.104 -0.2241 -0.2254 -0.6057
  188SLPC  H14A21637   3.610   3.015   6.077 -0.8081 -1.1347  1.3375
  188SLPC  H14B21638   3.487   3.140   6.036 -0.9202  1.5702  0.9009
  188SLPC  H14C21639   3.643   3.181   6.095  2.8695 -3.0433  1.4583
  188SLPC   C1521640   3.438   3.219   6.277 -0.1297 -1.1633 -0.5126
  188SLPC  H15A21641   3.506   3.302   6.278 -2.7421  1.1143 -0.6158
  188SLPC  H15B21642   3.355   3.232   6.209  0.5387  1.5223 -0.8987
  188SLPC  H15C21643   3.387   3.207   6.372 -2.3373  0.6190 -1.3854
  188SLPC   C1221644   3.426   2.975   6.263  0.1873 -0.4781  0.1345
  188SLPC  H12A21645   3.335   3.000   6.210  0.8812 -0.6652 -1.1917
  188SLPC  H12B21646   3.395   2.984   6.366 -1.1734  0.2411 -0.2963
  188SLPC   C1121647   3.473   2.836   6.230  0.0044 -0.0516 -0.6334
  188SLPC  H11A21648   3.494   2.811   6.123  0.4025  0.7107 -0.7379
  188SLPC  H11B21649   3.382   2.780   6.260  0.8207 -0.9508  0.2293
  188SLPC     P21650   3.665   2.674   6.317  0.3553 -0.0725  0.0364
  188SLPC   O1321651   3.579   2.561   6.280  0.5443 -0.3914  0.6790
  188SLPC   O1421652   3.784   2.698   6.233  0.1528 -0.6881  0.1439
  188SLPC   O1221653   3.580   2.808   6.319 -1.0714 -0.3300  0.3629
  188SLPC   O1121654   3.700   2.648   6.471 -0.0785  0.3509  0.2082
  188SLPC    C121655   3.745   2.767   6.552 -0.3234  0.8650 -0.2391
  188SLPC    HA21656   3.845   2.747   6.595 -0.7184 -0.1468  0.2402
  188SLPC    HB21657   3.775   2.859   6.496  1.4609  0.7352  0.4450
  188SLPC    C221658   3.650   2.784   6.664  0.6307  0.2502 -0.3483
  188SLPC    HS21659   3.685   2.870   6.726 -0.4765  2.2457 -2.3406
  188SLPC   O2121660   3.643   2.658   6.736 -0.0855 -0.1308 -0.3009
  188SLPC   C2121661   3.664   2.673   6.865 -0.5813  0.5204 -0.2516
  188SLPC   O2221662   3.689   2.776   6.922 -0.6555 -0.6379  0.2107
  188SLPC   C2221663   3.643   2.543   6.939  0.6198  0.7838  0.3643
  188SLPC   H2R21664   3.714   2.481   6.879  0.5474  2.5593 -1.6744
  188SLPC   H2S21665   3.682   2.555   7.043  0.3961 -0.6052  0.6254
  188SLPC    C321666   3.500   2.822   6.619 -0.4521  0.4352  0.0781
  188SLPC    HX21667   3.474   2.744   6.545 -0.5020  0.1963  0.3460
  188SLPC    HY21668   3.500   2.927   6.584  1.0242  0.5119  0.2488
  188SLPC   O3121669   3.413   2.800   6.729 -0.1494 -0.2240  0.1740
  188SLPC   C3121670   3.391   2.900   6.820  0.1856  0.2449  0.2816
  188SLPC   O3221671   3.428   3.015   6.802  0.5259  0.0352 -0.1436
  188SLPC   C3221672   3.321   2.844   6.939  0.8781  0.3734  0.3373
  188SLPC   H2X21673   3.322   2.734   6.929  2.1840  0.2967  1.0492
  188SLPC   H2Y21674   3.214   2.874   6.938  0.2359 -1.5548  2.4934
  188SLPC   C2321675   3.502   2.484   6.942 -0.6982 -0.0176 -0.2793
  188SLPC   H3R21676   3.453   2.488   6.842 -2.6629 -0.0085  0.6259
  188SLPC   H3S21677   3.442   2.543   7.015  1.6344  2.4811 -0.2360
  188SLPC   C2421678   3.501   2.337   6.978 -0.2109 -0.0891  0.3610
  188SLPC   H4R21679   3.584   2.280   6.933  0.6899  0.4428  1.3082
  188SLPC   H4S21680   3.406   2.302   6.932  0.3384 -0.2270 -0.6975
  188SLPC   C2521681   3.504   2.320   7.130  0.8111 -0.2476  0.0774
  188SLPC   H5R21682   3.421   2.366   7.188  1.4309 -1.3421  1.9186
  188SLPC   H5S21683   3.591   2.376   7.170  0.1154  0.6852  0.3443
  188SLPC   C2621684   3.528   2.169   7.161  0.3855  0.5090 -0.7239
  188SLPC   H6R21685   3.606   2.119   7.100  0.5689  1.9164 -1.6824
  188SLPC   H6S21686   3.436   2.124   7.117  0.4026 -1.5681  1.1527
  188SLPC   C2721687   3.518   2.125   7.300  0.9242 -0.4044 -0.9231
  188SLPC   H7R21688   3.424   2.165   7.344  1.3775  0.3702 -0.6378
  188SLPC   H7S21689   3.605   2.161   7.358  1.4422 -1.8333 -0.7835
  188SLPC   C2821690   3.515   1.974   7.332 -0.0524 -1.1088  0.5859
  188SLPC   H8R21691   3.618   1.944   7.307 -0.0637  0.2398 -1.3267
  188SLPC   H8S21692   3.450   1.915   7.264 -1.0329  0.9743 -0.3720
  188SLPC   C2921693   3.484   1.941   7.473 -0.5946 -1.0895 -0.1015
  188SLPC   H9R21694   3.377   1.959   7.491 -0.2522  1.9740 -0.6742
  188SLPC  C21021695   3.565   1.889   7.564  0.1634  0.5388  0.1884
  188SLPC  H10R21696   3.519   1.874   7.663 -0.3236 -0.2286 -0.1480
  188SLPC  C21121697   3.707   1.847   7.550 -0.3194  0.9066  0.8855
  188SLPC  H11R21698   3.751   1.847   7.651  0.3522 -0.7695  0.6311
  188SLPC  H11S21699   3.755   1.924   7.485 -0.6599 -0.6073 -1.2558
  188SLPC  C21221700   3.719   1.710   7.495 -0.2273  0.5604 -0.8494
  188SLPC  H12R21701   3.626   1.658   7.470 -0.1263 -0.2345  0.3603
  188SLPC  C21321702   3.834   1.642   7.471  0.5778 -0.3027  0.0829
  188SLPC  H13R21703   3.829   1.539   7.434  0.7621  0.0731 -1.0277
  188SLPC  C21421704   3.963   1.697   7.512 -0.2807 -0.0418 -0.3023
  188SLPC  H14R21705   3.971   1.747   7.611 -2.8238 -1.8410  0.9247
  188SLPC  H14S21706   4.006   1.764   7.435  0.9290 -0.3376  0.0782
  188SLPC  C21521707   4.059   1.577   7.515 -0.3192 -0.2840  0.0049
  188SLPC  H15R21708   4.015   1.492   7.570 -0.3137  0.2083  0.7787
  188SLPC  H15S21709   4.153   1.600   7.570  0.0431 -1.4794 -0.0928
  188SLPC  C21621710   4.103   1.529   7.380 -0.0093 -0.5736  0.2518
  188SLPC  H16R21711   4.143   1.617   7.325  0.8221 -0.1711  1.4832
  188SLPC  H16S21712   4.031   1.483   7.308 -0.7986 -0.6285  1.0509
  188SLPC  C21721713   4.210   1.420   7.397 -0.3226 -0.4013  0.0590
  188SLPC  H17R21714   4.172   1.332   7.454  0.7003 -1.5573 -0.9736
  188SLPC  H17S21715   4.289   1.468   7.457 -1.6301  0.0056  1.5215
  188SLPC  C21821716   4.259   1.376   7.261 -0.1614  0.4497  0.5341
  188SLPC  H18R21717   4.175   1.347   7.195 -0.4861 -1.0247  1.5617
  188SLPC  H18S21718   4.320   1.285   7.281  1.7561  1.6989  0.6442
  188SLPC  H18T21719   4.321   1.459   7.219 -0.1426  0.5009  0.6624
  188SLPC   C3321720   3.395   2.899   7.069  0.5184  0.2669 -0.0841
  188SLPC   H3X21721   3.384   3.009   7.077 -2.1035  0.1646 -1.2398
  188SLPC   H3Y21722   3.502   2.871   7.059 -0.0649 -1.5074 -2.2470
  188SLPC   C3421723   3.338   2.827   7.201 -0.3978  0.4537  0.8255
  188SLPC   H4X21724   3.318   2.719   7.188 -1.2281  0.3277  2.7777
  188SLPC   H4Y21725   3.238   2.876   7.210 -1.1629 -0.3992 -2.0041
  188SLPC   C3521726   3.436   2.842   7.322  0.7190 -0.4838 -0.0784
  188SLPC   H5X21727   3.378   2.825   7.415  2.2137  2.9015  1.6398
  188SLPC   H5Y21728   3.473   2.946   7.313  0.8494 -0.2332  2.5517
  188SLPC   C3621729   3.551   2.746   7.318  0.5795 -0.1840  0.4113
  188SLPC   H6X21730   3.613   2.756   7.226  1.2138 -0.7114  0.7682
  188SLPC   H6Y21731   3.512   2.642   7.318  1.8760 -0.7387  2.4459
  188SLPC   C3721732   3.645   2.772   7.437  0.0193  0.7557 -0.5877
  188SLPC   H7X21733   3.584   2.765   7.529 -0.8306  1.9531 -1.0346
  188SLPC   H7Y21734   3.688   2.874   7.441  0.2854  0.6661  4.1574
  188SLPC   C3821735   3.757   2.673   7.453  0.0804 -0.1983 -0.4670
  188SLPC   H8X21736   3.830   2.678   7.368 -0.2287  2.1032 -0.6650
  188SLPC   H8Y21737   3.710   2.572   7.458 -1.5018  0.5868  1.8767
  188SLPC   C3921738   3.835   2.703   7.581 -0.0484  0.2190  0.6550
  188SLPC   H9X21739   3.850   2.813   7.573 -0.8632  0.2030 -3.3477
  188SLPC   H9Y21740   3.937   2.658   7.579 -0.6944 -1.2815 -1.5167
  188SLPC  C31021741   3.758   2.648   7.699 -0.0103  0.2201 -0.5383
  188SLPC  H10X21742   3.745   2.537   7.697  0.0692  0.0069  3.2893
  188SLPC  H10Y21743   3.654   2.686   7.700  0.5566  1.9089  1.7366
  188SLPC  C31121744   3.810   2.679   7.842  0.3817  0.3909  0.2835
  188SLPC  H11X21745   3.913   2.637   7.842  0.0604 -0.8924 -4.0834
  188SLPC  H11Y21746   3.747   2.617   7.910  2.0196  0.0645  1.5871
  188SLPC  C31221747   3.809   2.829   7.884  0.6555  1.0662  0.6003
  188SLPC  H12X21748   3.721   2.850   7.948 -1.4438 -1.4443 -1.2741
  188SLPC  H12Y21749   3.809   2.882   7.787  2.1813 -4.3285 -2.7509
  188SLPC  C31321750   3.939   2.857   7.958 -0.4405  0.1167  0.1328
  188SLPC  H13X21751   3.950   2.967   7.968  0.3094  0.1272 -0.6590
  188SLPC  H13Y21752   4.035   2.819   7.916  0.4051  2.1384  0.1049
  188SLPC  C31421753   3.937   2.814   8.106 -0.1502 -0.2189 -0.1670
  188SLPC  H14X21754   3.968   2.707   8.097  1.4734  0.2933 -1.2016
  188SLPC  H14Y21755   3.835   2.827   8.146  0.3099  1.4819  0.5546
  188SLPC  C31521756   4.038   2.887   8.192  0.4980  0.1547  0.3467
  188SLPC  H15X21757   4.056   2.828   8.285  1.6400  0.9927  0.6794
  188SLPC  H15Y21758   3.996   2.985   8.224  1.7284  0.8063  0.0270
  188SLPC  C31621759   4.179   2.899   8.133 -0.4060  0.0594 -0.2447
  188SLPC  H16X21760   4.184   2.952   8.035 -4.4755  0.2246 -0.5038
  188SLPC  H16Y21761   4.208   2.795   8.106 -1.9607 -0.8105  1.2867
  188SLPC  C31721762   4.280   2.951   8.241  0.7093  0.8093  0.1107
  188SLPC  H17X21763   4.307   2.876   8.318  0.7596  1.3511  0.6264
  188SLPC  H17Y21764   4.225   3.029   8.299  0.7209 -0.3138  1.6602
  188SLPC  C31821765   4.404   3.012   8.171 -0.1237 -0.5459  0.0916
  188SLPC  H18X21766   4.489   3.026   8.242 -1.0053 -0.8365  1.2347
  188SLPC  H18Y21767   4.376   3.103   8.114 -3.0751 -0.8400  0.9140
  188SLPC  H18Z21768   4.441   2.939   8.096  1.3452 -0.1681  0.4078
  189SLPC     N21769   3.902   5.940   6.152 -0.6010  0.2994 -0.1114
  189SLPC   C1321770   3.996   5.883   6.249  0.5767  0.1200  0.3884
  189SLPC  H13A21771   4.055   5.955   6.304  0.1153 -1.0888  2.5853
  189SLPC  H13B21772   3.946   5.813   6.316 -1.0875  0.8292 -0.0473
  189SLPC  H13C21773   4.063   5.820   6.193  1.8872  1.2595  0.6346
  189SLPC   C1421774   3.981   6.036   6.065  0.3371  0.2197 -0.0123
  189SLPC  H14A21775   3.920   6.076   5.986 -0.3187 -2.5967 -1.0431
  189SLPC  H14B21776   4.006   6.123   6.125  2.3798 -0.6467  0.4938
  189SLPC  H14C21777   4.078   6.009   6.026  1.0225  0.6716  1.3076
  189SLPC   C1521778   3.791   6.020   6.218 -0.1507 -0.8557  0.4110
  189SLPC  H15A21779   3.744   6.093   6.153 -1.1021 -0.5474  1.4259
  189SLPC  H15B21780   3.726   5.949   6.266 -0.3267  1.6056  4.2517
  189SLPC  H15C21781   3.823   6.083   6.299 -0.3081  2.6830 -2.0383
  189SLPC   C1221782   3.831   5.836   6.073 -0.7004  0.2018  0.2630
  189SLPC  H12A21783   3.880   5.818   5.979 -0.5715  0.5840  0.2550
  189SLPC  H12B21784   3.736   5.882   6.048  0.0310  1.1343 -0.9072
  189SLPC   C1121785   3.802   5.695   6.131  0.6177 -0.1752  0.8480
  189SLPC  H11A21786   3.904   5.661   6.158  0.8147  0.0290  0.3672
  189SLPC  H11B21787   3.764   5.629   6.051 -0.3112  0.4577  0.7437
  189SLPC     P21788   3.562   5.642   6.237 -0.3395 -0.1456  0.3837
  189SLPC   O1321789   3.490   5.731   6.139  0.3052 -0.0032  0.0557
  189SLPC   O1421790   3.553   5.498   6.203 -0.4693  0.1099 -0.0587
  189SLPC   O1221791   3.716   5.702   6.244 -0.7316 -0.1286 -0.1464
  189SLPC   O1121792   3.511   5.672   6.380 -0.2179  0.1945 -0.1477
  189SLPC    C121793   3.505   5.812   6.411 -0.0425 -0.3544  0.1394
  189SLPC    HA21794   3.603   5.865   6.408  0.6210 -1.6090 -1.2043
  189SLPC    HB21795   3.437   5.876   6.352  0.2850  1.0371  1.2168
  189SLPC    C221796   3.440   5.833   6.553  0.4048 -0.3296  0.2309
  189SLPC    HS21797   3.419   5.941   6.569  0.1876  0.1125 -2.5004
  189SLPC   O2121798   3.523   5.776   6.662  0.7783 -0.2820  0.4331
  189SLPC   C2121799   3.635   5.836   6.684  0.3469 -0.5320  0.4271
  189SLPC   O2221800   3.667   5.938   6.626 -0.5502 -0.3350  0.3080
  189SLPC   C2221801   3.724   5.761   6.794 -0.2027  0.2338  0.0255
  189SLPC   H2R21802   3.651   5.729   6.872  1.0630 -0.7856  0.8375
  189SLPC   H2S21803   3.757   5.662   6.756 -1.4912 -0.5923  0.9746
  189SLPC    C321804   3.311   5.752   6.560 -0.5113  0.2084 -0.0131
  189SLPC    HX21805   3.338   5.645   6.563  1.8576  0.7108 -1.0384
  189SLPC    HY21806   3.248   5.783   6.474 -0.7984  2.2196  0.8657
  189SLPC   O3121807   3.238   5.778   6.681  0.3589  0.5365 -1.3078
  189SLPC   C3121808   3.169   5.894   6.680  0.2812 -0.4644 -0.2610
  189SLPC   O3221809   3.168   5.966   6.581  0.2735  0.5799 -0.7606
  189SLPC   C3221810   3.096   5.934   6.816 -0.1515  0.3111  0.2993
  189SLPC   H2X21811   2.991   5.911   6.788  0.1854 -1.6086  0.4689
  189SLPC   H2Y21812   3.115   6.042   6.829 -0.7885  0.5065 -0.3045
  189SLPC   C2321813   3.839   5.840   6.847  0.1921  0.2669 -0.6060
  189SLPC   H3R21814   3.921   5.854   6.773 -0.1101 -0.5728 -1.1047
  189SLPC   H3S21815   3.887   5.777   6.925 -2.5638  0.5871  1.5353
  189SLPC   C2421816   3.793   5.972   6.911 -0.5370 -0.1526  0.4267
  189SLPC   H4R21817   3.726   6.025   6.840  1.1427  0.4325 -0.7794
  189SLPC   H4S21818   3.878   6.041   6.928 -1.4823  1.0666  0.3165
  189SLPC   C2521819   3.714   5.944   7.047  1.0392  0.0157 -0.2282
  189SLPC   H5R21820   3.782   5.890   7.116  1.8403 -1.3593 -2.0305
  189SLPC   H5S21821   3.626   5.879   7.029  0.7217  0.5394 -0.6080
  189SLPC   C2621822   3.668   6.081   7.115 -0.1415 -0.5454  0.0322
  189SLPC   H6R21823   3.628   6.161   7.049  0.3261  1.3056  1.8935
  189SLPC   H6S21824   3.755   6.132   7.161  0.0777 -0.8393 -0.0522
  189SLPC   C2721825   3.568   6.054   7.228  0.3786 -0.1358 -0.5492
  189SLPC   H7R21826   3.474   6.019   7.179  0.5881  1.5648 -2.3419
  189SLPC   H7S21827   3.542   6.147   7.284 -1.1631 -2.5184  3.0074
  189SLPC   C2821828   3.621   5.951   7.325 -0.4823  0.3637  0.0147
  189SLPC   H8R21829   3.631   5.852   7.277  1.1637 -0.4162  1.8310
  189SLPC   H8S21830   3.545   5.939   7.406 -2.2182  0.7192 -1.4873
  189SLPC   C2921831   3.757   5.982   7.380 -0.6163 -0.0349  0.3324
  189SLPC   H9R21832   3.837   5.988   7.306  1.0217 -3.0113  1.6784
  189SLPC  C21021833   3.797   6.006   7.504 -0.0561 -0.8757 -0.4941
  189SLPC  H10R21834   3.904   6.018   7.524 -0.4700  0.9560  0.9892
  189SLPC  C21121835   3.699   5.997   7.621  0.5668  0.3508  0.2643
  189SLPC  H11R21836   3.750   5.997   7.719 -0.6718 -0.1434  0.9313
  189SLPC  H11S21837   3.655   5.895   7.619  2.3130 -0.4806  1.5575
  189SLPC  C21221838   3.593   6.108   7.627 -0.2102 -0.0194 -0.7945
  189SLPC  H12R21839   3.581   6.175   7.540  2.0330  0.9334 -0.4424
  189SLPC  C21321840   3.506   6.114   7.729  0.5205 -0.0360 -0.5990
  189SLPC  H13R21841   3.434   6.197   7.738  2.2873  1.3714  2.0432
  189SLPC  C21421842   3.486   6.025   7.846 -0.0239  0.5346  0.2286
  189SLPC  H14R21843   3.465   6.087   7.936 -0.2134 -1.4695  1.6451
  189SLPC  H14S21844   3.579   5.975   7.881  0.7244  0.8945 -1.1714
  189SLPC  C21521845   3.368   5.925   7.836 -0.2656  0.5726  0.0553
  189SLPC  H15R21846   3.391   5.862   7.748 -1.2370 -0.0624  0.2366
  189SLPC  H15S21847   3.271   5.978   7.828  0.2494  1.3642 -1.1517
  189SLPC  C21621848   3.342   5.836   7.956 -0.3994 -0.3670 -0.7970
  189SLPC  H16R21849   3.336   5.895   8.050 -2.5230 -0.0412 -1.0783
  189SLPC  H16S21850   3.426   5.764   7.965  0.1048  0.3020 -0.0207
  189SLPC  C21721851   3.211   5.758   7.959 -0.1067  1.0652 -0.0482
  189SLPC  H17R21852   3.201   5.700   7.865  1.9384  0.9350 -0.2324
  189SLPC  H17S21853   3.131   5.836   7.957 -2.3000 -1.0824 -0.3153
  189SLPC  C21821854   3.190   5.653   8.066  0.5563  0.3426 -0.5607
  189SLPC  H18R21855   3.100   5.588   8.077  1.8184 -1.2647  0.8045
  189SLPC  H18S21856   3.202   5.697   8.167  3.0332 -1.9184  0.2365
  189SLPC  H18T21857   3.269   5.578   8.048 -0.6986 -1.0284 -0.5697
  189SLPC   C3321858   3.141   5.857   6.942 -0.0793 -0.4615  0.5870
  189SLPC   H3X21859   3.249   5.866   6.965 -0.4187 -2.7213  3.6599
  189SLPC   H3Y21860   3.122   5.748   6.926 -1.2497 -0.1521 -0.3376
  189SLPC   C3421861   3.061   5.880   7.070 -0.4184 -0.5055  0.3143
  189SLPC   H4X21862   2.958   5.847   7.046  0.6233 -1.9654 -2.8244
  189SLPC   H4Y21863   3.068   5.990   7.085  1.4855 -0.4301 -0.7385
  189SLPC   C3521864   3.108   5.809   7.192 -0.2657 -0.2434 -0.6549
  189SLPC   H5X21865   3.216   5.822   7.213 -0.2363 -0.4148 -0.6990
  189SLPC   H5Y21866   3.089   5.700   7.182 -0.0480 -0.3420 -0.0551
  189SLPC   C3621867   3.020   5.857   7.308  0.0757 -0.3604 -1.0387
  189SLPC   H6X21868   2.920   5.811   7.319  0.3471 -0.4063  2.8356
  189SLPC   H6Y21869   3.008   5.967   7.301 -2.8744 -0.6434 -1.4630
  189SLPC   C3721870   3.076   5.817   7.450  0.5585  0.7124  0.7678
  189SLPC   H7X21871   3.171   5.874   7.461  2.3000 -1.7757 -0.5222
  189SLPC   H7Y21872   3.113   5.713   7.453 -1.0158  0.1152  0.2013
  189SLPC   C3821873   2.966   5.835   7.564 -0.9237  0.2740  0.2984
  189SLPC   H8X21874   2.864   5.821   7.522 -1.0779  1.8262  0.0847
  189SLPC   H8Y21875   2.971   5.945   7.581 -0.0546  0.3848 -0.5355
  189SLPC   C3921876   2.975   5.740   7.672  0.4801 -0.0380 -0.7815
  189SLPC   H9X21877   3.079   5.757   7.708  1.2779 -2.2892 -1.8162
  189SLPC   H9Y21878   2.968   5.635   7.635 -1.8150  0.0031 -0.5762
  189SLPC  C31021879   2.872   5.766   7.786 -0.0416 -0.6569  0.2037
  189SLPC  H10X21880   2.768   5.779   7.749 -0.1788  1.2441  1.1268
  189SLPC  H10Y21881   2.890   5.865   7.834 -2.1006  0.7998 -1.8201
  189SLPC  C31121882   2.857   5.647   7.882 -1.2326  0.7089  0.3783
  189SLPC  H11X21883   2.934   5.655   7.962 -0.5871 -0.6999 -0.0493
  189SLPC  H11Y21884   2.867   5.554   7.821 -1.3419  0.3515  0.8943
  189SLPC  C31221885   2.721   5.643   7.955 -0.4108  0.4240  0.5589
  189SLPC  H12X21886   2.634   5.669   7.891 -0.5389  0.0340  0.5693
  189SLPC  H12Y21887   2.714   5.729   8.025 -0.9319  1.4211 -0.6775
  189SLPC  C31321888   2.699   5.507   8.012  0.0006  0.2563 -0.3702
  189SLPC  H13X21889   2.778   5.475   8.083  0.6153  2.7909  0.2130
  189SLPC  H13Y21890   2.714   5.440   7.925 -0.8609 -0.7805  0.2617
  189SLPC  C31421891   2.557   5.497   8.072 -0.2889  0.0249  1.0762
  189SLPC  H14X21892   2.489   5.506   7.985  2.6666  1.5551 -1.2552
  189SLPC  H14Y21893   2.544   5.580   8.145 -1.9682 -0.4303  1.3450
  189SLPC  C31521894   2.526   5.361   8.136  0.1611  0.8776 -0.0758
  189SLPC  H15X21895   2.600   5.349   8.218  0.3898 -0.0572 -0.4046
  189SLPC  H15Y21896   2.551   5.301   8.046 -0.2316 -0.4179  0.6400
  189SLPC  C31621897   2.379   5.336   8.183 -0.5796  0.3032  0.3668
  189SLPC  H16X21898   2.358   5.231   8.211 -1.6847  0.0237 -1.3732
  189SLPC  H16Y21899   2.307   5.339   8.099  0.5802 -1.1848 -0.7196
  189SLPC  C31721900   2.320   5.434   8.278 -0.2649 -0.4173 -0.0992
  189SLPC  H17X21901   2.338   5.539   8.245  0.4725  0.1323  1.8673
  189SLPC  H17Y21902   2.368   5.428   8.378  3.1640  2.9034 -1.3223
  189SLPC  C31821903   2.162   5.421   8.292 -0.0364 -0.7359 -0.0954
  189SLPC  H18X21904   2.136   5.337   8.359 -1.6535 -1.5037 -1.5958
  189SLPC  H18Y21905   2.118   5.397   8.193 -0.3184 -1.8742  0.2920
  189SLPC  H18Z21906   2.121   5.520   8.325 -0.0297  0.4229 -3.2316
  190SLPC     N21907   5.591   2.677   6.155  0.4159  0.0834  0.0186
  190SLPC   C1321908   5.687   2.564   6.113 -0.1602 -0.4230 -1.0771
  190SLPC  H13A21909   5.786   2.590   6.146 -1.2383  1.4462  0.9770
  190SLPC  H13B21910   5.659   2.476   6.169  0.7953  0.2940  0.5911
  190SLPC  H13C21911   5.698   2.547   6.007  1.1774 -1.9081 -0.7353
  190SLPC   C1421912   5.468   2.669   6.063 -0.6452  0.6049 -0.2676
  190SLPC  H14A21913   5.404   2.751   6.091 -0.7067  0.6135 -0.4332
  190SLPC  H14B21914   5.498   2.690   5.961  1.1716  0.2229  0.1591
  190SLPC  H14C21915   5.417   2.574   6.066  0.7731 -0.2181 -0.8647
  190SLPC   C1521916   5.659   2.811   6.134  0.4403 -0.1845 -0.0013
  190SLPC  H15A21917   5.738   2.831   6.205 -0.6115  0.7306  0.9437
  190SLPC  H15B21918   5.689   2.812   6.031 -1.0353 -0.2247 -0.4570
  190SLPC  H15C21919   5.583   2.886   6.150 -0.3626 -0.4513 -2.2842
  190SLPC   C1221920   5.552   2.659   6.297 -0.3233 -0.1889  0.4759
  190SLPC  H12A21921   5.469   2.725   6.318 -0.4905 -0.2355 -0.0225
  190SLPC  H12B21922   5.627   2.690   6.368  1.6835 -1.1525 -1.1359
  190SLPC   C1121923   5.519   2.515   6.346  0.3605 -0.3103 -0.3355
  190SLPC  H11A21924   5.444   2.475   6.275  1.2563  1.2048 -2.2247
  190SLPC  H11B21925   5.470   2.536   6.444  0.6652  1.2149 -0.4927
  190SLPC     P21926   5.651   2.315   6.455 -0.0714  0.0312  0.0333
  190SLPC   O1321927   5.536   2.218   6.471 -0.5234 -0.6601  0.2995
  190SLPC   O1421928   5.772   2.255   6.411  0.6340  0.2326 -0.4646
  190SLPC   O1221929   5.629   2.423   6.347 -0.1142 -0.2670 -0.2088
  190SLPC   O1121930   5.679   2.396   6.586 -0.3500  0.1262 -0.1390
  190SLPC    C121931   5.772   2.504   6.582  0.0804  0.1412  0.3487
  190SLPC    HA21932   5.875   2.465   6.567 -0.3525 -0.5146 -1.1118
  190SLPC    HB21933   5.746   2.585   6.511  3.6499 -0.3036 -1.7765
  190SLPC    C221934   5.778   2.583   6.721  0.3645  0.4431  0.5595
  190SLPC    HS21935   5.842   2.674   6.719  0.7222  0.1822  0.1496
  190SLPC   O2121936   5.817   2.494   6.826  0.0333  0.6236 -0.1199
  190SLPC   C2121937   5.939   2.499   6.859 -0.5584  0.2364  0.4113
  190SLPC   O2221938   6.027   2.567   6.806 -0.2342  0.2700 -0.5162
  190SLPC   C2221939   5.962   2.419   6.985 -0.3851 -0.0619 -0.2021
  190SLPC   H2R21940   5.969   2.310   6.967  2.5324 -0.1834  1.0519
  190SLPC   H2S21941   6.065   2.445   7.018  0.5671 -0.7165 -2.4628
  190SLPC    C321942   5.635   2.639   6.750  0.6788 -0.5024  0.1800
  190SLPC    HX21943   5.570   2.565   6.802  0.8416 -0.8666 -0.1275
  190SLPC    HY21944   5.589   2.661   6.651  1.2892  1.8091  0.3565
  190SLPC   O3121945   5.645   2.759   6.830  0.1702 -0.0085 -0.0188
  190SLPC   C3121946   5.535   2.811   6.864  0.2614 -0.6581 -0.4438
  190SLPC   O3221947   5.423   2.768   6.836 -0.1154  0.1111  0.0148
  190SLPC   C3221948   5.548   2.943   6.942  0.0130 -0.2954  0.8188
  190SLPC   H2X21949   5.478   3.010   6.887 -1.0292 -2.1960 -0.2711
  190SLPC   H2Y21950   5.650   2.984   6.929  1.0332 -1.9690  2.9295
  190SLPC   C2321951   5.866   2.454   7.102 -0.0488  0.9844  0.5093
  190SLPC   H3R21952   5.890   2.385   7.185 -0.9371  0.5697  0.4376
  190SLPC   H3S21953   5.765   2.425   7.067 -0.0511  0.7455  0.7101
  190SLPC   C2421954   5.853   2.597   7.154  0.0538 -0.3415  0.5318
  190SLPC   H4R21955   5.840   2.674   7.075  1.7153  1.9663  2.3483
  190SLPC   H4S21956   5.949   2.613   7.208  0.2604 -2.9365  1.0783
  190SLPC   C2521957   5.737   2.603   7.253  0.2859 -0.6117  0.9646
  190SLPC   H5R21958   5.640   2.610   7.199  0.1514  0.3613  1.3118
  190SLPC   H5S21959   5.729   2.703   7.301 -0.8832 -0.2017 -0.0313
  190SLPC   C2621960   5.735   2.500   7.361 -0.3226  0.3088 -0.0975
  190SLPC   H6R21961   5.838   2.491   7.402 -0.6760 -0.2629  0.6961
  190SLPC   H6S21962   5.711   2.402   7.314  0.6557  0.0737 -0.1292
  190SLPC   C2721963   5.635   2.530   7.473  0.4455  0.7144 -0.3188
  190SLPC   H7R21964   5.538   2.561   7.428 -0.2871  0.8866  1.3208
  190SLPC   H7S21965   5.673   2.609   7.542 -1.3055 -2.4613  4.7895
  190SLPC   C2821966   5.604   2.415   7.565  0.3908  0.4161 -0.0514
  190SLPC   H8R21967   5.582   2.322   7.510 -2.7669  1.0558 -0.0844
  190SLPC   H8S21968   5.503   2.427   7.611  0.5838 -1.5187  1.0009
  190SLPC   C2921969   5.703   2.392   7.676  0.7589 -0.3206  0.2622
  190SLPC   H9R21970   5.792   2.345   7.633  0.1000 -1.0466 -0.3306
  190SLPC  C21021971   5.685   2.414   7.811 -0.7757 -0.2723  0.0256
  190SLPC  H10R21972   5.765   2.392   7.883 -0.3640 -1.8643 -0.8731
  190SLPC  C21121973   5.569   2.482   7.873  0.9919 -0.1143 -0.4675
  190SLPC  H11R21974   5.558   2.579   7.821 -0.1275 -0.5542 -1.0795
  190SLPC  H11S21975   5.597   2.516   7.975 -1.2595  0.1326  0.1238
  190SLPC  C21221976   5.437   2.406   7.886  0.0814 -0.6553  0.8115
  190SLPC  H12R21977   5.425   2.325   7.813  1.0129  2.6064 -3.3468
  190SLPC  C21321978   5.341   2.439   7.973 -0.2497  0.4695  0.1880
  190SLPC  H13R21979   5.253   2.373   7.969  0.3555 -0.3297 -0.1585
  190SLPC  C21421980   5.345   2.551   8.079  0.0275 -0.6122 -0.0700
  190SLPC  H14R21981   5.428   2.616   8.046 -0.2124 -0.4897 -0.4407
  190SLPC  H14S21982   5.373   2.501   8.174 -1.1653 -1.8451 -0.3379
  190SLPC  C21521983   5.221   2.634   8.107 -0.7309 -0.0717  0.6717
  190SLPC  H15R21984   5.135   2.566   8.125  0.3696 -2.0298 -1.0051
  190SLPC  H15S21985   5.203   2.679   8.006  1.8061  0.4760  0.3901
  190SLPC  C21621986   5.243   2.734   8.212 -0.3398 -0.6096  0.3712
  190SLPC  H16R21987   5.328   2.796   8.174 -0.8871  0.5212  0.9597
  190SLPC  H16S21988   5.262   2.694   8.314 -3.6193 -1.4301  0.7666
  190SLPC  C21721989   5.119   2.825   8.234  0.2709 -0.6471 -0.4469
  190SLPC  H17R21990   5.138   2.895   8.318  1.3246 -0.6031 -0.6999
  190SLPC  H17S21991   5.033   2.758   8.252 -1.0367  0.8936 -0.6881
  190SLPC  C21821992   5.093   2.914   8.114  0.2673 -0.3882 -0.2317
  190SLPC  H18R21993   5.086   2.856   8.019 -1.5190  0.2792 -0.5452
  190SLPC  H18S21994   5.168   2.995   8.101  0.7229 -0.6895  0.4766
  190SLPC  H18T21995   4.994   2.957   8.137 -0.0725 -1.0414 -0.4317
  190SLPC   C3321996   5.525   2.923   7.091 -0.0947 -0.4690  0.7458
  190SLPC   H3X21997   5.505   3.027   7.126 -0.7924  0.3510 -1.8805
  190SLPC   H3Y21998   5.596   2.856   7.145  0.0199 -1.2898 -0.4008
  190SLPC   C3421999   5.383   2.860   7.117 -0.3234  0.0752 -0.2276
  190SLPC   H4X22000   5.399   2.750   7.113 -0.5974  0.0606 -1.0257
  190SLPC   H4Y22001   5.313   2.892   7.037 -0.8470 -0.8332 -0.1453
  190SLPC   C3522002   5.329   2.891   7.254 -0.0613  0.1860 -0.0803
  190SLPC   H5X22003   5.226   2.850   7.262 -1.3184  3.1259 -0.1324
  190SLPC   H5Y22004   5.326   3.002   7.262  0.7036  0.2027  0.0935
  190SLPC   C3622005   5.410   2.844   7.370  0.6115  0.2428 -0.7594
  190SLPC   H6X22006   5.516   2.877   7.356  1.3958 -1.4693  0.7625
  190SLPC   H6Y22007   5.402   2.733   7.372 -0.3715  0.3063 -0.8532
  190SLPC   C3722008   5.367   2.890   7.510 -0.2927  0.4193 -0.0040
  190SLPC   H7X22009   5.270   2.847   7.544  0.7825 -1.1944  1.2119
  190SLPC   H7Y22010   5.343   2.998   7.514  0.5152  0.5837  2.7488
  190SLPC   C3822011   5.474   2.861   7.620 -0.0313 -0.0162 -0.6643
  190SLPC   H8X22012   5.572   2.905   7.591 -0.6591  0.5911 -1.9408
  190SLPC   H8Y22013   5.477   2.751   7.637 -1.2924  0.2010  1.3049
  190SLPC   C3922014   5.440   2.920   7.762 -0.5847  0.3313 -0.3147
  190SLPC   H9X22015   5.354   2.862   7.801 -1.4767  1.1661 -0.9725
  190SLPC   H9Y22016   5.406   3.025   7.745  0.1213  0.2500 -2.6397
  190SLPC  C31022017   5.563   2.915   7.854 -0.2074  0.0032 -0.3878
  190SLPC  H10X22018   5.631   2.997   7.822 -0.9709  1.1620  0.8975
  190SLPC  H10Y22019   5.617   2.818   7.839  1.0539  0.6730 -0.2922
  190SLPC  C31122020   5.529   2.934   8.002  0.0784 -0.1313 -0.7994
  190SLPC  H11X22021   5.439   2.869   8.013  0.9111 -0.9373  2.0839
  190SLPC  H11Y22022   5.507   3.042   8.018  3.4521  0.2900  1.9514
  190SLPC  C31222023   5.628   2.886   8.108  0.1914 -0.4718 -0.0685
  190SLPC  H12X22024   5.671   2.788   8.075 -0.2351 -0.7892  0.3157
  190SLPC  H12Y22025   5.572   2.869   8.202  0.5189 -0.4673  0.1285
  190SLPC  C31322026   5.739   2.985   8.135 -0.1777  0.9465 -0.4237
  190SLPC  H13X22027   5.699   3.079   8.178  1.7219  1.6537 -0.1184
  190SLPC  H13Y22028   5.792   3.008   8.040  0.4888  2.1258  0.2089
  190SLPC  C31422029   5.845   2.932   8.233  0.4407  0.1852  0.2410
  190SLPC  H14X22030   5.933   2.999   8.240 -0.8481  2.2005 -1.6318
  190SLPC  H14Y22031   5.868   2.831   8.192 -2.3135 -0.1099 -0.8175
  190SLPC  C31522032   5.796   2.909   8.378  0.9053  0.7701  0.0243
  190SLPC  H15X22033   5.716   2.832   8.372  2.1485 -0.5083 -1.0592
  190SLPC  H15Y22034   5.762   3.001   8.430  0.5282  0.4290  0.3887
  190SLPC  C31622035   5.914   2.849   8.452  0.2695 -0.0558  0.4584
  190SLPC  H16X22036   5.990   2.929   8.456  0.4760 -0.2714  0.9051
  190SLPC  H16Y22037   5.960   2.764   8.397 -2.2761 -1.2098 -0.0189
  190SLPC  C31722038   5.890   2.803   8.591  0.0985  0.7938  0.3090
  190SLPC  H17X22039   5.810   2.726   8.594 -0.4396  1.3029 -0.5862
  190SLPC  H17Y22040   5.853   2.884   8.657 -1.2641 -1.2515  2.2251
  190SLPC  C31822041   6.008   2.749   8.670  0.2802 -1.0059  0.3889
  190SLPC  H18X22042   5.980   2.754   8.778  0.6772  0.2566  0.4507
  190SLPC  H18Y22043   6.100   2.807   8.652 -0.0544 -1.0039 -1.4796
  190SLPC  H18Z22044   6.020   2.642   8.642 -0.6478 -0.6085 -1.7120
  191SLPC     N22045   2.242   1.001   5.883  0.4635  0.3570 -0.0784
  191SLPC   C1322046   2.107   1.053   5.918  0.8768 -0.5940 -0.2015
  191SLPC  H13A22047   2.106   1.143   5.978  2.6749 -0.7297  0.0700
  191SLPC  H13B22048   2.048   1.086   5.833 -1.1804 -2.2076  0.5175
  191SLPC  H13C22049   2.061   0.976   5.977  0.2041  2.0562  3.0841
  191SLPC   C1422050   2.333   1.102   5.814  0.5430 -0.4913  0.5304
  191SLPC  H14A22051   2.305   1.129   5.713  1.3332 -1.8594 -0.0722
  191SLPC  H14B22052   2.325   1.201   5.857 -1.4889  0.3393 -1.5359
  191SLPC  H14C22053   2.438   1.079   5.821  0.7356  0.7208  2.3313
  191SLPC   C1522054   2.235   0.881   5.791  0.1895 -0.0328 -0.1344
  191SLPC  H15A22055   2.337   0.846   5.786  0.1708 -0.1975  0.5542
  191SLPC  H15B22056   2.175   0.804   5.836 -0.1115  0.0202 -0.4458
  191SLPC  H15C22057   2.185   0.915   5.702 -0.1446 -1.1370 -0.3758
  191SLPC   C1222058   2.307   0.962   6.015 -1.1459 -0.0211  0.1617
  191SLPC  H12A22059   2.296   1.045   6.084 -0.1397 -0.4488  0.8521
  191SLPC  H12B22060   2.412   0.941   6.006 -0.5414  2.4065  0.7253
  191SLPC   C1122061   2.239   0.840   6.091  0.2617 -0.6115  0.3533
  191SLPC  H11A22062   2.132   0.842   6.061  0.3765  1.1729 -0.0281
  191SLPC  H11B22063   2.253   0.850   6.201  1.6629 -1.1209  0.2385
  191SLPC     P22064   2.415   0.652   6.115  0.3888 -0.0441 -0.0467
  191SLPC   O1322065   2.434   0.522   6.042 -0.3440 -1.1385 -0.1562
  191SLPC   O1422066   2.529   0.745   6.129  0.0314  0.6629 -0.2312
  191SLPC   O1222067   2.286   0.715   6.047  0.2278  0.4419  0.0719
  191SLPC   O1122068   2.367   0.623   6.256  0.6027 -0.3811  0.2241
  191SLPC    C122069   2.256   0.534   6.278 -0.1253 -0.6381  0.7335
  191SLPC    HA22070   2.214   0.483   6.188 -0.5084 -1.8746  1.5860
  191SLPC    HB22071   2.288   0.455   6.350  0.3844 -0.0628  1.1471
  191SLPC    C222072   2.148   0.618   6.357  0.5802 -0.7587 -0.4190
  191SLPC    HS22073   2.118   0.708   6.299  1.0387  0.6292  1.3850
  191SLPC   O2122074   2.192   0.641   6.491  0.3181  0.3484 -0.1971
  191SLPC   C2122075   2.180   0.768   6.550 -0.6839  1.2983 -0.8424
  191SLPC   O2222076   2.134   0.860   6.486  0.0285  0.3678 -0.6045
  191SLPC   C2222077   2.214   0.753   6.702  0.4536 -0.0321  0.7218
  191SLPC   H2R22078   2.136   0.683   6.737  0.1870 -1.9938 -3.2123
  191SLPC   H2S22079   2.319   0.718   6.712  0.3046 -1.1989 -1.2479
  191SLPC    C322080   2.014   0.539   6.374 -0.3100 -0.6805 -0.2016
  191SLPC    HX22081   2.035   0.443   6.425  2.6881  0.9733  2.0017
  191SLPC    HY22082   1.976   0.528   6.271  1.7442 -0.3742 -1.0369
  191SLPC   O3122083   1.929   0.614   6.463  0.6985  0.0812  0.3791
  191SLPC   C3122084   1.860   0.720   6.417  0.5910 -0.1589  0.4437
  191SLPC   O3222085   1.846   0.746   6.297 -0.0061 -0.6961  0.2374
  191SLPC   C3222086   1.788   0.794   6.533 -0.2472  0.7736  0.1536
  191SLPC   H2X22087   1.682   0.799   6.501 -0.4343 -0.7051  0.5038
  191SLPC   H2Y22088   1.833   0.896   6.531  1.1612  0.1844  0.5504
  191SLPC   C2322089   2.210   0.883   6.778 -0.0601 -0.2526 -0.1584
  191SLPC   H3R22090   2.128   0.942   6.732 -0.3070 -2.4253 -2.7568
  191SLPC   H3S22091   2.307   0.936   6.771 -0.9460  1.1898 -2.8838
  191SLPC   C2422092   2.180   0.866   6.928  0.6268  0.1684 -0.9973
  191SLPC   H4R22093   2.266   0.818   6.980 -0.0239 -0.6567 -0.6366
  191SLPC   H4S22094   2.088   0.804   6.944  3.1733 -4.0327 -1.0209
  191SLPC   C2522095   2.150   0.992   7.011  0.0856 -0.4854 -0.3746
  191SLPC   H5R22096   2.057   1.029   6.963  0.5256 -0.2459 -1.0482
  191SLPC   H5S22097   2.238   1.059   7.001 -0.0188 -0.6784 -3.1398
  191SLPC   C2622098   2.105   0.955   7.160  0.0776  1.1134 -0.0376
  191SLPC   H6R22099   2.195   0.915   7.213 -1.0123  2.4473  3.0273
  191SLPC   H6S22100   2.021   0.884   7.149  0.3749  0.6617  0.5780
  191SLPC   C2722101   2.055   1.078   7.244 -0.6624  0.0108  0.1625
  191SLPC   H7R22102   1.974   1.113   7.177 -0.6995  1.3981  0.9038
  191SLPC   H7S22103   2.132   1.157   7.251 -0.7370  0.3212 -2.0119
  191SLPC   C2822104   2.017   1.045   7.392 -0.1818  0.3437 -0.7082
  191SLPC   H8R22105   1.932   0.974   7.398  1.2854 -1.6791 -2.3170
  191SLPC   H8S22106   1.978   1.137   7.439  2.0354 -0.1762  2.5374
  191SLPC   C2922107   2.136   1.013   7.477 -0.5592 -0.6150 -0.3668
  191SLPC   H9R22108   2.221   0.957   7.434  1.0857  1.7297 -0.3507
  191SLPC  C21022109   2.152   1.052   7.603  0.6805  0.0610  0.0461
  191SLPC  H10R22110   2.243   1.021   7.656  1.0130  1.9300  0.6449
  191SLPC  C21122111   2.052   1.122   7.694  0.1454  0.6195  0.1291
  191SLPC  H11R22112   1.995   1.198   7.637  0.6360  2.2539  1.7314
  191SLPC  H11S22113   2.111   1.182   7.766  1.6617 -0.7444  0.0883
  191SLPC  C21222114   1.949   1.031   7.759 -0.0093 -0.5571 -0.3905
  191SLPC  H12R22115   1.894   0.962   7.693 -0.6613 -0.5797  0.1583
  191SLPC  C21322116   1.917   1.033   7.886 -0.7625  0.2706 -0.0408
  191SLPC  H13R22117   1.846   0.957   7.921  0.2777  0.4209  2.6294
  191SLPC  C21422118   1.967   1.127   7.992 -0.5166  0.8151 -0.0349
  191SLPC  H14R22119   2.004   1.218   7.941  1.1912  0.2419  0.1211
  191SLPC  H14S22120   2.051   1.075   8.043 -1.3126  0.5271  1.0188
  191SLPC  C21522121   1.855   1.166   8.095 -0.6492  1.0166 -0.5762
  191SLPC  H15R22122   1.751   1.157   8.057 -0.7342 -2.1915  0.1289
  191SLPC  H15S22123   1.886   1.264   8.136 -0.7162  0.3835  1.0748
  191SLPC  C21622124   1.869   1.074   8.216  0.2254 -0.0621  0.0300
  191SLPC  H16R22125   1.969   1.094   8.260  0.6587 -2.4506  0.2438
  191SLPC  H16S22126   1.862   0.970   8.177 -0.0272 -1.3163  3.1580
  191SLPC  C21722127   1.760   1.095   8.325 -0.3827 -0.6037  0.0967
  191SLPC  H17R22128   1.661   1.082   8.277 -0.3624  0.0428 -0.1333
  191SLPC  H17S22129   1.763   1.198   8.367 -2.1943 -0.5599  0.2192
  191SLPC  C21822130   1.763   0.978   8.426 -0.4088 -1.0010  0.3236
  191SLPC  H18R22131   1.660   0.978   8.467 -0.7982 -0.6225 -0.6228
  191SLPC  H18S22132   1.844   1.002   8.499 -0.3198  1.0602 -0.4073
  191SLPC  H18T22133   1.776   0.878   8.379  1.3490 -0.6777  0.0469
  191SLPC   C3322134   1.804   0.739   6.674 -0.3866  0.0274  1.1156
  191SLPC   H3X22135   1.910   0.752   6.706 -0.8782  0.7229  2.5680
  191SLPC   H3Y22136   1.778   0.632   6.688 -0.3244 -0.1814 -0.2171
  191SLPC   C3422137   1.710   0.802   6.776  0.5671 -0.0828  0.3198
  191SLPC   H4X22138   1.702   0.736   6.865 -3.8584  0.6013  0.6259
  191SLPC   H4Y22139   1.609   0.816   6.733  1.2153  1.5569 -0.7814
  191SLPC   C3522140   1.750   0.947   6.818 -0.0880 -0.4048 -0.0908
  191SLPC   H5X22141   1.796   1.006   6.736  2.3209 -0.3816  1.1869
  191SLPC   H5Y22142   1.840   0.927   6.880  1.1254 -1.5670 -2.1012
  191SLPC   C3622143   1.644   1.019   6.898  0.9945  0.7103 -0.1849
  191SLPC   H6X22144   1.568   1.048   6.823  1.1480  1.9122  0.1022
  191SLPC   H6Y22145   1.682   1.117   6.936  0.7100  1.1212 -0.9254
  191SLPC   C3722146   1.592   0.930   7.009  0.6582  0.0284  0.1384
  191SLPC   H7X22147   1.652   0.933   7.103 -2.0776 -0.4988  2.0334
  191SLPC   H7Y22148   1.571   0.823   6.988  0.0640 -0.0249  0.9459
  191SLPC   C3822149   1.459   0.989   7.068  0.3512 -0.3203 -0.1021
  191SLPC   H8X22150   1.376   0.993   6.994  0.0834 -0.6237  0.1805
  191SLPC   H8Y22151   1.477   1.091   7.108  2.2717 -1.8715  3.4449
  191SLPC   C3922152   1.413   0.903   7.185  0.1383 -0.0479 -0.1476
  191SLPC   H9X22153   1.500   0.886   7.252 -0.8420 -0.8437  0.9575
  191SLPC   H9Y22154   1.387   0.803   7.142  0.4970  0.0335 -0.5581
  191SLPC  C31022155   1.287   0.942   7.261  0.1688 -0.2958 -0.1054
  191SLPC  H10X22156   1.201   0.951   7.190  1.2818  1.2513 -1.3257
  191SLPC  H10Y22157   1.297   1.044   7.302 -1.7750  0.8561 -2.2543
  191SLPC  C31122158   1.258   0.832   7.373 -0.2928 -0.2273 -0.1670
  191SLPC  H11X22159   1.350   0.825   7.434  0.3797  0.3805 -1.0751
  191SLPC  H11Y22160   1.224   0.732   7.338 -0.9476 -0.2614  0.5387
  191SLPC  C31222161   1.130   0.872   7.447  0.5827  0.2695  0.4218
  191SLPC  H12X22162   1.034   0.869   7.392 -0.9623  1.4213  2.8768
  191SLPC  H12Y22163   1.147   0.972   7.493  1.3467 -0.1801  1.1578
  191SLPC  C31322164   1.115   0.779   7.570  0.1678  0.3847  0.1576
  191SLPC  H13X22165   1.223   0.763   7.593  0.2608 -0.8312 -1.0469
  191SLPC  H13Y22166   1.063   0.685   7.544  0.9054  0.0652 -0.1739
  191SLPC  C31422167   1.046   0.837   7.686 -0.7454 -0.6877  0.2467
  191SLPC  H14X22168   0.951   0.881   7.649  0.2254  1.4220  0.0801
  191SLPC  H14Y22169   1.107   0.925   7.717 -2.9756  1.4137 -0.9091
  191SLPC  C31522170   1.031   0.747   7.805  0.2556 -0.7677 -0.4768
  191SLPC  H15X22171   1.119   0.684   7.832 -0.4525 -1.1924  0.9169
  191SLPC  H15Y22172   0.947   0.677   7.787  0.0919 -0.8770  0.6239
  191SLPC  C31622173   1.007   0.828   7.937 -0.5590  0.5229 -0.6101
  191SLPC  H16X22174   0.897   0.840   7.930 -1.1670 -3.2084  0.1261
  191SLPC  H16Y22175   1.078   0.913   7.938  0.7557 -0.5484 -0.4782
  191SLPC  C31722176   1.026   0.751   8.071 -0.4945  0.1998  0.3456
  191SLPC  H17X22177   1.061   0.829   8.141  0.5759  0.4241 -0.3956
  191SLPC  H17Y22178   1.109   0.679   8.049 -1.7935 -0.6914 -1.9796
  191SLPC  C31822179   0.909   0.662   8.108 -0.4890 -0.9744  0.1089
  191SLPC  H18X22180   0.935   0.589   8.188 -1.3815 -1.7532 -0.2813
  191SLPC  H18Y22181   0.873   0.606   8.019 -3.6038  1.4170 -0.2881
  191SLPC  H18Z22182   0.823   0.724   8.141 -0.2474  0.3504 -1.6543
  192SLPC     N22183   4.253   1.507   6.002  0.3867 -0.0786  0.4751
  192SLPC   C1322184   4.116   1.480   5.946  0.0238 -0.1835  0.0971
  192SLPC  H13A22185   4.106   1.379   5.910  0.6988 -0.7012  1.2848
  192SLPC  H13B22186   4.041   1.492   6.023  0.3073 -0.6079  0.4443
  192SLPC  H13C22187   4.097   1.559   5.874  1.7937  0.1744 -0.0335
  192SLPC   C1422188   4.264   1.643   6.051  0.7894  0.6896  0.4837
  192SLPC  H14A22189   4.364   1.661   6.088  0.3191 -0.5575  2.4597
  192SLPC  H14B22190   4.242   1.708   5.967  0.6544  1.0930  0.8295
  192SLPC  H14C22191   4.191   1.651   6.130 -1.4693  0.5576 -1.4531
  192SLPC   C1522192   4.353   1.484   5.889 -0.3180 -0.1416 -0.3294
  192SLPC  H15A22193   4.352   1.380   5.861  0.3111 -1.5002  3.9475
  192SLPC  H15B22194   4.329   1.544   5.803  0.6804 -0.7183 -1.0350
  192SLPC  H15C22195   4.459   1.498   5.905 -0.2371 -2.7719  2.1140
  192SLPC   C1222196   4.291   1.412   6.115  0.3323  0.0858  0.0452
  192SLPC  H12A22197   4.376   1.452   6.168  0.0613  0.1030  0.4764
  192SLPC  H12B22198   4.320   1.318   6.072 -0.7100 -0.2245 -0.0237
  192SLPC   C1122199   4.186   1.386   6.233 -1.1962  0.2873  0.6300
  192SLPC  H11A22200   4.226   1.313   6.307 -1.2712  0.4005  0.7817
  192SLPC  H11B22201   4.098   1.332   6.194 -0.2734 -0.2250 -0.8251
  192SLPC     P22202   4.252   1.584   6.387  0.1256 -0.2953 -0.1020
  192SLPC   O1322203   4.392   1.539   6.359 -0.0746  0.1329 -0.5793
  192SLPC   O1422204   4.224   1.723   6.353 -0.4734 -0.2844 -0.5343
  192SLPC   O1222205   4.145   1.500   6.303  1.0925 -0.3406  0.2420
  192SLPC   O1122206   4.210   1.556   6.539 -0.0200  0.0769  0.4789
  192SLPC    C122207   4.084   1.523   6.575  0.5028 -0.4670 -1.1614
  192SLPC    HA22208   4.020   1.614   6.580  0.6211 -0.4557  1.0797
  192SLPC    HB22209   4.040   1.450   6.504  2.0903 -0.6685 -1.9828
  192SLPC    C222210   4.083   1.457   6.718 -0.2493 -0.3110 -0.1745
  192SLPC    HS22211   3.983   1.408   6.726 -0.7589  0.8785  1.7053
  192SLPC   O2122212   4.096   1.554   6.830  0.0705 -0.6912  0.5358
  192SLPC   C2122213   3.987   1.627   6.847 -0.0677  0.2790  0.4666
  192SLPC   O2222214   3.888   1.631   6.778 -0.4797 -0.0840 -0.3763
  192SLPC   C2222215   4.009   1.709   6.967 -0.0098 -0.3977 -0.7947
  192SLPC   H2R22216   4.091   1.676   7.034  0.1328  0.1198 -0.7106
  192SLPC   H2S22217   4.037   1.811   6.932  0.5858 -1.4021 -3.4794
  192SLPC    C322218   4.192   1.356   6.731  0.0144  0.0750  0.2081
  192SLPC    HX22219   4.289   1.410   6.730 -0.7054  1.3981 -0.4915
  192SLPC    HY22220   4.185   1.289   6.642 -1.4479  0.8115 -0.2595
  192SLPC   O3122221   4.169   1.273   6.848  0.2376 -0.2633 -0.2056
  192SLPC   C3122222   4.251   1.171   6.866  0.7996  0.8520 -0.1432
  192SLPC   O3222223   4.332   1.129   6.780  0.0272  0.0962 -0.7662
  192SLPC   C3222224   4.236   1.109   7.001 -0.3265 -0.0438 -0.2708
  192SLPC   H2X22225   4.129   1.124   7.026  0.0217  2.0643  0.1103
  192SLPC   H2Y22226   4.301   1.162   7.074  2.0643 -3.2971  0.2376
  192SLPC   C2322227   3.877   1.734   7.048  0.2452 -0.1378  0.0868
  192SLPC   H3R22228   3.845   1.638   7.096  0.2290 -0.3680 -0.3801
  192SLPC   H3S22229   3.791   1.753   6.981  0.5636  2.1983  0.2724
  192SLPC   C2422230   3.871   1.842   7.155  0.1148  0.2147 -0.5155
  192SLPC   H4R22231   3.954   1.806   7.219 -1.0914 -2.0596 -0.1251
  192SLPC   H4S22232   3.778   1.834   7.214  0.0792 -0.5192 -0.6662
  192SLPC   C2522233   3.893   1.985   7.100 -0.2665 -0.1784 -0.2180
  192SLPC   H5R22234   3.797   2.018   7.055 -0.0483  2.2709  0.9596
  192SLPC   H5S22235   3.961   1.980   7.013  2.5667  0.0665  1.8240
  192SLPC   C2622236   3.955   2.082   7.199  0.3643 -0.4688 -0.3141
  192SLPC   H6R22237   4.042   2.040   7.255  0.1711 -0.9546 -0.3709
  192SLPC   H6S22238   3.887   2.096   7.285 -0.7093  0.4843 -1.2902
  192SLPC   C2722239   3.976   2.222   7.138  0.4049  0.4809 -0.1981
  192SLPC   H7R22240   3.873   2.260   7.119 -0.8579 -1.9369  1.3371
  192SLPC   H7S22241   4.023   2.205   7.039 -0.8586  0.4399 -0.8105
  192SLPC   C2822242   4.070   2.311   7.222  0.6603  0.6908 -0.3346
  192SLPC   H8R22243   4.131   2.367   7.148  0.5796 -0.8044 -1.5801
  192SLPC   H8S22244   4.134   2.242   7.282 -0.6181 -0.4966 -0.2701
  192SLPC   C2922245   3.986   2.397   7.320  0.0495  0.1869 -0.2055
  192SLPC   H9R22246   3.959   2.495   7.277  0.3338  0.5908  0.5167
  192SLPC  C21022247   3.950   2.370   7.450  0.7527  0.4334  0.4210
  192SLPC  H10R22248   3.895   2.450   7.502 -0.9912  1.1340 -2.3053
  192SLPC  C21122249   3.984   2.252   7.530 -0.4370  0.8869 -0.2246
  192SLPC  H11R22250   4.048   2.271   7.618  0.2938  2.0988 -0.9858
  192SLPC  H11S22251   4.046   2.174   7.482  0.0412  0.4174  1.1198
  192SLPC  C21222252   3.850   2.201   7.586  1.0354 -0.1241 -0.7797
  192SLPC  H12R22253   3.781   2.154   7.515 -1.0135  0.4583  0.7175
  192SLPC  C21322254   3.816   2.189   7.717  0.1449  0.0635 -0.0109
  192SLPC  H13R22255   3.713   2.157   7.740  0.4649 -1.2763 -0.3150
  192SLPC  C21422256   3.902   2.222   7.837  0.5943 -0.1511  0.2445
  192SLPC  H14R22257   3.990   2.285   7.811 -1.5852  1.6755 -3.4114
  192SLPC  H14S22258   3.949   2.132   7.882  3.0818  1.0913  0.2861
  192SLPC  C21522259   3.817   2.298   7.941  0.2528 -0.5335 -0.3783
  192SLPC  H15R22260   3.743   2.354   7.879  0.5286  0.5613  0.2427
  192SLPC  H15S22261   3.875   2.374   7.998  1.3997  0.0187 -2.1909
  192SLPC  C21622262   3.732   2.229   8.048  0.3824 -0.5471 -0.2891
  192SLPC  H16R22263   3.789   2.148   8.098  1.3652  0.3194  0.0326
  192SLPC  H16S22264   3.640   2.186   8.004 -1.2174  0.1014  2.2035
  192SLPC  C21722265   3.681   2.316   8.163 -0.3034  0.0464  0.2346
  192SLPC  H17R22266   3.756   2.383   8.210 -1.4838  0.0790  2.1639
  192SLPC  H17S22267   3.604   2.374   8.107 -0.9755  0.2509  1.3440
  192SLPC  C21822268   3.598   2.234   8.263  0.1509  0.4847 -0.3605
  192SLPC  H18R22269   3.528   2.160   8.218  1.5587 -0.5401 -0.9393
  192SLPC  H18S22270   3.536   2.295   8.332  0.9364 -0.4229  1.2130
  192SLPC  H18T22271   3.661   2.166   8.324 -0.0827  0.2900 -0.3368
  192SLPC   C3322272   4.268   0.960   7.012  0.1467  0.1502 -0.2719
  192SLPC   H3X22273   4.371   0.932   6.979 -0.2564  0.4254 -1.8288
  192SLPC   H3Y22274   4.199   0.918   6.936 -0.3996 -1.9678  1.2963
  192SLPC   C3422275   4.226   0.896   7.150  0.9407 -0.1157  0.2882
  192SLPC   H4X22276   4.211   0.787   7.135 -2.6010  0.3345 -0.3486
  192SLPC   H4Y22277   4.124   0.924   7.183  0.3345 -3.0769  1.2901
  192SLPC   C3522278   4.318   0.925   7.261  0.0398  0.1133 -0.0774
  192SLPC   H5X22279   4.306   1.033   7.281 -0.1390 -0.0466  0.7101
  192SLPC   H5Y22280   4.424   0.907   7.233 -0.4660 -0.1907 -1.9292
  192SLPC   C3622281   4.275   0.845   7.378 -0.0471  0.6274 -0.6957
  192SLPC   H6X22282   4.321   0.745   7.394 -3.1633 -1.1668 -1.9655
  192SLPC   H6Y22283   4.164   0.840   7.374 -0.1718  1.1834  1.1759
  192SLPC   C3722284   4.302   0.909   7.510 -0.0641  0.6523 -0.4860
  192SLPC   H7X22285   4.273   1.016   7.524  1.5310  1.4836 -2.8697
  192SLPC   H7Y22286   4.413   0.904   7.520 -0.0548 -5.2795 -0.4668
  192SLPC   C3822287   4.251   0.811   7.624 -0.0305  0.1836 -0.2967
  192SLPC   H8X22288   4.301   0.712   7.618  2.5699  1.4822 -1.8859
  192SLPC   H8Y22289   4.145   0.783   7.607  0.0297  0.6125 -1.4025
  192SLPC   C3922290   4.270   0.864   7.769  0.2362  0.0631 -0.1261
  192SLPC   H9X22291   4.315   0.966   7.769 -0.2977  0.3052  0.5782
  192SLPC   H9Y22292   4.329   0.795   7.833  0.1481  0.6777  0.6282
  192SLPC  C31022293   4.139   0.880   7.848  0.4041 -0.2816  0.1324
  192SLPC  H10X22294   4.087   0.782   7.856 -0.1538 -0.0323 -0.3347
  192SLPC  H10Y22295   4.076   0.955   7.796  0.2268 -0.1642  0.5151
  192SLPC  C31122296   4.167   0.940   7.989 -0.2048  0.7674 -0.3795
  192SLPC  H11X22297   4.225   1.034   7.981 -0.0182  0.7050  0.1947
  192SLPC  H11Y22298   4.223   0.872   8.057 -1.4845 -1.1950 -1.1909
  192SLPC  C31222299   4.036   0.986   8.053 -0.1212  0.1280 -0.3968
  192SLPC  H12X22300   3.987   0.887   8.066 -0.5346  0.2916 -0.6779
  192SLPC  H12Y22301   3.980   1.062   7.993 -0.8329  1.3154  1.6613
  192SLPC  C31322302   4.052   1.071   8.181 -0.1938  0.6113  0.4993
  192SLPC  H13X22303   4.108   1.166   8.170 -0.8201  1.0339  0.9255
  192SLPC  H13Y22304   4.103   1.001   8.250 -0.8114  0.7588  1.1115
  192SLPC  C31422305   3.909   1.110   8.238 -0.0664 -0.2497 -0.8181
  192SLPC  H14X22306   3.855   1.022   8.278  0.4965  0.6620  2.1257
  192SLPC  H14Y22307   3.846   1.145   8.153  0.1884 -0.9737 -1.3187
  192SLPC  C31522308   3.905   1.223   8.348  0.3518 -0.3069  0.3299
  192SLPC  H15X22309   3.970   1.304   8.307 -0.3326  1.0069  1.7681
  192SLPC  H15Y22310   3.945   1.192   8.446 -2.7017 -3.0327  0.8562
  192SLPC  C31622311   3.764   1.277   8.363  0.3390 -0.8899 -0.1440
  192SLPC  H16X22312   3.700   1.190   8.389 -1.4558  0.6194  0.7456
  192SLPC  H16Y22313   3.718   1.314   8.269  1.1641 -0.4596 -0.3851
  192SLPC  C31722314   3.760   1.375   8.484 -0.1442  0.0955  0.6245
  192SLPC  H17X22315   3.779   1.479   8.451 -0.8864 -0.1173 -0.5356
  192SLPC  H17Y22316   3.835   1.340   8.559 -1.6318  1.8457  3.0826
  192SLPC  C31822317   3.626   1.377   8.553 -0.6761  0.2889  0.1101
  192SLPC  H18X22318   3.609   1.293   8.624 -1.4612 -0.2615 -0.7040
  192SLPC  H18Y22319   3.547   1.390   8.475  0.5552 -0.2073 -1.2669
  192SLPC  H18Z22320   3.623   1.467   8.617 -2.0134  0.5150 -0.2287
  193SOD    SOD22321   1.935   5.041  17.064  0.2712 -0.1118  0.0129
  194SOD    SOD22322   2.902   1.444   5.849  0.0518 -0.3622 -0.5259
  195SOD    SOD22323   6.347   0.437   5.096 -0.5361  0.4431  0.0514
  196SOD    SOD22324   1.987   0.957   5.201  0.2593 -0.1934  0.0759
  197SOD    SOD22325   5.879   3.880  14.443  0.0930 -0.5555  0.3654
  198SOD    SOD22326   5.899   3.730   6.018 -0.0809 -0.1372  0.2513
  199SOD    SOD22327   4.173   1.475  10.653 -0.4197 -0.0864 -0.1195
  200SOD    SOD22328   6.653   4.116   1.878  0.1790  0.1133  0.0390
  201SOD    SOD22329   5.367   4.157   2.726  0.2426  0.3147  0.2586
  202SOD    SOD22330   1.813   0.154   5.071 -0.1761 -0.1471 -0.2711
  203SOD    SOD22331   6.701   4.977  10.455 -0.0998  0.3962 -0.2534
  204SOD    SOD22332   0.940   4.511  11.167  0.0551  0.2720  0.2112
  205SOD    SOD22333   6.605   3.835  10.435 -0.2027  0.1997  0.3298
  206SOD    SOD22334   1.468   1.335  16.962  0.6003  0.0058  0.1915
  207SOD    SOD22335   0.578   6.075   0.218 -0.0836  0.0611 -0.2476
  208SOD    SOD22336   0.520   3.853  10.485  0.0802  0.1015  0.0555
  209SOD    SOD22337   0.473   3.165   3.263  0.2427 -0.1999  0.2483
  210SOD    SOD22338   3.759   1.093  12.263  0.0313  0.0568 -0.4396
  211SOD    SOD22339   3.999   3.559  15.634 -0.0735 -0.4477 -0.6275
  212SOD    SOD22340   5.273   3.476   0.498  0.8346 -0.1555 -0.1188
  213SOD    SOD22341   1.947   2.346  14.153 -0.1889  0.3687 -0.2058
  214SOD    SOD22342   5.814   6.060  12.382 -0.2977 -0.1055 -0.2546
  215SOD    SOD22343   4.594   5.977   2.632  0.4489  0.0301  0.2086
  216SOD    SOD22344   4.745   5.556  11.390 -0.0092  0.5196  0.1668
  217SOD    SOD22345   3.913   5.018   0.200 -0.0341  0.5065  0.2851
  218SOD    SOD22346   5.321   3.448   2.154  0.3831  0.2579 -0.0795
  219SOD    SOD22347   4.855   2.045  16.757 -0.2243  0.0289  0.0619
  220SOD    SOD22348   4.373   6.708  16.458  0.3935  0.0379  0.1848
  221SOD    SOD22349   5.929   6.703   3.757 -0.0514  0.1133 -0.2414
  222SOD    SOD22350   2.970   3.443  15.766  0.0956  0.1146  0.0049
  223SOD    SOD22351   3.398   5.122   0.336 -0.0179 -0.1493 -0.5019
  224SOD    SOD22352   6.136   6.236  15.134  0.0560  0.6061 -0.0697
  225SOD    SOD22353   1.033   6.529  10.899  0.5487 -0.1240  0.3593
  226SOD    SOD22354   2.847   4.737   4.824  0.3075 -0.2527  0.1457
  227SOD    SOD22355   1.934   2.257  12.526  0.1022  0.7766 -0.1082
  228SOD    SOD22356   0.130   0.479  15.031  0.1224  0.2870  0.0988
  229SOD    SOD22357   0.807   3.010   2.348  0.1978  0.0831  0.5916
  230SOD    SOD22358   3.516   1.607  13.736 -0.1207  0.2737 -0.0871
  231SOD    SOD22359   2.825   0.639   4.072 -0.1049 -0.1040  0.1347
  232SOD    SOD22360   1.952   4.487   2.574 -0.0241  0.2776 -0.4993
  233SOD    SOD22361   0.604   1.224   6.282 -0.1337  0.3292 -0.2846
  234SOD    SOD22362   2.798   1.079  13.356 -0.1183  0.2277  0.0275
  235SOD    SOD22363   4.882   5.411  13.057 -0.0168  0.4083  0.3601
  236SOD    SOD22364   1.013   3.598  16.576  0.0373 -0.0213  0.4427
  237SOD    SOD22365   3.527   2.427  15.738  0.1569  0.0670  0.1660
  238SOD    SOD22366   5.251   5.714  11.181  0.5095  0.4790  0.4635
  239SOD    SOD22367   6.013   0.125  15.001 -0.3996 -0.3419 -0.3012
  240SOD    SOD22368   4.929   0.291  11.708  0.2812 -0.1878  0.0186
  241SOD    SOD22369   5.381   0.038   6.076  0.7310  0.2807 -0.0781
  242SOD    SOD22370   3.121   6.007   4.886 -0.5418  0.0769 -0.1915
  243SOD    SOD22371   6.164   3.718   2.358  0.5123  0.0884 -0.3540
  244SOD    SOD22372   3.563   4.425   5.315  0.0186  0.2240 -0.5168
  245SOD    SOD22373   2.663   4.833   5.752 -0.1121 -0.6067  0.1941
  246SOD    SOD22374   5.126   1.426  11.824 -0.5488 -0.1982 -0.3296
  247SOD    SOD22375   1.657   3.343   4.114 -0.7518  0.1880  0.2427
  248SOD    SOD22376   4.715   3.148   1.218  0.4230 -0.0455 -0.3979
  249SOD    SOD22377   4.697   2.639  13.018 -0.3197 -0.1738  0.1166
  250SOD    SOD22378   0.594   0.873  11.813 -0.4343 -0.1648 -0.7502
  251SOD    SOD22379   0.842   6.141  16.457  0.3365 -0.4444  0.6766
  252SOD    SOD22380   4.892   3.363   1.713  0.1563 -0.2594 -0.3509
  253SOD    SOD22381   6.546   0.712   6.071  0.4546 -0.7759 -0.3117
  254SOD    SOD22382   4.180   3.131   6.616 -0.0592 -0.0761  0.1592
  255SOD    SOD22383   1.981   4.111   0.707  0.1686  0.0218 -0.7422
  256SOD    SOD22384   6.298   1.559   6.587 -0.3693 -0.0206 -0.0555
  257SOD    SOD22385   5.707   2.902   0.074  0.4489 -0.3757  0.2723
  258SOD    SOD22386   2.589   3.172   4.631  0.3390  0.1581  0.1844
  259SOD    SOD22387   3.148   2.579  16.400 -0.6100 -0.0075 -0.4319
  260SOD    SOD22388   4.834   4.132  12.944 -0.2776 -0.0722 -0.0273
  261SOD    SOD22389   2.720   0.800  12.088 -0.6051  0.0844 -0.2959
  262SOD    SOD22390   3.659   3.056   2.258  0.0360 -0.3012  0.3331
  263SOD    SOD22391   2.039   4.160  11.128 -0.0272 -0.2941 -0.0220
  264SOD    SOD22392   3.517   6.360  15.131  0.0840 -0.1695  0.3288
  265SOD    SOD22393   3.519   1.504   5.278  0.7469 -0.1310  0.4189
  266CLA    CLA22394   4.327   3.496   5.052  0.0984 -0.2347  0.1902
  267CLA    CLA22395   4.124   6.618  12.050  0.1502  0.2222 -0.1219
  268CLA    CLA22396   1.332   2.605  15.389  0.0385 -0.1194  0.0033
  269CLA    CLA22397   1.418   3.903   2.741 -0.1939  0.1236  0.3553
  270CLA    CLA22398   1.812   3.727  14.507 -0.3187 -0.4519  0.3138
  271CLA    CLA22399   4.573   2.200  13.242  0.0179 -0.4316 -0.0008
  272CLA    CLA22400   6.813   0.579   0.212 -0.0495 -0.3652  0.0740
  273CLA    CLA22401   3.043   0.227   0.823 -0.3177  0.2295  0.2417
  274CLA    CLA22402   2.466   0.435  12.731 -0.1456 -0.1423  0.1800
  275CLA    CLA22403   4.754   0.155   0.001 -0.3959 -0.5324 -0.1143
  276CLA    CLA22404   6.382   5.388   2.000 -0.0607 -0.5127  0.0618
  277CLA    CLA22405   5.054   1.657   1.703  0.4081 -0.3224 -0.0555
  278CLA    CLA22406   4.956   2.256   5.784 -0.4759  0.7596 -0.0994
  279CLA    CLA22407   6.540   6.138  14.384  0.3572  0.2235 -0.2450
  280CLA    CLA22408   5.664   3.833  12.431 -0.3117 -0.3558 -0.2656
  281CLA    CLA22409   2.091   4.313  13.663 -0.2998 -0.0542 -0.0349
  282CLA    CLA22410   3.321   2.780  16.308 -0.1401  0.2524 -0.3923
  283CLA    CLA22411   3.709   1.865  16.836 -0.4662 -0.1426  0.2939
  284CLA    CLA22412   1.133   0.848   0.027 -0.4914 -0.4463  0.0432
  285CLA    CLA22413   5.665   0.846   3.152 -0.5452 -0.3246 -0.4172
  286CLA    CLA22414   1.811   3.973   3.427  0.0193 -0.0798 -0.2802
  287CLA    CLA22415   5.154   3.252   1.768  0.2735 -0.0517 -0.0118
  288CLA    CLA22416   1.901   2.146   3.667  0.0307 -0.0103  0.1768
  289CLA    CLA22417   3.522   2.137  12.307 -0.1608  0.4509 -0.6637
  290CLA    CLA22418   3.015   3.784  16.014 -0.0968 -0.0639  0.0035
  291CLA    CLA22419   4.221   3.704  11.860 -0.3511  0.1499  0.3326
  292CLA    CLA22420   0.900   3.144  15.928  0.3799 -0.2138 -0.0916
  293CLA    CLA22421   6.236   5.508  15.168 -0.4772  0.1232 -0.1073
  294CLA    CLA22422   2.950   1.470   4.015  0.2936 -0.0827  0.0658
  295CLA    CLA22423   5.307   4.320   5.260  0.0654  0.0287 -0.4324
  296CLA    CLA22424   1.875   5.494  15.434 -0.0235 -0.3043 -0.2219
  297CLA    CLA22425   5.798   0.388   5.922 -0.1357  0.1371 -0.3709
  298CLA    CLA22426   3.478   6.176  16.684  0.2355 -0.1673 -0.1022
  299CLA    CLA22427   1.454   2.119  13.580 -0.2058  0.2021  0.2728
  300CLA    CLA22428   2.313   3.750   0.397 -0.2074  0.2966 -0.1463
  301CLA    CLA22429   5.189   4.322  16.769 -0.3903 -0.3743  0.5728
  302CLA    CLA22430   4.248   0.531  12.669  0.3785 -0.2453  0.0563
  303CLA    CLA22431   0.759   2.338   2.029 -0.4833 -0.4237  0.6941
  304CLA    CLA22432   6.161   5.105  16.277 -0.1618  0.1993 -0.6356
  305CLA    CLA22433   1.937   0.869   2.225  0.2263  0.1384 -0.0049
  306CLA    CLA22434   1.700   4.915  13.540  0.0758  0.1098  0.3099
  307CLA    CLA22435   2.218   4.817   0.975  0.4722  0.0707  0.1725
  308CLA    CLA22436   4.097   1.431  13.190  0.7585 -0.1431 -0.1018
  309CLA    CLA22437   0.936   3.825   0.888 -0.0046  0.2507  0.0242
  310CLA    CLA22438   1.018   4.703   0.511  0.0392  0.1020 -0.2075
  311CLA    CLA22439   6.424   4.490   3.834 -0.4180  0.1860 -0.4232
  312CLA    CLA22440   3.971   4.747   3.178 -0.5418  0.4253  0.2762
  313CLA    CLA22441   6.243   3.932   2.159 -0.3018 -0.2667 -0.1516
  314CLA    CLA22442   2.799   3.758   3.959  0.0961  0.2747 -0.0792
  315CLA    CLA22443   2.133   0.973  13.502  0.5815  0.4351 -0.2557
  316CLA    CLA22444   4.455   4.514  11.351 -0.2101 -0.0660 -0.0849
  317CLA    CLA22445   3.549   3.272   2.118 -0.2762 -0.0852 -0.4858
  318CLA    CLA22446   4.083   2.181   2.760  0.2155 -0.2535  0.1317
  319TIP3   OH222447   5.550   1.641  13.574 -0.1862  0.7039 -0.9444
  319TIP3    H122448   5.513   1.674  13.492  1.3267  2.5602 -0.9667
  319TIP3    H222449   5.514   1.699  13.641  1.0055  1.2414 -0.7321
  320TIP3   OH222450   4.879   4.797   1.080 -0.0284  0.5806  0.4397
  320TIP3    H122451   4.876   4.868   1.016 -2.9708  0.1348 -0.0713
  320TIP3    H222452   4.840   4.836   1.159  0.5244  0.1819  0.9140
  321TIP3   OH222453   5.162   0.104  13.109  0.5660  0.7128  0.3796
  321TIP3    H122454   5.243   0.054  13.122  0.9554  1.3004  0.2270
  321TIP3    H222455   5.093   0.045  13.141  0.9239 -0.2821 -0.6184
  322TIP3   OH222456   0.845   5.027  15.847 -0.2300  0.1606  0.7310
  322TIP3    H122457   0.938   5.018  15.869  0.1949 -0.1033 -1.0577
  322TIP3    H222458   0.806   4.944  15.874  1.0966 -1.9814 -3.2009
  323TIP3   OH222459   5.716   3.139  14.472  0.5592  0.0143 -0.0239
  323TIP3    H122460   5.806   3.110  14.454  0.1743 -0.2690 -1.6378
  323TIP3    H222461   5.664   3.059  14.469  0.0938  0.3213 -0.1794
  324TIP3   OH222462   3.677   1.259   5.926  0.3974 -0.6269  0.5317
  324TIP3    H122463   3.612   1.296   5.987  0.2298 -0.1063  0.0445
  324TIP3    H222464   3.752   1.238   5.981  1.2932  2.2743  0.5861
  325TIP3   OH222465   2.805   5.806  10.711 -0.0805 -0.1630 -0.2198
  325TIP3    H122466   2.842   5.842  10.630  0.6746 -0.7481 -0.1459
  325TIP3    H222467   2.874   5.819  10.776 -0.2862 -0.6200  0.0943
  326TIP3   OH222468   4.479   0.397   4.959  0.0139 -0.3825  0.8005
  326TIP3    H122469   4.383   0.392   4.956  0.0803 -3.4959  0.9128
  326TIP3    H222470   4.501   0.374   5.050  0.8672  3.2839  1.6726
  327TIP3   OH222471   1.540   1.028  15.074  0.0773 -0.3838  0.0517
  327TIP3    H122472   1.525   1.039  15.168 -0.3606 -1.5212  0.1303
  327TIP3    H222473   1.506   0.941  15.054 -0.1192 -0.0399 -1.2276
  328TIP3   OH222474   2.768   2.749  14.403  0.0694  0.8712  0.1145
  328TIP3    H122475   2.855   2.788  14.416  0.5061 -0.2691  0.7126
  328TIP3    H222476   2.714   2.822  14.373  0.6601  2.1388  1.9269
  329TIP3   OH222477   4.495   6.742  12.447  0.4819  0.1574  0.0478
  329TIP3    H122478   4.578   6.787  12.431  1.5626 -1.5948  0.4595
  329TIP3    H222479   4.463   6.719  12.360  1.4728 -0.9025 -0.0682
  330TIP3   OH222480   4.101   2.327   3.362 -0.1040  0.3566 -0.1724
  330TIP3    H122481   4.183   2.307   3.408  0.6434  3.3939  0.0096
  330TIP3    H222482   4.111   2.282   3.278  0.4779 -1.5814  0.8529
  331TIP3   OH222483   4.891   1.411   4.293 -0.0907 -0.1730 -0.2214
  331TIP3    H122484   4.974   1.443   4.258 -0.1502 -1.0574 -1.2281
  331TIP3    H222485   4.889   1.319   4.269 -1.1892 -0.2578  0.1482
  332TIP3   OH222486   0.192   5.327   3.816  0.1217 -0.1714  0.5547
  332TIP3    H122487   0.221   5.237   3.825  1.6892 -0.0235 -2.1892
  332TIP3    H222488   0.270   5.376   3.792 -1.2171  1.4056 -0.8506
  333TIP3   OH222489   0.941   0.321   0.649 -0.1351  0.7211 -0.1426
  333TIP3    H122490   0.959   0.414   0.645  1.6779  0.4283  0.3184
  333TIP3    H222491   0.955   0.296   0.740  0.1978 -0.1319 -0.4080
  334TIP3   OH222492   1.346   2.758  17.043  0.3558  0.5242 -0.0531
  334TIP3    H122493   1.416   2.712  17.090 -0.3794  1.4924  2.1103
  334TIP3    H222494   1.389   2.797  16.968  1.3558 -2.1015 -0.9543
  335TIP3   OH222495   3.615   1.105  14.470 -0.2951 -0.2438 -0.2287
  335TIP3    H122496   3.566   1.048  14.529  0.2334 -0.3472  0.1193
  335TIP3    H222497   3.655   1.170  14.527  1.2043 -1.0499 -0.2959
  336TIP3   OH222498   5.399   2.473  13.894 -0.1194  0.1905 -0.2293
  336TIP3    H122499   5.353   2.394  13.864 -1.2955  0.2747  1.2274
  336TIP3    H222500   5.385   2.475  13.989 -2.8735  3.7814 -0.4940
  337TIP3   OH222501   0.351   3.820  14.673  0.4908 -0.0915 -0.0940
  337TIP3    H122502   0.432   3.802  14.721  0.1120  0.8898  0.9350
  337TIP3    H222503   0.379   3.832  14.582  1.3808 -0.6388  0.0973
  338TIP3   OH222504   2.391   4.085   2.977 -0.5358  0.0424 -0.1420
  338TIP3    H122505   2.296   4.079   2.966 -0.8379  0.7377  1.7038
  338TIP3    H222506   2.404   4.166   3.027  0.9036 -0.7656  0.8554
  339TIP3   OH222507   4.809   6.166  11.876  0.4876  0.1621 -0.2267
  339TIP3    H122508   4.891   6.176  11.829  0.3995 -0.8695 -0.6394
  339TIP3    H222509   4.749   6.129  11.812  0.1590 -0.5738  0.4870
  340TIP3   OH222510   1.865   0.610  13.475 -0.3267 -0.3888 -0.6024
  340TIP3    H122511   1.958   0.599  13.456 -0.3258 -0.8393 -0.3221
  340TIP3    H222512   1.842   0.536  13.530 -0.6911  0.1018 -0.0873
  341TIP3   OH222513   0.340   3.679   4.429  0.1067  0.0385 -0.1238
  341TIP3    H122514   0.375   3.743   4.368 -0.6158 -1.5652 -2.3537
  341TIP3    H222515   0.299   3.731   4.498  0.8311  1.9355 -1.0654
  342TIP3   OH222516   2.988   4.803  14.346 -0.3208  0.2152  0.1560
  342TIP3    H122517   3.000   4.887  14.391 -1.3276  0.5018 -0.1025
  342TIP3    H222518   2.968   4.826  14.256 -0.2463 -0.3163 -0.0007
  343TIP3   OH222519   5.598   6.657   5.788 -0.2751 -0.4342 -0.0310
  343TIP3    H122520   5.668   6.670   5.852 -0.6747 -0.3744  0.4017
  343TIP3    H222521   5.623   6.579   5.739 -0.4834 -1.1124  0.9145
  344TIP3   OH222522   6.262   0.426  11.065 -0.1612  0.1095  0.2044
  344TIP3    H122523   6.190   0.370  11.035 -0.6360  1.2887 -0.9176
  344TIP3    H222524   6.323   0.429  10.991  0.6732 -0.2116  0.8521
  345TIP3   OH222525   1.461   2.580   6.537 -0.1756  0.3325 -0.3140
  345TIP3    H122526   1.538   2.527   6.561 -0.9520 -1.0199 -0.7341
  345TIP3    H222527   1.495   2.669   6.532  1.0740 -0.0321  0.9002
  346TIP3   OH222528   5.464   1.054   5.227  0.0027  0.0588 -0.1486
  346TIP3    H122529   5.546   1.023   5.264 -0.6346 -0.3181  1.0073
  346TIP3    H222530   5.459   1.146   5.256 -0.0146  0.0592 -0.1532
  347TIP3   OH222531   5.693   3.596  15.613  0.7802 -0.2434 -0.7487
  347TIP3    H122532   5.786   3.571  15.618  0.8134  0.1370  1.0563
  347TIP3    H222533   5.675   3.639  15.697 -0.8408  0.3910 -1.3850
  348TIP3   OH222534   2.341   4.731  13.653 -0.0636  0.4502 -0.0475
  348TIP3    H122535   2.251   4.697  13.650 -0.1480  0.6931 -0.3434
  348TIP3    H222536   2.356   4.750  13.745 -0.3664  0.5377 -0.0140
  349TIP3   OH222537   3.267   3.285   4.109 -0.2283 -0.3264 -0.3718
  349TIP3    H122538   3.208   3.296   4.035  0.9480 -0.6588 -1.3970
  349TIP3    H222539   3.324   3.362   4.106  0.6977 -1.0032 -0.6593
  350TIP3   OH222540   3.986   6.023  10.627 -0.1691 -0.2159 -0.2021
  350TIP3    H122541   3.892   6.010  10.632 -0.1985  0.1959  0.6149
  350TIP3    H222542   4.009   6.004  10.536 -1.3329  1.5529 -0.9148
  351TIP3   OH222543   6.816   4.945  15.520  0.0020  0.5075  0.0514
  351TIP3    H122544   6.881   5.009  15.490  0.0600 -0.3541 -1.7908
  351TIP3    H222545   6.794   4.895  15.441 -2.8673  0.7253  0.6019
  352TIP3   OH222546   5.424   1.524   4.997  0.2372  0.6097  0.2894
  352TIP3    H122547   5.455   1.603   5.041 -2.7961  1.5869  0.9051
  352TIP3    H222548   5.347   1.553   4.949 -3.5144 -2.5661  3.7417
  353TIP3   OH222549   2.507   2.968   4.245  0.9536  0.2673  0.6938
  353TIP3    H122550   2.452   3.047   4.251  1.5994  0.7494  0.3602
  353TIP3    H222551   2.449   2.897   4.273  0.4604  0.8988  1.3322
  354TIP3   OH222552   2.524   0.354   1.642  0.2665 -0.0588  0.4537
  354TIP3    H122553   2.475   0.344   1.723 -1.8635  2.0588 -0.4516
  354TIP3    H222554   2.465   0.320   1.574  0.0422  2.2830 -0.6364
  355TIP3   OH222555   2.533   1.981   2.215 -0.0463 -0.0880 -0.0383
  355TIP3    H122556   2.542   2.068   2.254 -0.5016 -1.1825  2.7328
  355TIP3    H222557   2.504   1.926   2.287  0.3230 -2.5777 -1.6923
  356TIP3   OH222558   0.397   2.988   3.123  0.1925 -0.1866 -0.2486
  356TIP3    H122559   0.445   2.942   3.054 -1.6077 -1.3061 -0.8412
  356TIP3    H222560   0.354   2.918   3.172  0.4821  0.6772  1.2954
  357TIP3   OH222561   3.548   5.852  16.165  0.2193 -0.0558  0.4283
  357TIP3    H122562   3.470   5.877  16.116  0.5952  0.4989  0.0990
  357TIP3    H222563   3.522   5.857  16.257 -0.3864 -0.7508  0.3020
  358TIP3   OH222564   4.974   5.338  17.040 -0.0337 -0.0871 -0.2129
  358TIP3    H122565   4.890   5.310  17.076  0.7471  0.6839  2.4952
  358TIP3    H222566   4.956   5.423  17.000 -0.8171 -0.6386 -1.0584
  359TIP3   OH222567   3.981   3.650  14.019 -0.4479 -0.5374  0.4910
  359TIP3    H122568   3.990   3.625  14.111  1.2482 -1.3286  0.1532
  359TIP3    H222569   4.014   3.574  13.970 -0.3438  0.2732 -0.7337
  360TIP3   OH222570   5.003   5.788  13.587  0.2642  0.0593  0.4667
  360TIP3    H122571   4.923   5.839  13.574 -0.5836 -1.0220  1.2337
  360TIP3    H222572   4.984   5.735  13.665  1.1541 -1.3234 -0.2351
  361TIP3   OH222573   5.798   2.745  14.568 -0.0475 -0.0099  0.4130
  361TIP3    H122574   5.863   2.687  14.531  0.9809  1.7602 -0.7248
  361TIP3    H222575   5.825   2.758  14.659  2.2734  2.0201 -0.4694
  362TIP3   OH222576   1.857   3.937   2.822 -0.2034  0.0151  0.3802
  362TIP3    H122577   1.784   3.947   2.882 -1.8278 -1.0477 -1.3007
  362TIP3    H222578   1.827   3.977   2.740  0.6872 -1.2708 -0.6244
  363TIP3   OH222579   2.784   1.366   1.296  0.7465 -0.0035  0.6823
  363TIP3    H122580   2.737   1.297   1.344  2.1003 -1.6106 -0.1969
  363TIP3    H222581   2.732   1.379   1.217  0.9775 -0.7158  0.4054
  364TIP3   OH222582   6.631   4.246   5.076 -0.1266 -0.0359  0.1175
  364TIP3    H122583   6.583   4.182   5.128  2.5585 -3.0691 -0.7404
  364TIP3    H222584   6.612   4.222   4.985  0.3239  0.9143 -0.2398
  365TIP3   OH222585   1.166   2.993   5.665  0.3678  0.0835 -0.0806
  365TIP3    H122586   1.165   3.084   5.634 -0.5373  0.4269  0.8764
  365TIP3    H222587   1.205   2.997   5.752 -1.3514 -0.1299  0.7491
  366TIP3   OH222588   1.803   0.322  13.015  0.4427  0.3233 -0.0810
  366TIP3    H122589   1.721   0.295  13.056  0.5387 -1.8840 -1.2234
  366TIP3    H222590   1.776   0.389  12.952 -0.2186  0.8768  0.7600
  367TIP3   OH222591   1.844   3.430  14.537  0.3028  1.0566 -0.0438
  367TIP3    H122592   1.825   3.393  14.623  2.6184  0.2235  0.1749
  367TIP3    H222593   1.816   3.522  14.543 -1.7420  0.4362  0.7636
  368TIP3   OH222594   4.494   6.177  10.889 -0.8414 -0.1458 -0.6171
  368TIP3    H122595   4.578   6.163  10.844 -0.7113 -1.2772 -0.0640
  368TIP3    H222596   4.456   6.253  10.845  0.8605  0.9380 -0.3207
  369TIP3   OH222597   2.788   4.892  13.067  0.2802 -0.5202 -0.1218
  369TIP3    H122598   2.818   4.851  13.148  0.6579 -0.1832 -0.0898
  369TIP3    H222599   2.713   4.839  13.039  1.2449 -1.7165 -0.5138
  370TIP3   OH222600   4.665   2.340   3.555  0.2794 -0.2451  0.0715
  370TIP3    H122601   4.672   2.350   3.650  1.7087  1.6034 -0.1737
  370TIP3    H222602   4.624   2.421   3.525  1.2762 -0.1189 -1.0228
  371TIP3   OH222603   6.227   5.181   5.373 -0.0232  0.0408 -0.1907
  371TIP3    H122604   6.261   5.209   5.288  0.1463 -0.9310 -0.4512
  371TIP3    H222605   6.278   5.230   5.437  0.7397 -0.1806 -0.6259
  372TIP3   OH222606   0.358   1.401  12.590 -0.3389 -0.1332  0.1036
  372TIP3    H122607   0.263   1.393  12.598 -0.6394  1.8111 -0.9195
  372TIP3    H222608   0.388   1.314  12.563 -2.0512 -0.3322 -1.2861
  373TIP3   OH222609   1.694   1.003  14.370 -0.4188 -0.2306  0.4603
  373TIP3    H122610   1.605   0.999  14.406 -0.8585  0.2597 -0.5332
  373TIP3    H222611   1.745   1.048  14.438 -0.5688 -1.8611  1.6919
  374TIP3   OH222612   2.994   5.125  13.703 -0.1453 -0.8210 -0.7188
  374TIP3    H122613   3.033   5.207  13.674 -0.5906 -0.8979 -1.5624
  374TIP3    H222614   3.041   5.103  13.783 -0.2618  0.4271 -0.2966
  375TIP3   OH222615   2.700   5.738  13.555 -0.2553 -0.1426  0.2180
  375TIP3    H122616   2.606   5.754  13.556 -0.3197 -0.4479 -0.4004
  375TIP3    H222617   2.723   5.738  13.462  0.3789  0.0632  0.3720
  376TIP3   OH222618   1.396   2.729  14.346 -0.3803  0.2375 -0.2038
  376TIP3    H122619   1.322   2.668  14.348  0.3092 -0.6110 -0.0668
  376TIP3    H222620   1.405   2.758  14.437  0.1203 -0.4892 -0.0128
  377TIP3   OH222621   1.636   1.152   4.079  0.3250  0.0415 -0.1363
  377TIP3    H122622   1.576   1.129   4.151  0.2772  0.6020  0.0139
  377TIP3    H222623   1.709   1.092   4.088 -0.4170 -0.9570 -0.5904
  378TIP3   OH222624   5.248   0.242   3.777 -0.2946  0.2956 -0.4406
  378TIP3    H122625   5.199   0.238   3.695 -1.3029  0.5970  0.1320
  378TIP3    H222626   5.212   0.317   3.824 -1.7796 -1.5356  1.5416
  379TIP3   OH222627   3.102   3.261  14.753 -0.2536  0.1076 -0.4423
  379TIP3    H122628   3.044   3.220  14.689 -1.9067  1.9349 -0.2006
  379TIP3    H222629   3.186   3.217  14.741 -1.4144 -1.9862 -1.4564
  380TIP3   OH222630   6.204   1.761  14.919  0.2737 -0.2430  0.3284
  380TIP3    H122631   6.215   1.836  14.860 -2.2072  0.8002  1.0811
  380TIP3    H222632   6.180   1.688  14.861 -0.3442  0.3145 -0.1286
  381TIP3   OH222633   3.799   6.195  15.682 -0.6605 -0.0757  0.0484
  381TIP3    H122634   3.788   6.283  15.647  0.6981 -0.2946 -1.0673
  381TIP3    H222635   3.770   6.137  15.611  0.0770 -0.5115  0.0808
  382TIP3   OH222636   2.986   2.342   0.667  0.7534  0.4703  0.4306
  382TIP3    H122637   3.076   2.351   0.701  0.7871  1.7074  0.0843
  382TIP3    H222638   2.997   2.302   0.581  0.8208 -0.8986  1.0473
  383TIP3   OH222639   4.753   2.938   5.714 -0.4199 -0.2229 -0.0889
  383TIP3    H122640   4.768   2.989   5.793 -0.8751 -0.2685  0.0251
  383TIP3    H222641   4.772   2.847   5.740  1.0017 -0.0537 -0.4518
  384TIP3   OH222642   4.444   3.350  10.307 -0.5429  0.3799 -0.3177
  384TIP3    H122643   4.482   3.302  10.380  0.4278 -0.8555 -1.5677
  384TIP3    H222644   4.351   3.325  10.308 -0.3707 -0.2716  0.0108
  385TIP3   OH222645   5.198   3.737  14.585  0.3149 -0.4843 -0.5152
  385TIP3    H122646   5.104   3.748  14.571  0.3581  2.7813  0.7201
  385TIP3    H222647   5.237   3.743  14.497 -0.5633 -1.3384 -0.9763
  386TIP3   OH222648   0.751   4.687   1.738  0.5115 -0.1922 -0.0681
  386TIP3    H122649   0.774   4.779   1.754  0.8670 -0.4892  1.2970
  386TIP3    H222650   0.713   4.657   1.821  0.3552 -1.2626 -0.5095
  387TIP3   OH222651   6.279   6.295   1.768  0.3001 -0.3037  0.5379
  387TIP3    H122652   6.204   6.264   1.717  1.0088 -0.8377 -0.2146
  387TIP3    H222653   6.347   6.230   1.751  1.1572  0.5475  0.6286
  388TIP3   OH222654   5.187   4.264  13.353  0.1991 -0.0240 -0.4241
  388TIP3    H122655   5.247   4.338  13.357  0.7079 -0.4675  1.8403
  388TIP3    H222656   5.204   4.224  13.268  1.8283  0.9118 -0.5868
  389TIP3   OH222657   5.120   6.294   1.375  0.3244 -0.3371  0.2274
  389TIP3    H122658   5.060   6.227   1.409  0.4069 -0.0744  0.9108
  389TIP3    H222659   5.203   6.277   1.420  1.2215 -1.5874 -1.7462
  390TIP3   OH222660   2.227   6.462   3.265 -0.0799 -0.3758  0.1278
  390TIP3    H122661   2.185   6.436   3.183  1.0774 -1.0802 -0.2630
  390TIP3    H222662   2.164   6.437   3.333 -1.4504  1.0350 -0.5560
  391TIP3   OH222663   0.024   0.929   3.006  0.4162  0.0287  0.4201
  391TIP3    H122664  -0.008   0.933   2.915  0.2515  0.8653  0.5039
  391TIP3    H222665  -0.055   0.937   3.059  0.6332  0.9316  0.6277
  392TIP3   OH222666   0.678   1.339  12.409  0.5938  0.9626  0.1845
  392TIP3    H122667   0.685   1.364  12.317 -0.3307 -2.9989 -1.1858
  392TIP3    H222668   0.588   1.362  12.433 -0.4128 -1.1219 -1.1954
  393TIP3   OH222669   4.007   3.761   5.679 -0.1359 -0.1176 -0.6990
  393TIP3    H122670   4.087   3.756   5.731 -1.6048 -0.0855  1.7087
  393TIP3    H222671   4.004   3.678   5.632 -0.5145 -1.8556  2.1458
  394TIP3   OH222672   5.241   1.555  16.854  0.1331  0.0976 -0.4120
  394TIP3    H122673   5.239   1.647  16.826 -0.2633 -0.1445 -1.1995
  394TIP3    H222674   5.275   1.508  16.779  0.1431 -0.4339 -0.0791
  395TIP3   OH222675   1.671   5.706   1.998  0.0975  0.2525 -0.5708
  395TIP3    H122676   1.601   5.767   2.019 -1.8631 -1.5384 -1.5323
  395TIP3    H222677   1.700   5.731   1.911 -1.0166 -0.4086 -1.1512
  396TIP3   OH222678   4.260   3.702  16.045 -0.3019 -0.1022  0.5892
  396TIP3    H122679   4.351   3.690  16.069  0.4384  1.5731 -1.0819
  396TIP3    H222680   4.240   3.792  16.071 -0.7923  0.2624 -0.9106
  397TIP3   OH222681   6.637   0.270  12.129  0.0993  0.6223 -0.4611
  397TIP3    H122682   6.719   0.222  12.139 -0.6696 -0.8720 -0.9477
  397TIP3    H222683   6.605   0.245  12.042 -0.0263  2.5604 -1.0087
  398TIP3   OH222684   1.381   3.050   2.545  0.6824 -0.1726  0.3559
  398TIP3    H122685   1.423   2.967   2.523 -0.2646 -0.2777 -1.2497
  398TIP3    H222686   1.439   3.117   2.508  0.7347 -0.1902  0.4063
  399TIP3   OH222687   1.946   0.722   3.058  0.2905  0.1996 -0.0802
  399TIP3    H122688   1.984   0.682   3.136 -0.9067 -0.0479  0.4025
  399TIP3    H222689   1.918   0.809   3.086 -0.3043  0.0451 -0.1691
  400TIP3   OH222690   2.313   5.317   4.470 -0.3917 -0.6855 -0.0590
  400TIP3    H122691   2.366   5.393   4.493 -0.1509 -1.4556  2.1845
  400TIP3    H222692   2.341   5.294   4.382 -0.8921  2.1351 -1.0634
  401TIP3   OH222693   3.756   6.514  16.037  0.1747  0.0036 -0.5584
  401TIP3    H122694   3.809   6.452  15.987  1.1092 -0.1183  0.5503
  401TIP3    H222695   3.691   6.460  16.081 -0.1072  0.0159 -0.9541
  402TIP3   OH222696   5.351   1.195   5.484  0.1487 -0.4835  0.3847
  402TIP3    H122697   5.299   1.209   5.563 -1.5650  0.4768 -0.8630
  402TIP3    H222698   5.316   1.114   5.446 -0.1114 -0.1013 -0.2003
  403TIP3   OH222699   6.615   2.323   3.067  0.1517  0.4852 -0.3631
  403TIP3    H122700   6.521   2.311   3.054  0.2340  0.7257 -1.1867
  403TIP3    H222701   6.623   2.409   3.108 -0.0687 -0.0740  0.9036
  404TIP3   OH222702   3.834   3.884   3.560  0.0939  0.7661  1.0975
  404TIP3    H122703   3.831   3.814   3.496  0.1585  2.1994 -0.5443
  404TIP3    H222704   3.746   3.887   3.597 -0.4830  1.0469 -0.2311
  405TIP3   OH222705   0.903   3.702   2.427 -0.0562 -0.2113  0.1993
  405TIP3    H122706   0.946   3.623   2.394  2.3488  0.6725  0.9741
  405TIP3    H222707   0.814   3.674   2.449  1.0535 -3.0221  1.5760
  406TIP3   OH222708   5.101   3.708  16.729 -0.4317 -0.1574  0.0777
  406TIP3    H122709   5.084   3.799  16.750 -0.0861  0.1487 -0.9163
  406TIP3    H222710   5.101   3.705  16.633 -1.8376 -1.4632  0.0890
  407TIP3   OH222711   2.574   1.615  15.306  0.1674  0.5256  0.0962
  407TIP3    H122712   2.512   1.559  15.259  0.8018 -0.8440  0.8572
  407TIP3    H222713   2.518   1.676  15.355 -0.5739 -0.2692  0.2690
  408TIP3   OH222714   6.250   0.142   2.336 -0.0570 -0.3949 -0.3482
  408TIP3    H122715   6.194   0.146   2.259 -1.4904 -1.5978  0.5529
  408TIP3    H222716   6.192   0.108   2.405 -0.0726  4.2595  2.3970
  409TIP3   OH222717   5.720   6.145  11.559 -0.0998  0.1593  0.9008
  409TIP3    H122718   5.675   6.162  11.476  1.5615 -0.9266 -0.2918
  409TIP3    H222719   5.722   6.049  11.565 -0.2334  0.2253  2.2249
  410TIP3   OH222720   6.165   3.314  15.780  0.2861  0.0503  0.2049
  410TIP3    H122721   6.216   3.379  15.733 -0.8983  0.1725 -0.9858
  410TIP3    H222722   6.175   3.337  15.873  1.4071  0.7541 -0.0762
  411TIP3   OH222723   2.220   3.961  15.498  0.2386  0.5516 -0.0040
  411TIP3    H122724   2.205   3.941  15.405  0.7840  0.1032 -0.0012
  411TIP3    H222725   2.143   4.011  15.524 -0.7939 -0.8553 -0.2251
  412TIP3   OH222726   1.508   2.295   0.993 -0.2369 -0.6534 -0.6208
  412TIP3    H122727   1.516   2.384   0.957  2.0393 -0.3623  0.4498
  412TIP3    H222728   1.560   2.241   0.934  1.6534 -0.5525  0.8701
  413TIP3   OH222729   5.573   2.442   0.536  0.2763  0.5517 -0.5956
  413TIP3    H122730   5.503   2.395   0.582  0.9347  0.1635  0.0333
  413TIP3    H222731   5.653   2.399   0.564  0.7338  0.5974 -1.7836
  414TIP3   OH222732   0.715   4.672  11.842  0.6751 -0.5147  0.1983
  414TIP3    H122733   0.681   4.583  11.846  0.3652 -0.4284 -0.3572
  414TIP3    H222734   0.644   4.726  11.878  1.7872 -0.6983  2.8546
  415TIP3   OH222735   5.253   3.362  12.098  0.0453  0.4481 -0.3282
  415TIP3    H122736   5.239   3.387  12.007  3.6092  1.5341 -0.7508
  415TIP3    H222737   5.238   3.443  12.148  0.5695  0.5204 -0.2830
  416TIP3   OH222738   2.167   3.592  14.862 -0.4968 -0.0900  0.2272
  416TIP3    H122739   2.208   3.605  14.777 -2.3488  0.7743 -0.5903
  416TIP3    H222740   2.124   3.507  14.855  0.6270 -0.7332  0.8785
  417TIP3   OH222741   0.348   5.960  16.822  0.0692  0.3597 -0.5399
  417TIP3    H122742   0.382   6.010  16.897 -3.0611  0.0169  1.3092
  417TIP3    H222743   0.333   5.872  16.856  0.8337 -0.5175 -2.3345
  418TIP3   OH222744   3.153   0.154  11.821  0.0946  0.2159 -0.0279
  418TIP3    H122745   3.174   0.202  11.741  0.0403  1.0970  0.4658
  418TIP3    H222746   3.074   0.104  11.799  1.6763 -1.8339 -1.3917
  419TIP3   OH222747   5.547   1.009   1.441  0.5488  0.7046 -0.1315
  419TIP3    H122748   5.507   0.973   1.520  2.9191  1.1495  1.3396
  419TIP3    H222749   5.608   1.076   1.472  0.9741  1.4676 -2.3970
  420TIP3   OH222750   4.713   4.363   5.829 -0.1941  0.0849 -0.2589
  420TIP3    H122751   4.674   4.280   5.857 -0.7948  0.9301  1.5159
  420TIP3    H222752   4.659   4.430   5.869  0.8174  1.3495 -0.9431
  421TIP3   OH222753   6.309   6.701   4.365  0.8854 -0.0881  0.3322
  421TIP3    H122754   6.301   6.793   4.387  0.9271 -0.1598  0.6499
  421TIP3    H222755   6.227   6.662   4.396 -0.9998  0.5106 -3.3446
  422TIP3   OH222756   1.567   5.138   3.375 -0.4214  0.5205  0.0170
  422TIP3    H122757   1.579   5.043   3.379 -1.8939  0.2865 -0.4046
  422TIP3    H222758   1.484   5.149   3.329 -0.0702  2.0363 -0.2964
  423TIP3   OH222759   1.479   0.149  16.599  0.3163 -0.7748 -0.3089
  423TIP3    H122760   1.532   0.218  16.638  1.2585 -0.5310 -1.9509
  423TIP3    H222761   1.540   0.077  16.584 -0.7011 -2.1611  1.6439
  424TIP3   OH222762   1.183   5.701  10.560  0.4260 -0.0919 -0.7787
  424TIP3    H122763   1.103   5.751  10.577  0.3247 -0.8724  1.2305
  424TIP3    H222764   1.252   5.750  10.605  1.2990  0.9858 -3.1077
  425TIP3   OH222765   6.028   3.968  11.491  0.3425 -0.0336 -0.6218
  425TIP3    H122766   5.971   4.040  11.521  0.0763 -0.3145 -0.4454
  425TIP3    H222767   6.116   3.997  11.514  0.1610 -0.1611  0.3064
  426TIP3   OH222768   0.223   6.245  14.351 -0.4388 -0.4249 -0.4614
  426TIP3    H122769   0.300   6.199  14.383 -1.6346 -3.1779 -1.2691
  426TIP3    H222770   0.171   6.263  14.429  1.5130  2.7391  0.2884
  427TIP3   OH222771   3.644   1.323   4.046  0.0890 -0.0193  0.4824
  427TIP3    H122772   3.633   1.417   4.056 -3.5113 -0.0468 -1.5149
  427TIP3    H222773   3.687   1.312   3.961  1.6351 -0.2031  1.2654
  428TIP3   OH222774   2.846   5.746  14.104 -0.5966 -0.0760 -0.4621
  428TIP3    H122775   2.775   5.764  14.166  1.0518 -2.5948  2.4491
  428TIP3    H222776   2.850   5.650  14.099  1.5612  0.0055 -1.8045
  429TIP3   OH222777   0.401   5.931   2.735 -0.8778 -0.1650  0.6188
  429TIP3    H122778   0.410   5.984   2.655 -1.2375 -1.3452 -0.2190
  429TIP3    H222779   0.315   5.891   2.727 -0.4270 -1.2294  1.0288
  430TIP3   OH222780   3.795   5.779   2.364  0.0402  0.2448  0.2103
  430TIP3    H122781   3.744   5.756   2.286 -0.6809 -0.2242  0.8028
  430TIP3    H222782   3.733   5.826   2.420  0.7472  1.1815  0.2088
  431TIP3   OH222783   1.679   6.269  14.347  0.8950  0.1906 -0.2636
  431TIP3    H122784   1.691   6.350  14.298 -0.3970 -0.4490 -1.7214
  431TIP3    H222785   1.602   6.227  14.307  1.3407 -1.6128  0.6364
  432TIP3   OH222786   3.555   4.923  13.901  0.7262 -0.1437  0.0918
  432TIP3    H122787   3.496   4.969  13.843  1.3349  1.1087  0.4372
  432TIP3    H222788   3.640   4.964  13.888  1.2561 -1.0413  0.5530
  433TIP3   OH222789   1.470   2.580  13.283  0.0271  0.0435 -0.0791
  433TIP3    H122790   1.520   2.662  13.284 -0.8240  0.5814 -0.7576
  433TIP3    H222791   1.382   2.606  13.258 -0.9981 -0.6907  2.4913
  434TIP3   OH222792   1.069   4.295   4.357 -0.3437 -0.0410  0.2455
  434TIP3    H122793   1.059   4.304   4.262  2.3731  0.6474 -0.0715
  434TIP3    H222794   1.149   4.345   4.377  0.2005 -1.7041  2.5987
  435TIP3   OH222795   5.837   5.806  14.330 -0.2082  0.1807 -0.1168
  435TIP3    H122796   5.794   5.891  14.330 -1.0899 -0.2484  0.3628
  435TIP3    H222797   5.769   5.744  14.303  0.9863 -0.1274 -2.8042
  436TIP3   OH222798   4.001   3.898  17.176  0.2127  0.1383 -0.6953
  436TIP3    H122799   4.042   3.974  17.136  1.5059 -0.3992 -0.4313
  436TIP3    H222800   3.908   3.922  17.183  0.5742  1.6361 -0.7140
  437TIP3   OH222801   4.723   6.566   5.297  0.9072  0.4939 -0.1538
  437TIP3    H122802   4.646   6.607   5.258  1.7983  3.4751  0.9336
  437TIP3    H222803   4.696   6.545   5.387  1.3849  1.8304  0.3281
  438TIP3   OH222804   6.503   6.039   0.246  0.1746 -0.2556  0.1802
  438TIP3    H122805   6.540   6.125   0.229 -1.4342  0.7456  1.4654
  438TIP3    H222806   6.408   6.051   0.240 -0.1324 -1.6759  1.3779
  439TIP3   OH222807   6.006   3.106  13.286  0.0345 -0.4429  0.2087
  439TIP3    H122808   5.954   3.180  13.255  0.0357 -0.1222  0.9548
  439TIP3    H222809   6.088   3.113  13.238 -0.1319 -0.2245 -0.0518
  440TIP3   OH222810   2.858   6.373  12.259  0.4591 -0.0989 -0.1475
  440TIP3    H122811   2.950   6.385  12.280  0.2332 -0.1224  0.9069
  440TIP3    H222812   2.835   6.289  12.298 -0.5492  0.9246  1.5870
  441TIP3   OH222813   2.905   1.668   1.789  0.1860 -0.1450 -0.0658
  441TIP3    H122814   2.955   1.725   1.731 -0.6743  1.4226  0.6866
  441TIP3    H222815   2.936   1.580   1.767  2.3971  0.6559 -0.4567
  442TIP3   OH222816   5.287   5.435   4.539 -0.1080  0.1101  0.1626
  442TIP3    H122817   5.234   5.449   4.461  1.0065  1.7597 -0.3619
  442TIP3    H222818   5.272   5.343   4.563 -0.5891 -0.4020 -1.9057
  443TIP3   OH222819   4.334   2.313   1.606 -0.0515 -0.0525 -0.1045
  443TIP3    H122820   4.422   2.323   1.642  0.5304 -0.0582 -1.4638
  443TIP3    H222821   4.331   2.222   1.574  0.4614  0.6980 -2.5162
  444TIP3   OH222822   4.146   1.782  12.830  0.1240 -0.2311 -0.2813
  444TIP3    H122823   4.178   1.871  12.843  0.3396 -0.1382 -1.3804
  444TIP3    H222824   4.149   1.743  12.918  2.1264  0.1553 -0.1234
  445TIP3   OH222825   0.443   3.643   1.877  0.5256 -0.8269 -0.2874
  445TIP3    H122826   0.505   3.580   1.841 -1.1864 -0.9799 -3.2652
  445TIP3    H222827   0.446   3.717   1.817 -1.1512 -0.2597  0.2697
  446TIP3   OH222828   1.507   2.013  14.534 -0.4628 -0.0597  0.1363
  446TIP3    H122829   1.464   2.026  14.450 -1.8472  1.2739  0.9913
  446TIP3    H222830   1.550   2.097  14.552  0.3038 -0.5198  0.5063
  447TIP3   OH222831   1.258   0.848  15.407 -0.1136  0.2149  0.2426
  447TIP3    H122832   1.270   0.765  15.452 -0.7918 -0.5381 -0.9362
  447TIP3    H222833   1.274   0.914  15.475  1.0712 -0.8457  1.0340
  448TIP3   OH222834   0.782   4.133  14.601  0.1540 -0.2744  0.2395
  448TIP3    H122835   0.747   4.077  14.532 -0.0758 -0.0625  0.1815
  448TIP3    H222836   0.719   4.205  14.607  0.4130 -0.0571  0.3566
  449TIP3   OH222837   6.754   4.761   1.831 -0.0571  0.4787 -0.2852
  449TIP3    H122838   6.679   4.758   1.771 -0.1954  0.7018 -0.1230
  449TIP3    H222839   6.806   4.835   1.800  0.2736  0.1188 -0.6055
  450TIP3   OH222840   0.572   3.589   3.442 -0.2821  0.2638 -0.2055
  450TIP3    H122841   0.569   3.657   3.375 -0.8007 -0.2625 -0.7271
  450TIP3    H222842   0.505   3.613   3.506 -1.3303 -0.3972 -1.0287
  451TIP3   OH222843   3.614   4.220   5.217  0.4272 -0.1021 -0.3983
  451TIP3    H122844   3.625   4.125   5.221 -0.7431 -0.1916  1.6017
  451TIP3    H222845   3.576   4.235   5.130  3.8106 -1.0185 -2.2302
  452TIP3   OH222846   1.547   4.608   0.198  0.6545 -0.4867 -0.2125
  452TIP3    H122847   1.536   4.535   0.137 -1.0423  0.2484 -0.8627
  452TIP3    H222848   1.465   4.657   0.191  1.6237  1.3203  0.4099
  453TIP3   OH222849   2.512   1.163  13.709 -0.5099 -0.1480  0.2034
  453TIP3    H122850   2.567   1.240  13.722 -0.1650 -0.5039  0.8841
  453TIP3    H222851   2.555   1.093  13.758  0.4524 -1.3951 -2.2639
  454TIP3   OH222852   6.234   0.849   4.142 -0.1250 -0.6812  0.6429
  454TIP3    H122853   6.236   0.820   4.233 -1.2127 -0.3343  0.7944
  454TIP3    H222854   6.164   0.915   4.139  0.7386  0.2278 -0.1857
  455TIP3   OH222855   1.005   1.753   2.214 -0.1978 -0.1217 -0.1426
  455TIP3    H122856   1.012   1.813   2.288 -0.0476 -0.7275  0.3469
  455TIP3    H222857   1.021   1.667   2.252  0.3102 -0.3978 -0.9646
  456TIP3   OH222858   6.353   4.775  16.097  0.3374  0.0676 -0.1470
  456TIP3    H122859   6.378   4.802  16.186  2.2257  0.4172 -0.7609
  456TIP3    H222860   6.368   4.853  16.043 -1.2003 -0.0105 -0.7395
  457TIP3   OH222861   3.649   0.130  11.206  0.0223 -0.0762  0.6834
  457TIP3    H122862   3.698   0.151  11.127  0.0586 -0.7818  0.5135
  457TIP3    H222863   3.566   0.177  11.196 -1.0921 -2.2574 -1.0533
  458TIP3   OH222864   5.490   1.224  17.099  0.3174 -0.0947 -0.0390
  458TIP3    H122865   5.521   1.161  17.164 -0.6580 -2.5247 -1.7827
  458TIP3    H222866   5.405   1.190  17.072 -0.2159  1.9768 -1.1201
  459TIP3   OH222867   4.957   5.366  14.023  0.1939 -0.2709 -0.2573
  459TIP3    H122868   4.937   5.273  14.034 -0.3952 -0.3416 -1.6786
  459TIP3    H222869   5.046   5.368  13.989  0.1437 -0.3246 -0.3916
  460TIP3   OH222870   5.727   0.606   2.883  0.6949  0.4205 -0.1825
  460TIP3    H122871   5.637   0.573   2.876  1.1284 -0.7352 -0.5383
  460TIP3    H222872   5.727   0.660   2.962 -0.0675 -0.4256  0.4153
  461TIP3   OH222873   5.216   6.586   3.010  0.0365  0.3000 -0.6941
  461TIP3    H122874   5.160   6.628   3.076  2.7975  2.8057  0.2763
  461TIP3    H222875   5.262   6.518   3.058  0.3746  0.5991 -0.5893
  462TIP3   OH222876   6.719   1.422   1.608 -0.3260  0.1188  0.4181
  462TIP3    H122877   6.766   1.341   1.589  0.2893  0.1891  1.5629
  462TIP3    H222878   6.649   1.395   1.668 -0.6103  0.3166  0.1812
  463TIP3   OH222879   5.127   2.102  12.770  0.2323 -0.1024 -0.8027
  463TIP3    H122880   5.091   2.047  12.840 -0.2047  1.3958  0.1962
  463TIP3    H222881   5.115   2.192  12.802  0.2654  0.6095 -2.6935
  464TIP3   OH222882   1.870   5.403  16.726  0.3524  0.2044  0.1543
  464TIP3    H122883   1.924   5.388  16.804  2.0138  1.9786 -0.5826
  464TIP3    H222884   1.866   5.318  16.683 -0.8407 -0.8998  2.2476
  465TIP3   OH222885   5.489   3.566  16.476 -0.4004 -0.3557 -0.2210
  465TIP3    H122886   5.534   3.555  16.560 -1.0149 -2.3692 -0.0974
  465TIP3    H222887   5.559   3.588  16.414  0.2125  0.1079  0.6111
  466TIP3   OH222888   3.151   4.194   5.762 -0.1719  0.3067  0.3209
  466TIP3    H122889   3.215   4.130   5.730  0.0777  0.9855 -0.5915
  466TIP3    H222890   3.090   4.143   5.815 -0.4452 -0.8399 -1.0329
  467TIP3   OH222891   6.824   1.812  14.636  0.0497 -0.1134  0.5497
  467TIP3    H122892   6.849   1.733  14.587 -1.2803  0.1808 -0.6831
  467TIP3    H222893   6.824   1.882  14.570 -0.9727  0.4611  1.1410
  468TIP3   OH222894   5.002   1.874  13.775 -0.2970  0.6119  0.1646
  468TIP3    H122895   5.060   1.801  13.752  0.7369  1.7086 -0.8693
  468TIP3    H222896   4.914   1.844  13.753  0.0083 -0.6308  0.5852
  469TIP3   OH222897   4.409   6.253   2.274  0.4621 -0.5928  0.0308
  469TIP3    H122898   4.404   6.235   2.180  0.1249  1.7107 -0.4549
  469TIP3    H222899   4.485   6.309   2.283 -0.2696  0.2939  0.9198
  470TIP3   OH222900   5.241   4.075  15.371  0.0444  0.2253  0.2567
  470TIP3    H122901   5.186   4.030  15.434 -0.0023 -1.0922 -0.6851
  470TIP3    H222902   5.258   4.010  15.303  0.2923  1.5211 -0.9746
  471TIP3   OH222903   3.680   0.190  16.782 -0.6214  0.2484  0.2466
  471TIP3    H122904   3.729   0.220  16.705  0.2208 -0.9841  0.2801
  471TIP3    H222905   3.602   0.149  16.746  0.5589 -1.8287 -0.1075
  472TIP3   OH222906   3.049   3.123   4.567  0.1157  0.0255  0.0801
  472TIP3    H122907   3.119   3.128   4.502  1.2877 -1.5858  1.1373
  472TIP3    H222908   3.068   3.043   4.616 -1.5806  0.4030  1.4374
  473TIP3   OH222909   4.539   0.443  12.657 -0.0860  0.0002 -0.0416
  473TIP3    H122910   4.460   0.497  12.659 -0.0935  0.1653 -2.1211
  473TIP3    H222911   4.580   0.465  12.573  2.0908 -0.2126  0.9116
  474TIP3   OH222912   4.712   3.968   5.672 -0.1421  0.6152 -0.1862
  474TIP3    H122913   4.627   4.007   5.651 -0.7335  0.0830  1.1425
  474TIP3    H222914   4.693   3.877   5.691  1.0904 -0.1296 -2.2269
  475TIP3   OH222915   0.809   4.135  12.104  0.5309 -0.0234  0.3667
  475TIP3    H122916   0.762   4.195  12.161 -1.9868 -2.3347  0.9282
  475TIP3    H222917   0.767   4.147  12.018 -0.1756 -1.1013  0.5441
  476TIP3   OH222918   5.244   3.666   2.154 -0.1801 -0.6666 -0.0152
  476TIP3    H122919   5.311   3.732   2.169 -0.8169  0.3043 -1.2730
  476TIP3    H222920   5.164   3.704   2.190 -0.8646 -0.0591 -2.0542
  477TIP3   OH222921   1.236   2.034   0.423 -0.1738  0.2137 -0.8208
  477TIP3    H122922   1.216   2.008   0.513 -1.1332  0.9880 -0.7933
  477TIP3    H222923   1.180   1.979   0.369 -0.3005  0.4229 -0.8998
  478TIP3   OH222924   3.569   5.531  12.871 -0.1118  0.7244 -0.1718
  478TIP3    H122925   3.554   5.608  12.816  1.4016  0.9263 -0.3364
  478TIP3    H222926   3.606   5.466  12.812  1.1404  0.8029  0.4907
  479TIP3   OH222927   1.115   1.651  13.021 -0.5122  0.2186 -0.4859
  479TIP3    H122928   1.085   1.566  12.989  0.9533 -1.1889  1.6250
  479TIP3    H222929   1.203   1.660  12.986 -1.2184  1.6880 -2.0221
  480TIP3   OH222930   2.764   0.863  11.397 -0.7142 -0.4378  0.2330
  480TIP3    H122931   2.703   0.934  11.416  0.1722 -0.1268  2.2375
  480TIP3    H222932   2.727   0.788  11.443 -0.1313 -0.5098  0.5906
  481TIP3   OH222933   4.006   4.411   2.967 -0.5910 -0.2290  0.6702
  481TIP3    H122934   3.916   4.436   2.949 -0.9305 -1.9340 -0.1605
  481TIP3    H222935   4.010   4.402   3.063 -1.3779 -0.4282  0.6847
  482TIP3   OH222936   4.382   4.885   3.619  0.2951  0.0382  0.5164
  482TIP3    H122937   4.420   4.890   3.706 -0.7154  1.8343  0.9130
  482TIP3    H222938   4.403   4.970   3.579  1.0687 -0.8925 -1.1420
  483TIP3   OH222939   1.987   5.064   1.880 -0.0003 -0.2960 -0.0614
  483TIP3    H122940   1.954   5.122   1.948 -1.7716 -0.8822 -0.3861
  483TIP3    H222941   1.909   5.032   1.834  1.0947 -0.5629 -1.8479
  484TIP3   OH222942   3.984   2.405  10.512  0.2259  0.2522  0.1016
  484TIP3    H122943   3.919   2.358  10.564  0.6446 -1.8467 -1.1774
  484TIP3    H222944   3.961   2.386  10.422  1.3866  1.2127 -0.4259
  485TIP3   OH222945   5.448   0.580  13.932  0.1947 -0.3781 -0.2143
  485TIP3    H122946   5.482   0.647  13.874 -0.5578  0.2975  0.1061
  485TIP3    H222947   5.424   0.508  13.874 -1.2128  0.5614 -0.8331
  486TIP3   OH222948   1.344   5.380   1.644 -0.1235 -0.5574 -0.4746
  486TIP3    H122949   1.389   5.404   1.562  1.5042  1.3572  0.8832
  486TIP3    H222950   1.343   5.461   1.695 -3.6224 -0.9721  0.3488
  487TIP3   OH222951   4.355   0.507   0.870 -0.2763 -0.9916  0.3105
  487TIP3    H122952   4.430   0.545   0.916 -0.3487  1.5140 -1.4299
  487TIP3    H222953   4.393   0.451   0.803 -0.0805 -1.7766  1.0555
  488TIP3   OH222954   0.096   0.787   3.901  0.0145  0.5157  0.2710
  488TIP3    H122955   0.014   0.806   3.855 -0.1792 -1.5960 -0.3704
  488TIP3    H222956   0.165   0.812   3.840 -0.2102  0.0215 -0.1948
  489TIP3   OH222957   4.912   6.133   3.089  0.5902  0.2275  0.0512
  489TIP3    H122958   4.836   6.170   3.135  0.0216  0.3203 -0.9356
  489TIP3    H222959   4.884   6.044   3.066  1.4401 -0.3583  1.2095
  490TIP3   OH222960   1.142   5.769   0.765  0.2893 -0.3949  0.2598
  490TIP3    H122961   1.236   5.788   0.769  0.2297  0.1396 -0.6179
  490TIP3    H222962   1.133   5.708   0.692  0.0926 -1.4566  1.1376
  491TIP3   OH222963   2.920   0.699  13.857 -0.4868 -0.8072  0.8643
  491TIP3    H122964   3.008   0.725  13.884 -0.8505  0.0332  1.2885
  491TIP3    H222965   2.934   0.630  13.792  0.5421  0.4184 -0.2843
  492TIP3   OH222966   2.332   3.457  15.983 -0.0560 -0.1661 -0.0147
  492TIP3    H122967   2.255   3.445  16.038 -1.0864  1.1268 -1.0890
  492TIP3    H222968   2.320   3.543  15.943  1.5258 -0.3047 -0.8905
  493TIP3   OH222969   6.666   1.693  14.347  0.0744 -0.1285  0.3607
  493TIP3    H122970   6.640   1.621  14.405 -1.7551 -0.2157 -0.5083
  493TIP3    H222971   6.762   1.694  14.352  0.4034 -4.0381 -1.1452
  494TIP3   OH222972   0.588   6.771  16.770 -0.0658  0.2350 -0.2440
  494TIP3    H122973   0.676   6.734  16.772  0.0863  0.4854  2.5848
  494TIP3    H222974   0.532   6.699  16.745  0.8580 -0.1065 -1.4259
  495TIP3   OH222975   6.140   1.746   2.317 -0.6575 -0.2423  0.0750
  495TIP3    H122976   6.080   1.673   2.337 -0.8285 -0.1660 -0.1604
  495TIP3    H222977   6.089   1.804   2.261 -0.4577 -0.0316  0.1116
  496TIP3   OH222978   4.322   2.534   4.035 -0.5595 -0.0038 -0.1804
  496TIP3    H122979   4.255   2.484   4.081  0.0788  0.6517  1.5231
  496TIP3    H222980   4.366   2.585   4.103 -1.0714  2.8007 -1.7638
  497TIP3   OH222981   0.231   2.667  17.159 -0.0377 -0.2306  0.2343
  497TIP3    H122982   0.322   2.692  17.174 -0.1659 -0.0568  0.7764
  497TIP3    H222983   0.185   2.696  17.239 -0.5823 -0.2150 -0.0782
  498TIP3   OH222984   3.447   2.022  15.553  0.0966 -0.2792  0.3861
  498TIP3    H122985   3.512   2.011  15.483 -0.0687  0.6596  0.0788
  498TIP3    H222986   3.368   1.981  15.519 -0.3841  1.3462 -0.5708
  499TIP3   OH222987   4.444   0.274  11.404  0.0547  0.3850 -0.1632
  499TIP3    H122988   4.506   0.207  11.432  1.9219  1.0776 -2.3879
  499TIP3    H222989   4.465   0.290  11.313 -0.9968  3.3024  0.0093
  500TIP3   OH222990   0.356   1.672  15.419  0.0176  0.2895 -0.3270
  500TIP3    H122991   0.434   1.709  15.462  1.3615 -0.5350 -1.9726
  500TIP3    H222992   0.287   1.735  15.439  1.3103  1.5521  0.3955
  501TIP3   OH222993   1.366   6.419  11.743 -0.2280 -0.2942 -0.3126
  501TIP3    H122994   1.298   6.487  11.740  1.6993  1.8263  0.6735
  501TIP3    H222995   1.444   6.465  11.775  1.6637 -2.6272 -1.2514
  502TIP3   OH222996   5.650   5.764  14.009 -0.4881  0.1576 -0.1903
  502TIP3    H122997   5.668   5.857  14.022 -1.7810  0.3470  0.3769
  502TIP3    H222998   5.657   5.725  14.096  1.2202 -0.5419 -0.5780
  503TIP3   OH222999   3.318   2.352   1.172 -0.0343  0.1641  0.8072
  503TIP3    H123000   3.395   2.397   1.206 -0.1496  1.7054 -0.8762
  503TIP3    H223001   3.338   2.259   1.183  2.2986  0.5119 -0.0616
  504TIP3   OH223002   3.984   1.564  15.925  0.2177  0.4063 -0.2186
  504TIP3    H123003   3.917   1.518  15.975 -1.7481  3.6544  0.4077
  504TIP3    H223004   3.953   1.560  15.834  0.1743  0.2826 -0.1975
  505TIP3   OH223005   6.191   2.318   5.465  0.4767  0.3156 -0.3224
  505TIP3    H123006   6.286   2.322   5.473  0.4715 -1.2242  1.0916
  505TIP3    H223007   6.175   2.263   5.388  0.6517  2.6326 -2.1241
  506TIP3   OH223008   5.961   3.718   5.785  0.2713 -0.2318 -0.1546
  506TIP3    H123009   6.029   3.777   5.753  0.0484  0.7704  1.1114
  506TIP3    H223010   5.889   3.730   5.723  1.1040 -1.0906 -1.3398
  507TIP3   OH223011   2.688   4.914   3.714 -0.1505 -0.5331 -0.1306
  507TIP3    H123012   2.686   4.872   3.799 -0.9601  0.8272  0.5681
  507TIP3    H223013   2.772   4.960   3.711 -0.4369  0.0351  0.2751
  508TIP3   OH223014   1.941   5.910   3.884  0.8792  0.0275  0.3526
  508TIP3    H123015   1.872   5.886   3.946  1.4149 -0.0843  0.9132
  508TIP3    H223016   1.895   5.922   3.801 -0.4203  3.4264  1.3998
  509TIP3   OH223017   0.260   6.750   3.534  0.3268 -0.4539 -0.1329
  509TIP3    H123018   0.354   6.738   3.522  0.2025 -1.8561  0.1460
  509TIP3    H223019   0.223   6.662   3.532 -1.2083  0.1609 -1.9066
  510TIP3   OH223020   3.460   4.175  14.356 -0.3605  0.2506 -0.2029
  510TIP3    H123021   3.491   4.138  14.438 -0.7698 -0.2127 -0.2514
  510TIP3    H223022   3.535   4.167  14.297  0.0220  0.8318  0.1930
  511TIP3   OH223023   1.927   1.358  12.247  0.3360  0.2766  0.4437
  511TIP3    H123024   1.999   1.297  12.227 -0.1744 -0.4835  0.8710
  511TIP3    H223025   1.875   1.360  12.167 -0.0891 -0.4874  0.6921
  512TIP3   OH223026   5.193   1.443  12.317  0.0983 -0.9243 -0.3805
  512TIP3    H123027   5.217   1.463  12.407 -0.0869 -1.5796 -0.1773
  512TIP3    H223028   5.097   1.442  12.318  0.0947 -0.8434 -0.6075
  513TIP3   OH223029   2.024   1.622   0.839  0.0190  0.3440 -0.3939
  513TIP3    H123030   2.000   1.653   0.926 -0.1846  0.9768 -0.6617
  513TIP3    H223031   2.099   1.676   0.814 -1.0896  1.5373 -1.3603
  514TIP3   OH223032   3.302   5.945  12.356 -0.6286  0.8373 -0.1279
  514TIP3    H123033   3.289   5.862  12.310 -0.3821  1.0779 -0.6408
  514TIP3    H223034   3.382   5.982  12.318 -0.1387  0.8110  0.8530
  515TIP3   OH223035   4.882   0.908  14.139  0.2323  0.2978 -0.0096
  515TIP3    H123036   4.945   0.980  14.143  1.8468 -1.1006  0.8268
  515TIP3    H223037   4.822   0.925  14.211 -0.3439  1.6050 -0.7619
  516TIP3   OH223038   6.017   4.004   3.879 -0.1233 -0.0978  0.0862
  516TIP3    H123039   5.944   4.030   3.824 -0.5550 -0.0475  0.6768
  516TIP3    H223040   5.976   3.963   3.955  0.4818 -0.6683  0.1115
  517TIP3   OH223041   6.216   3.907   5.036  1.0610 -0.4754  0.4690
  517TIP3    H123042   6.164   3.844   5.086  0.7307 -2.3197 -1.9822
  517TIP3    H223043   6.300   3.863   5.023  1.2834  0.1286 -0.2111
  518TIP3   OH223044   5.737   1.578   3.260  0.5233 -0.0873  0.0106
  518TIP3    H123045   5.822   1.608   3.228  0.9465 -1.8044 -0.5578
  518TIP3    H223046   5.697   1.535   3.185 -0.7697  0.4969  0.3416
  519TIP3   OH223047   4.579   3.456   3.601  0.7237 -0.2746  0.2057
  519TIP3    H123048   4.543   3.369   3.615  0.6556 -0.4359 -0.8504
  519TIP3    H223049   4.617   3.452   3.513 -3.0740  1.9631 -1.7973
  520TIP3   OH223050   1.990   1.459   4.175 -0.6438  0.4851 -0.0891
  520TIP3    H123051   2.040   1.456   4.093 -2.7678 -2.5848 -1.4820
  520TIP3    H223052   1.987   1.552   4.197  3.6545  1.0710 -1.0257
  521TIP3   OH223053   6.740   6.736   2.604  0.3658 -0.4081  0.5148
  521TIP3    H123054   6.754   6.795   2.530 -0.2162  0.6229  1.2070
  521TIP3    H223055   6.760   6.789   2.681 -3.3857  0.0217  1.3779
  522TIP3   OH223056   1.909   6.154  15.318 -0.4479  0.3273 -0.4764
  522TIP3    H123057   1.922   6.214  15.391  0.8161  1.9865 -1.9594
  522TIP3    H223058   1.983   6.093  15.323 -0.6706  0.0881 -0.0683
  523TIP3   OH223059   3.814   2.694   3.205  0.6349 -0.2356 -0.3559
  523TIP3    H123060   3.890   2.636   3.211  1.5043  0.9255  0.1964
  523TIP3    H223061   3.804   2.730   3.293  0.6293  1.0846 -0.8739
  524TIP3   OH223062   1.343   5.399   2.409  0.1095 -0.2044 -0.2386
  524TIP3    H123063   1.256   5.428   2.437  0.5169  0.2574  0.5864
  524TIP3    H223064   1.342   5.411   2.314 -0.2335  1.1882 -0.0830
  525TIP3   OH223065   0.373   1.382   2.733  0.4739 -0.1505 -1.0700
  525TIP3    H123066   0.312   1.309   2.721 -0.8731  0.9076 -0.9960
  525TIP3    H223067   0.382   1.390   2.828  0.9337 -0.4752 -1.0882
  526TIP3   OH223068   1.517   0.255  12.636  0.0357 -0.7208 -0.0702
  526TIP3    H123069   1.598   0.294  12.603  0.3968 -0.2910  1.2686
  526TIP3    H223070   1.541   0.166  12.660  0.2135 -0.4931  0.6329
  527TIP3   OH223071   2.184   4.482  15.782  0.2195  0.4370  0.4552
  527TIP3    H123072   2.276   4.505  15.768  0.2925  0.1912  0.5323
  527TIP3    H223073   2.186   4.391  15.813  0.0479  0.8477  1.7661
  528TIP3   OH223074   1.066   1.633   3.535  0.3561 -0.3145  0.3365
  528TIP3    H123075   1.161   1.627   3.548  0.1056 -0.1669  2.9386
  528TIP3    H223076   1.034   1.671   3.618 -2.0164 -0.7558 -0.3155
  529TIP3   OH223077   0.618   0.850  16.836  0.0882  0.6083 -0.1433
  529TIP3    H123078   0.524   0.837  16.826  0.2260  0.8634 -2.2445
  529TIP3    H223079   0.633   0.850  16.930 -1.3369 -4.1102  0.3212
  530TIP3   OH223080   4.218   6.262   5.107 -0.3212 -0.2241  0.1421
  530TIP3    H123081   4.288   6.222   5.158  1.4843  1.1910 -1.1072
  530TIP3    H223082   4.253   6.268   5.018 -1.5964  1.4873 -0.3033
  531TIP3   OH223083   1.154   4.715  15.905  0.2536 -0.2349  1.0763
  531TIP3    H123084   1.150   4.809  15.920 -2.3598 -0.3020  1.2449
  531TIP3    H223085   1.247   4.697  15.892  0.7380  2.5046  0.0447
  532TIP3   OH223086   3.871   5.238   4.803  0.4667 -0.3151 -0.2049
  532TIP3    H123087   3.950   5.287   4.828  0.2173  0.0261 -0.0691
  532TIP3    H223088   3.799   5.293   4.834  0.1784 -0.8104  0.0114
  533TIP3   OH223089   6.497   3.637   1.004  0.1183 -0.0195 -0.5819
  533TIP3    H123090   6.461   3.570   1.062  0.0285  0.7139  0.2356
  533TIP3    H223091   6.442   3.634   0.926  0.3919 -1.1903 -0.7475
  534TIP3   OH223092   1.826   6.805   5.211  0.0199 -0.4165  0.1934
  534TIP3    H123093   1.878   6.755   5.275 -1.5080  0.5270  2.2804
  534TIP3    H223094   1.752   6.748   5.191  0.0359 -0.3529 -0.0436
  535TIP3   OH223095   0.484   0.188   0.139  1.0912  0.4146  0.0299
  535TIP3    H123096   0.528   0.234   0.068  1.1301 -0.0776 -0.2703
  535TIP3    H223097   0.391   0.204   0.123  1.0522 -0.3569 -0.6094
  536TIP3   OH223098   0.353   1.082  14.116 -0.0513  0.4853 -0.2422
  536TIP3    H123099   0.384   1.145  14.181  1.2486 -0.3766  0.0178
  536TIP3    H223100   0.414   1.008  14.123 -2.3139 -1.4477  0.4761
  537TIP3   OH223101   3.278   0.464   4.317  0.6645 -0.7045 -0.0822
  537TIP3    H123102   3.339   0.538   4.323 -0.3145  0.0329  1.8746
  537TIP3    H223103   3.280   0.425   4.405 -0.6726 -1.4799 -0.3763
  538TIP3   OH223104   0.841   6.383  10.917  0.1067  0.2542  0.2284
  538TIP3    H123105   0.786   6.414  10.988  0.8673  1.0616  0.4799
  538TIP3    H223106   0.843   6.288  10.928  0.8841  0.4192  1.8027
  539TIP3   OH223107   3.212   4.217  14.189  0.2076 -0.2149  0.4530
  539TIP3    H123108   3.291   4.269  14.200  0.2341 -0.5625  2.3311
  539TIP3    H223109   3.154   4.271  14.137  2.0452 -0.3975 -1.9367
  540TIP3   OH223110   6.826   0.328   2.107  0.3181  0.3273  0.2638
  540TIP3    H123111   6.886   0.401   2.121  0.5089 -0.0661  1.6362
  540TIP3    H223112   6.795   0.304   2.195 -0.4151 -0.6753 -0.2377
  541TIP3   OH223113   3.166   2.345  13.745  0.0722  0.3093 -0.0236
  541TIP3    H123114   3.152   2.301  13.829 -2.5292  1.2919  0.1554
  541TIP3    H223115   3.143   2.437  13.762  2.7242  1.2360 -1.0390
  542TIP3   OH223116   6.774   5.337  15.398  0.4026 -0.0851 -0.6386
  542TIP3    H123117   6.809   5.357  15.485 -1.0293  0.1176 -0.0906
  542TIP3    H223118   6.817   5.400  15.340  1.8667 -0.6484 -0.2158
  543TIP3   OH223119   0.545   4.830  17.143 -0.2565 -0.2267  0.0880
  543TIP3    H123120   0.452   4.851  17.132 -0.2385  0.1009  0.5461
  543TIP3    H223121   0.568   4.782  17.064 -0.3887  1.1500 -0.8136
  544TIP3   OH223122   5.660   3.807  12.866 -0.1447 -0.3255 -0.2926
  544TIP3    H123123   5.619   3.779  12.784  2.3962 -2.7961 -0.8414
  544TIP3    H223124   5.749   3.832  12.841  1.5392 -3.4694  1.8861
  545TIP3   OH223125   0.609   3.001  14.139 -0.0776 -0.9142  0.2092
  545TIP3    H123126   0.558   2.928  14.105 -0.2756 -1.0419  0.7664
  545TIP3    H223127   0.641   2.971  14.224 -0.4267 -0.2401  0.5860
  546TIP3   OH223128   2.717   4.580   0.762 -0.0913  0.4488  0.3815
  546TIP3    H123129   2.767   4.567   0.843  1.4659 -0.2568 -0.6558
  546TIP3    H223130   2.751   4.514   0.702 -1.4043  0.7922 -0.7881
  547TIP3   OH223131   2.405   3.891  16.075 -0.0626 -0.0478  0.4127
  547TIP3    H123132   2.485   3.838  16.082  0.3119  0.4678  0.1448
  547TIP3    H223133   2.435   3.975  16.041 -0.7496  0.0966  0.1418
  548TIP3   OH223134   4.611   6.348  11.516 -0.2974  0.4500 -0.2086
  548TIP3    H123135   4.603   6.406  11.592  1.1005 -1.0208  1.1386
  548TIP3    H223136   4.686   6.383  11.468  1.4096 -0.9005  1.3228
  549TIP3   OH223137   5.685   1.852   1.106 -0.7503 -0.3538 -0.1502
  549TIP3    H123138   5.609   1.819   1.153 -0.8650  1.0981  0.7513
  549TIP3    H223139   5.752   1.785   1.119 -0.3134  0.5752  3.3591
  550TIP3   OH223140   2.617   2.848   1.700  0.7164  0.1749 -0.0037
  550TIP3    H123141   2.533   2.891   1.713  0.3553 -0.3025 -0.7093
  550TIP3    H223142   2.661   2.899   1.632  1.3872  0.9454  0.9671
  551TIP3   OH223143   0.360   0.394  13.441 -0.2886  0.6788  0.4135
  551TIP3    H123144   0.427   0.433  13.497  0.4395  1.4739 -0.9600
  551TIP3    H223145   0.409   0.336  13.383 -0.8642  0.8117 -0.2137
  552TIP3   OH223146   2.794   5.326  14.620  0.0215  0.0223  0.1635
  552TIP3    H123147   2.760   5.238  14.606 -2.0351  0.6541  0.7733
  552TIP3    H223148   2.876   5.313  14.667  1.4306 -1.6440 -2.4904
  553TIP3   OH223149   5.999   5.276   6.566  0.1522  0.2815 -0.7821
  553TIP3    H123150   5.921   5.328   6.548  0.9079  1.4348 -0.8210
  553TIP3    H223151   6.047   5.274   6.483  0.2865 -0.2085 -0.6961
  554TIP3   OH223152   6.354   5.279   5.151  0.0153 -0.3145 -0.5930
  554TIP3    H123153   6.311   5.212   5.098  0.9092 -0.2806 -1.3998
  554TIP3    H223154   6.444   5.281   5.119  0.2984  0.4836  0.1916
  555TIP3   OH223155   0.973   2.993   0.063  0.2650 -0.1082 -0.4937
  555TIP3    H123156   0.979   3.059   0.132  0.6091 -1.3866  0.7496
  555TIP3    H223157   1.063   2.963   0.050  0.0109 -0.9386 -0.4106
  556TIP3   OH223158   3.947   5.706  12.475  0.3062 -0.0407  0.0597
  556TIP3    H123159   3.918   5.632  12.422  0.1304  0.1368 -0.0939
  556TIP3    H223160   3.867   5.757  12.492  0.0767 -0.8685  1.7320
  557TIP3   OH223161   0.836   2.138  12.392  0.3019  0.0570 -0.1283
  557TIP3    H123162   0.907   2.170  12.448  0.9641 -0.6994 -0.5063
  557TIP3    H223163   0.822   2.209  12.329 -0.2981  0.8189  0.8429
  558TIP3   OH223164   1.495   5.379   1.408 -0.2017  0.1096 -0.5909
  558TIP3    H123165   1.459   5.388   1.320 -1.3535  1.5985 -0.0303
  558TIP3    H223166   1.564   5.446   1.413 -1.4514  1.4010  0.2034
  559TIP3   OH223167   1.281   3.231   0.567 -0.0053 -0.2924 -0.1295
  559TIP3    H123168   1.256   3.152   0.519 -0.4238  0.3159 -0.9210
  559TIP3    H223169   1.207   3.290   0.557  0.3951  0.2941  0.2763
  560TIP3   OH223170   4.132   3.351   2.029 -0.3955 -0.3873 -0.7423
  560TIP3    H123171   4.049   3.333   2.073 -0.6618 -0.8964 -1.4270
  560TIP3    H223172   4.130   3.445   2.012  1.1176  0.5142  3.0993
  561TIP3   OH223173   0.535   1.056  15.826 -0.0043 -0.2210  0.2415
  561TIP3    H123174   0.533   1.137  15.775 -0.0530 -0.3585  0.0226
  561TIP3    H223175   0.477   1.074  15.900 -1.2932 -0.5838 -0.6265
  562TIP3   OH223176   1.256   4.501   3.313  0.1874 -0.4895  0.2215
  562TIP3    H123177   1.168   4.510   3.349  1.2832 -0.9505  3.2876
  562TIP3    H223178   1.250   4.427   3.253 -1.3993 -0.8111  0.7220
  563TIP3   OH223179   6.540   3.239  13.306 -0.6034 -0.2633 -0.3553
  563TIP3    H123180   6.592   3.193  13.371 -0.2195  0.1375 -0.3649
  563TIP3    H223181   6.588   3.225  13.224 -0.5462  0.0376 -0.3779
  564TIP3   OH223182   0.413   4.310  10.784  0.7106 -0.0805 -0.3674
  564TIP3    H123183   0.345   4.253  10.749 -0.0550  1.3988 -1.3852
  564TIP3    H223184   0.479   4.250  10.819 -1.1135 -1.5577  0.7035
  565TIP3   OH223185   1.122   2.558   5.295 -0.3092 -0.4176  0.4497
  565TIP3    H123186   1.120   2.529   5.386 -0.9514 -1.5845  0.0765
  565TIP3    H223187   1.085   2.485   5.245 -1.9533  1.0172 -0.5369
  566TIP3   OH223188   0.757   0.921  12.584  0.2433 -0.3829 -0.2307
  566TIP3    H123189   0.757   0.850  12.520 -0.0853 -0.7280  0.1392
  566TIP3    H223190   0.666   0.950  12.587  0.7414  1.5721 -1.9955
  567TIP3   OH223191   1.992   1.690  16.687  0.2357 -0.3773  0.3386
  567TIP3    H123192   1.909   1.644  16.699 -0.3103  0.3691 -0.4227
  567TIP3    H223193   1.972   1.758  16.622  0.8789  1.2083  1.7145
  568TIP3   OH223194   4.453   4.428   2.298  0.0883  0.1643 -0.3564
  568TIP3    H123195   4.382   4.448   2.358  0.3210  2.0206 -0.6184
  568TIP3    H223196   4.460   4.506   2.243  0.3229 -1.1897 -2.3667
  569TIP3   OH223197   3.009   3.288  16.505  0.2199  0.3164  0.3985
  569TIP3    H123198   3.039   3.322  16.590  0.5582  2.9010 -0.6599
  569TIP3    H223199   3.087   3.253  16.464  0.5131  1.0751  0.2897
  570TIP3   OH223200   5.007   5.924   4.847 -0.2468  0.1455 -0.2082
  570TIP3    H123201   5.036   6.000   4.898 -1.3311  0.7650 -0.4796
  570TIP3    H223202   5.032   5.945   4.757  3.0675 -1.6279  0.1668
  571TIP3   OH223203   4.994   4.674  14.503 -0.4659  0.3775  0.6069
  571TIP3    H123204   4.902   4.654  14.520 -0.5743 -0.3934 -0.6850
  571TIP3    H223205   4.996   4.768  14.488 -0.9466  0.4892  1.2274
  572TIP3   OH223206   5.331   0.420  15.395  0.2308 -0.1313  0.6753
  572TIP3    H123207   5.295   0.459  15.316 -0.6071 -2.2962 -0.0928
  572TIP3    H223208   5.369   0.493  15.443 -0.3799  1.4309 -1.1050
  573TIP3   OH223209   2.686   1.032   5.795  0.0327  0.3459  0.3809
  573TIP3    H123210   2.682   1.061   5.886 -3.6612  0.2663  0.3965
  573TIP3    H223211   2.661   0.939   5.799  1.2442 -0.0477 -0.6213
  574TIP3   OH223212   5.319   0.010  13.761 -0.1210  0.4107  0.4193
  574TIP3    H123213   5.414   0.002  13.750 -0.2453 -2.8539  0.7742
  574TIP3    H223214   5.293  -0.071  13.805 -3.1955  0.8039 -0.4505
  575TIP3   OH223215   6.636   4.049   4.867  0.5068  0.3939  0.0453
  575TIP3    H123216   6.676   3.965   4.845  1.0426  0.6957 -0.1635
  575TIP3    H223217   6.549   4.045   4.827  0.8862  0.3157 -0.8127
  576TIP3   OH223218   2.201   5.951  16.000 -0.7788  0.1194 -0.5706
  576TIP3    H123219   2.128   5.973  16.058 -0.5444 -2.3294  0.7833
  576TIP3    H223220   2.220   5.859  16.019  2.6984  0.6512 -0.8401
  577TIP3   OH223221   4.208   5.514  13.409 -0.1940  0.1421 -0.1637
  577TIP3    H123222   4.262   5.468  13.344 -0.2788  0.3935 -0.4157
  577TIP3    H223223   4.122   5.472  13.403  0.2619 -0.9948  1.0146
  578TIP3   OH223224   3.784   2.907   0.109 -0.2054  0.6358 -0.2791
  578TIP3    H123225   3.755   2.996   0.090  2.6095  3.1516  4.9525
  578TIP3    H223226   3.706   2.861   0.140 -1.4114  1.7381 -1.5867
  579TIP3   OH223227   6.116   2.986   3.800 -0.0048  0.1323  0.7118
  579TIP3    H123228   6.155   3.063   3.760 -0.3327 -0.6193 -1.1769
  579TIP3    H223229   6.038   3.019   3.844  0.0458  0.9392  0.2183
  580TIP3   OH223230   0.170   6.596   1.347 -0.0980 -0.1038 -0.0751
  580TIP3    H123231   0.187   6.663   1.280 -0.0889 -1.5125 -1.5603
  580TIP3    H223232   0.075   6.584   1.345 -0.2163  0.5688  0.9273
  581TIP3   OH223233   2.324   2.624   1.371  0.3559 -0.0665  0.3355
  581TIP3    H123234   2.404   2.599   1.325 -0.0503 -0.3248 -0.2464
  581TIP3    H223235   2.314   2.558   1.439 -0.3112 -1.1032 -0.7205
  582TIP3   OH223236   3.458   4.839  10.753  0.2600  0.6287 -0.1721
  582TIP3    H123237   3.528   4.834  10.819 -1.0741 -0.1565  1.2419
  582TIP3    H223238   3.394   4.774  10.782 -0.8450  0.9924 -1.7112
  583TIP3   OH223239   1.206   2.624   6.027  0.2261 -0.2826 -0.5499
  583TIP3    H123240   1.191   2.586   6.114 -1.8666  0.8220 -0.3568
  583TIP3    H223241   1.278   2.686   6.041  1.3075 -1.6046 -0.0969
  584TIP3   OH223242   2.489   6.694   2.896 -0.0602 -0.1653  0.5861
  584TIP3    H123243   2.462   6.605   2.874 -0.0749 -0.5118  1.8757
  584TIP3    H223244   2.585   6.692   2.890 -0.1414  0.4077 -1.6660
  585TIP3   OH223245   4.167   5.000   4.513  0.7819  0.0623  0.2804
  585TIP3    H123246   4.153   5.017   4.606 -0.0176  0.7534  0.0494
  585TIP3    H223247   4.213   4.917   4.510 -0.1403 -0.5084  1.2526
  586TIP3   OH223248   2.875   3.488  14.719  0.0524  0.0621  0.2543
  586TIP3    H123249   2.923   3.415  14.757  0.0271  0.0851  0.3289
  586TIP3    H223250   2.899   3.564  14.772 -0.5159 -0.0317  0.6561
  587TIP3   OH223251   6.761   2.858   0.934  0.1677 -0.3824 -0.8884
  587TIP3    H123252   6.772   2.856   1.029 -0.7669  1.6531 -0.6807
  587TIP3    H223253   6.787   2.947   0.910  0.3861 -0.8686 -2.5555
  588TIP3   OH223254   5.348   2.647   0.226 -0.5750 -0.0516  0.4952
  588TIP3    H123255   5.342   2.553   0.240 -1.4553 -0.3136 -1.3061
  588TIP3    H223256   5.422   2.675   0.279  0.1491 -1.8733  0.5072
  589TIP3   OH223257   3.040   1.247   5.819 -0.0789  0.2914  0.6627
  589TIP3    H123258   3.068   1.197   5.742  1.0625 -0.4192  1.4906
  589TIP3    H223259   3.093   1.211   5.890 -0.5536  1.4611  1.6328
  590TIP3   OH223260   6.225   6.589  16.713  0.3212 -0.7303  0.5061
  590TIP3    H123261   6.193   6.531  16.782  0.3251 -0.0425  1.0968
  590TIP3    H223262   6.147   6.636  16.683  0.4945 -0.2677  0.7767
  591TIP3   OH223263   3.243   2.092  13.047 -0.2285  0.0961  0.0697
  591TIP3    H123264   3.176   2.024  13.058 -1.0712  0.7365 -0.9248
  591TIP3    H223265   3.211   2.165  13.100 -0.0045  0.1888  0.0734
  592TIP3   OH223266   4.499   6.326  13.793 -0.3937  0.2025 -0.5473
  592TIP3    H123267   4.524   6.282  13.712 -0.5571 -0.6775 -0.1438
  592TIP3    H223268   4.512   6.419  13.776 -3.3313  0.3706 -2.6210
  593TIP3   OH223269   2.189   6.181   2.418  0.6238  0.3189  0.1999
  593TIP3    H123270   2.148   6.095   2.409  1.5966 -0.2028  0.6470
  593TIP3    H223271   2.141   6.237   2.356 -1.4809  0.0188  1.4605
  594TIP3   OH223272   4.459   1.506  12.144 -0.4897  0.2757 -0.1715
  594TIP3    H123273   4.449   1.594  12.180 -0.7886  0.1100  0.1509
  594TIP3    H223274   4.384   1.457  12.177  0.1316 -0.3375  0.3538
  595TIP3   OH223275   4.329   1.392   2.198 -0.4250 -0.4533  0.3237
  595TIP3    H123276   4.322   1.297   2.206  0.0828 -0.5502 -0.2473
  595TIP3    H223277   4.304   1.426   2.283 -0.3055 -1.1204  0.6279
  596TIP3   OH223278   0.715   6.122  11.948  0.3354  0.0067 -0.5991
  596TIP3    H123279   0.627   6.085  11.954  0.3591  0.1314  0.9535
  596TIP3    H223280   0.701   6.216  11.946  0.4323  0.0351 -0.0764
  597TIP3   OH223281   5.597   2.029  13.449 -0.0668  0.3850  0.1987
  597TIP3    H123282   5.622   2.093  13.382  1.1453  1.4281  1.5895
  597TIP3    H223283   5.505   2.047  13.467  0.0268  1.1316 -0.0619
  598TIP3   OH223284   4.797   3.942  14.344 -0.4236 -0.5416  0.0140
  598TIP3    H123285   4.756   3.996  14.276  2.6476 -0.9552 -2.3814
  598TIP3    H223286   4.838   3.870  14.296 -0.5292 -2.4899  2.6613
  599TIP3   OH223287   1.943   3.575   2.107 -0.3085  0.5510  0.7232
  599TIP3    H123288   1.847   3.579   2.106 -0.4461 -1.4361 -0.7239
  599TIP3    H223289   1.962   3.484   2.131  1.0921 -0.1296 -2.5016
  600TIP3   OH223290   3.608   3.485  17.009 -0.1673  0.0442 -0.1491
  600TIP3    H123291   3.615   3.580  17.014  0.5484  0.0504 -0.9762
  600TIP3    H223292   3.598   3.466  16.916  1.7656 -0.7901 -0.2481
  601TIP3   OH223293   0.664   1.879  16.133 -0.6741 -0.7277  0.8229
  601TIP3    H123294   0.663   1.939  16.208  0.5228 -0.0571  0.3205
  601TIP3    H223295   0.609   1.805  16.161  1.4802 -1.5647  3.2472
  602TIP3   OH223296   5.621   3.386  15.459  0.4307  0.2396 -0.1293
  602TIP3    H123297   5.656   3.473  15.480  1.4744 -0.4690  1.2855
  602TIP3    H223298   5.630   3.337  15.541 -1.8688 -0.6796 -0.3308
  603TIP3   OH223299   0.881   4.984  13.110 -0.2442  0.0586  0.2387
  603TIP3    H123300   0.794   4.964  13.076 -0.4832  1.2777  0.0967
  603TIP3    H223301   0.941   4.936  13.054 -0.7656  0.1697 -0.4207
  604TIP3   OH223302   5.301   0.822  15.585 -0.1287  0.0707  0.5672
  604TIP3    H123303   5.247   0.855  15.513  1.6952 -0.9330 -1.3756
  604TIP3    H223304   5.328   0.901  15.632 -3.6559  0.5878  2.0371
  605TIP3   OH223305   1.166   6.604   1.003  0.1938 -0.6369  0.3876
  605TIP3    H123306   1.177   6.509   0.996 -1.5554 -0.7920 -1.0286
  605TIP3    H223307   1.072   6.617   1.015  0.1260  0.9709 -1.3735
  606TIP3   OH223308   3.778   1.286   1.942 -0.9992 -0.1207  0.1576
  606TIP3    H123309   3.745   1.314   2.028 -0.1050  1.0750  0.1486
  606TIP3    H223310   3.790   1.192   1.951 -1.7820 -0.1546  1.0435
  607TIP3   OH223311   0.194   0.556   2.909 -0.4784 -0.3672  0.1214
  607TIP3    H123312   0.175   0.514   2.993 -0.5355  0.5973  0.6129
  607TIP3    H223313   0.251   0.630   2.933 -1.5961  0.7284 -0.5115
  608TIP3   OH223314   1.115   5.924  13.382 -0.2935  0.2917 -0.3568
  608TIP3    H123315   1.198   5.884  13.407 -0.0110  0.8339 -0.4223
  608TIP3    H223316   1.138   5.985  13.312 -0.7158  0.6024 -0.2255
  609TIP3   OH223317   0.588   2.453  11.892 -0.0918 -0.1154 -0.1085
  609TIP3    H123318   0.679   2.482  11.883 -0.1102  1.0802  2.5687
  609TIP3    H223319   0.537   2.533  11.889 -1.0269 -0.7309 -1.0207
  610TIP3   OH223320   2.798   5.265  14.957  0.1394 -1.3201 -0.0813
  610TIP3    H123321   2.809   5.171  14.965 -1.2924 -1.9028 -3.3627
  610TIP3    H223322   2.845   5.288  14.877 -1.8069  0.2104 -0.8698
  611TIP3   OH223323   4.829   0.507   0.397 -0.5224 -0.1620  0.1975
  611TIP3    H123324   4.753   0.457   0.368  0.2744 -1.5979  0.5059
  611TIP3    H223325   4.843   0.479   0.487  0.6773 -0.3202 -0.0251
  612TIP3   OH223326   6.535   5.405  17.007  0.2026 -0.0203 -0.3134
  612TIP3    H123327   6.509   5.367  16.923  0.4688 -0.5650 -0.1512
  612TIP3    H223328   6.463   5.464  17.030 -1.2971 -2.0692  0.5122
  613TIP3   OH223329   3.794   4.496   1.443  0.2604  0.1077  0.1735
  613TIP3    H123330   3.865   4.453   1.397  3.1868  2.4638  2.0628
  613TIP3    H223331   3.760   4.429   1.502  1.5747 -0.8542 -0.1129
  614TIP3   OH223332   5.814   6.060  15.617  0.2617  0.5049 -0.0452
  614TIP3    H123333   5.827   6.108  15.535  1.5682  0.2812 -0.0053
  614TIP3    H223334   5.728   6.087  15.648  0.8294  2.6186 -0.1613
  615TIP3   OH223335   2.530   3.978  11.966 -0.4516  0.0121  0.2047
  615TIP3    H123336   2.563   4.030  11.893 -0.9129 -0.3941 -0.3079
  615TIP3    H223337   2.590   3.997  12.038  0.5826 -0.2996 -0.5424
  616TIP3   OH223338   6.505   3.533   2.061  0.0191  0.6016 -0.7875
  616TIP3    H123339   6.595   3.544   2.030  0.0311  0.8476 -0.6658
  616TIP3    H223340   6.515   3.492   2.147  0.0129  0.5925 -0.7912
  617TIP3   OH223341   5.935   6.174   1.437  0.4149  0.6912 -0.3666
  617TIP3    H123342   5.874   6.162   1.510  0.3966 -0.4773 -0.5604
  617TIP3    H223343   5.885   6.149   1.360  1.6195 -2.1435 -0.3566
  618TIP3   OH223344   2.645   1.433   4.049  0.4095 -0.2534 -0.5054
  618TIP3    H123345   2.732   1.467   4.028  0.4859  0.1034  0.3520
  618TIP3    H223346   2.605   1.415   3.964  1.0539  0.2619 -0.9238
  619TIP3   OH223347   3.152   3.887  16.438  0.0585  0.7705 -0.0555
  619TIP3    H123348   3.210   3.860  16.509 -1.1375  2.1176  1.5256
  619TIP3    H223349   3.211   3.917  16.368  1.2644 -0.4809  0.3820
  620TIP3   OH223350   3.710   3.819  14.454 -0.2071  0.5184  0.1709
  620TIP3    H123351   3.672   3.773  14.379  2.4641  1.2285 -1.7835
  620TIP3    H223352   3.749   3.898  14.416  1.0017  1.0562  2.3661
  621TIP3   OH223353   4.243   3.916  16.942  0.6732  0.0964 -0.0101
  621TIP3    H123354   4.307   3.927  17.012  0.2673 -0.8934  0.5377
  621TIP3    H223355   4.190   3.842  16.969  0.8382 -0.6620 -1.6253
  622TIP3   OH223356   0.352   5.912   1.324  0.2607  0.1856 -0.3031
  622TIP3    H123357   0.418   5.845   1.338  0.9572  0.7739 -0.6964
  622TIP3    H223358   0.380   5.985   1.379 -0.5408  0.1299  0.1946
  623TIP3   OH223359   4.820   6.201  13.865 -0.5171  0.0925 -0.0830
  623TIP3    H123360   4.822   6.211  13.960 -1.6743  0.1632 -0.0447
  623TIP3    H223361   4.779   6.282  13.833 -1.7701 -0.6596 -0.4835
  624TIP3   OH223362   1.056   4.018  12.682  0.0257  0.4755  0.3417
  624TIP3    H123363   1.114   4.053  12.749  0.4808 -1.7378  1.1783
  624TIP3    H223364   0.999   3.957  12.729  0.7882 -1.6450 -1.3193
  625TIP3   OH223365   2.172   2.827   2.470 -0.0960 -0.2576 -0.3157
  625TIP3    H123366   2.101   2.765   2.486 -0.4803  0.0302 -0.9104
  625TIP3    H223367   2.219   2.831   2.554 -0.8244 -0.3816  0.1035
  626TIP3   OH223368   4.520   3.285  15.519 -0.0860 -0.3409 -0.6994
  626TIP3    H123369   4.470   3.361  15.489 -2.0076 -0.6660  1.4071
  626TIP3    H223370   4.611   3.315  15.519 -0.6309  1.4631 -1.3459
  627TIP3   OH223371   3.110   5.247   4.026 -0.4342 -0.0884  0.4572
  627TIP3    H123372   3.197   5.213   4.049  0.1552  1.2164  0.2451
  627TIP3    H223373   3.074   5.180   3.968  1.0056 -0.0423 -0.5640
  628TIP3   OH223374   1.040   0.007   2.261 -0.4495 -0.6280 -0.1087
  628TIP3    H123375   1.125   0.007   2.306  1.0349  0.3333 -2.7170
  628TIP3    H223376   0.978   0.031   2.330  1.4191 -0.8839  1.7983
  629TIP3   OH223377   2.941   1.674  15.350  0.3652 -0.2683  0.2904
  629TIP3    H123378   3.026   1.691  15.310  1.3751 -3.6787  0.6707
  629TIP3    H223379   2.962   1.632  15.433 -1.7352 -0.0048  1.0155
  630TIP3   OH223380   3.144   1.823  15.688  0.4539 -0.4854 -0.0695
  630TIP3    H123381   3.182   1.767  15.756 -0.5619 -0.2800  0.6869
  630TIP3    H223382   3.049   1.812  15.698  0.2748  0.1869 -0.9190
  631TIP3   OH223383   4.425   0.299   2.574 -0.4791 -0.3510 -0.0643
  631TIP3    H123384   4.482   0.310   2.498 -0.7158 -0.5584 -0.2762
  631TIP3    H223385   4.336   0.296   2.537 -0.6370  0.0936  0.2724
  632TIP3   OH223386   4.780   4.488  16.820 -0.2863  0.5162  0.4478
  632TIP3    H123387   4.844   4.460  16.886 -1.7188  1.6975  2.4721
  632TIP3    H223388   4.824   4.476  16.736  2.4079  0.8781  1.7198
  633TIP3   OH223389   4.707   1.333  14.252 -0.4226 -0.1603 -0.3317
  633TIP3    H123390   4.707   1.317  14.158 -0.6726  0.9889 -0.5407
  633TIP3    H223391   4.782   1.390  14.267 -0.3525 -0.3779  0.1823
  634TIP3   OH223392   0.541   3.920   4.539  0.4032 -0.2247 -0.3665
  634TIP3    H123393   0.523   3.830   4.568  1.6142 -0.2013  0.5735
  634TIP3    H223394   0.506   3.924   4.450  0.1420 -1.5641 -0.3540
  635TIP3   OH223395   2.447   6.140  12.434 -0.1145  0.3361 -0.2280
  635TIP3    H123396   2.379   6.073  12.422  0.2255 -0.1675  0.5592
  635TIP3    H223397   2.445   6.191  12.353 -0.3201 -0.6879 -0.8924
  636TIP3   OH223398   6.777   1.488   5.259  0.0338  0.5522  0.2495
  636TIP3    H123399   6.690   1.461   5.290  0.1116  0.8854  0.7790
  636TIP3    H223400   6.762   1.521   5.170 -0.2208 -0.2901 -0.0281
  637TIP3   OH223401   3.593   5.912   4.697  0.0018  0.4074 -0.0076
  637TIP3    H123402   3.580   5.945   4.786  0.1816 -0.3925  0.3169
  637TIP3    H223403   3.522   5.952   4.646 -0.9343 -0.2329  0.7830
  638TIP3   OH223404   4.028   0.829  11.435 -0.1913 -0.0837 -0.0971
  638TIP3    H123405   3.981   0.881  11.500  0.9426  0.2342  0.4872
  638TIP3    H223406   4.007   0.738  11.457 -0.7215  0.0595  0.0016
  639TIP3   OH223407   1.283   0.244  15.528  0.3552  0.6179 -0.0431
  639TIP3    H123408   1.228   0.253  15.605  0.7250 -0.3420  0.3519
  639TIP3    H223409   1.360   0.298  15.546 -0.5670  2.2657 -0.7531
  640TIP3   OH223410   4.298   1.896   0.328  0.2327  0.6524 -0.4104
  640TIP3    H123411   4.290   1.900   0.424 -1.1831  0.4652 -0.5066
  640TIP3    H223412   4.217   1.934   0.296  0.1497 -0.4331 -1.5365
  641TIP3   OH223413   6.623   5.078   1.841  0.4704 -0.0179  0.1157
  641TIP3    H123414   6.608   5.169   1.813  0.0643  0.0157  0.4207
  641TIP3    H223415   6.540   5.053   1.882  0.0464 -1.0198 -1.2588
  642TIP3   OH223416   3.977   1.199  15.636 -0.0232 -0.5294  0.2010
  642TIP3    H123417   4.016   1.123  15.594 -2.3839 -0.7049 -1.9020
  642TIP3    H223418   4.020   1.274  15.596 -1.2573 -0.7306 -1.6442
  643TIP3   OH223419   2.509   1.289  16.079 -0.3130 -0.0798 -0.6221
  643TIP3    H123420   2.436   1.260  16.134 -0.2724  1.1597  0.1241
  643TIP3    H223421   2.576   1.317  16.142 -0.0110  0.7343 -1.2869
  644TIP3   OH223422   6.482   2.602   4.039  0.2656 -0.1196 -0.2860
  644TIP3    H123423   6.408   2.559   4.082 -0.0632  1.5127  0.9154
  644TIP3    H223424   6.447   2.686   4.009  1.4119  0.3204 -0.4614
  645TIP3   OH223425   6.275   4.576   3.212 -0.3188 -0.3499  0.1495
  645TIP3    H123426   6.232   4.627   3.280 -1.6148 -0.3317 -0.6585
  645TIP3    H223427   6.362   4.557   3.248 -0.9276 -0.2540  1.7457
  646TIP3   OH223428   3.742   2.248  11.972  0.0204 -0.0671 -0.2205
  646TIP3    H123429   3.816   2.193  11.947 -0.8070 -1.4610  0.2899
  646TIP3    H223430   3.718   2.217  12.060 -1.0237  0.5140 -0.2921
  647TIP3   OH223431   1.036   5.385   1.976  0.0157  0.3982 -0.3633
  647TIP3    H123432   0.991   5.333   1.909  0.6234  0.0952 -0.5374
  647TIP3    H223433   0.967   5.440   2.013 -0.2200  1.0694 -1.7157
  648TIP3   OH223434   5.367   4.127  12.755 -0.0117  0.0547 -0.1794
  648TIP3    H123435   5.343   4.060  12.819  0.1007 -0.6620 -0.8684
  648TIP3    H223436   5.433   4.084  12.700  0.8635  1.1011  0.0321
  649TIP3   OH223437   3.837   2.062  10.542  0.5104 -0.0648 -0.4886
  649TIP3    H123438   3.787   2.132  10.500  0.4818 -0.2193 -0.7119
  649TIP3    H223439   3.926   2.098  10.548 -0.2331  1.6754  3.1257
  650TIP3   OH223440   1.364   2.856  14.607 -0.6892 -0.2078 -0.2313
  650TIP3    H123441   1.337   2.926  14.668 -1.3571 -0.5311 -0.1460
  650TIP3    H223442   1.402   2.789  14.664 -0.1229  0.0441 -0.3051
  651TIP3   OH223443   6.038   2.964  16.494  0.1497  0.0488 -0.5598
  651TIP3    H123444   6.087   2.944  16.574  0.5615 -1.1906 -1.0947
  651TIP3    H223445   6.097   2.938  16.423 -0.8809 -0.5213 -1.2283
  652TIP3   OH223446   0.173   4.355   0.649 -0.6121  0.1141 -0.0265
  652TIP3    H123447   0.153   4.282   0.706  1.4133  0.5330  1.3084
  652TIP3    H223448   0.122   4.428   0.684  0.8347  0.4436  1.5190
  653TIP3   OH223449   1.021   4.351   1.338 -0.5889 -0.0445  0.6429
  653TIP3    H123450   1.027   4.259   1.362  0.7327 -0.0709  0.2756
  653TIP3    H223451   1.111   4.383   1.343 -1.1052  1.3792  1.3455
  654TIP3   OH223452   5.557   6.707   6.973  0.4899 -0.0992  0.6122
  654TIP3    H123453   5.530   6.615   6.964 -0.2041  0.2018 -0.5607
  654TIP3    H223454   5.574   6.736   6.883  1.4326  0.7196  1.0333
  655TIP3   OH223455   4.212   2.036   2.390  0.4459  0.1634 -0.0240
  655TIP3    H123456   4.147   2.098   2.424  1.3344  1.8590 -1.3157
  655TIP3    H223457   4.291   2.054   2.440  0.4587 -0.6273  0.2593
  656TIP3   OH223458   3.869   2.956  13.725 -0.1151 -0.6161  0.2691
  656TIP3    H123459   3.776   2.972  13.741 -0.8676 -3.4553 -0.7579
  656TIP3    H223460   3.904   2.931  13.811 -1.0116 -2.3271  0.1863
  657TIP3   OH223461   3.840   2.527  11.061  0.3796  0.4295  0.3532
  657TIP3    H123462   3.854   2.545  11.154  0.8850 -0.6386  0.4949
  657TIP3    H223463   3.926   2.499  11.029 -0.4357 -2.2492  0.2854
  658TIP3   OH223464   6.035   3.306  13.828  0.2090  0.0321 -0.1281
  658TIP3    H123465   6.106   3.258  13.784  0.2094 -0.2069  0.1351
  658TIP3    H223466   5.978   3.334  13.756  0.2730 -0.2573 -0.2943
  659TIP3   OH223467   1.303   2.137   4.438 -0.1445 -0.6263 -0.5472
  659TIP3    H123468   1.297   2.047   4.472  1.9017  0.0055  1.7780
  659TIP3    H223469   1.395   2.147   4.414 -0.2721  0.9412 -0.4792
  660TIP3   OH223470   1.278   0.729   2.440 -0.5626  0.4572 -0.2859
  660TIP3    H123471   1.372   0.725   2.460 -0.6795 -0.4390  0.1350
  660TIP3    H223472   1.272   0.794   2.371  0.1734  1.7439  0.7917
  661TIP3   OH223473   1.734   1.906   5.113  0.3930 -0.0989  0.3503
  661TIP3    H123474   1.760   1.921   5.204 -0.1869  0.9638  0.3672
  661TIP3    H223475   1.713   1.813   5.109  0.1639 -0.1052  1.3783
  662TIP3   OH223476   2.244   4.115  14.159  0.5393  0.4130 -0.0432
  662TIP3    H123477   2.265   4.204  14.187 -0.7135  1.4901 -2.2750
  662TIP3    H223478   2.273   4.111  14.068 -0.6469 -1.0170 -0.3950
  663TIP3   OH223479   0.655   3.331  10.494 -0.1338  0.5526  0.3187
  663TIP3    H123480   0.575   3.331  10.441  0.8977  0.0802 -1.3189
  663TIP3    H223481   0.662   3.243  10.529 -0.6174  0.7586  0.9521
  664TIP3   OH223482   0.371   1.886   2.347 -0.4706  0.0175 -0.0704
  664TIP3    H123483   0.385   1.848   2.260  2.9568 -0.9056  0.7392
  664TIP3    H223484   0.280   1.864   2.368 -1.4076  0.2648 -3.3447
  665TIP3   OH223485   5.722   3.902   4.476 -0.5097  0.1388 -0.1189
  665TIP3    H123486   5.768   3.855   4.407  0.0762 -0.5439  0.7012
  665TIP3    H223487   5.630   3.897   4.453 -0.3823 -0.7815 -0.4316
  666TIP3   OH223488   0.428   1.868  13.549  0.3729 -0.3275  0.2563
  666TIP3    H123489   0.396   1.958  13.547  0.5073 -0.1946  2.0634
  666TIP3    H223490   0.509   1.870  13.498  1.8761  1.2691  2.4929
  667TIP3   OH223491   0.703   5.500  14.470  0.3142 -0.0934 -0.2780
  667TIP3    H123492   0.629   5.461  14.423  0.4473  0.9473 -1.4009
  667TIP3    H223493   0.663   5.537  14.549 -0.5539  1.2141 -1.2865
  668TIP3   OH223494   1.612   4.255  15.997  0.0313  0.4497  0.2061
  668TIP3    H123495   1.529   4.247  15.950  0.5456 -0.7498 -0.5503
  668TIP3    H223496   1.641   4.165  16.009  1.4650  0.8633  0.0157
  669TIP3   OH223497   2.282   5.181  15.730 -1.1191  0.2146  0.1017
  669TIP3    H123498   2.295   5.246  15.661 -0.7046  2.4720  2.1301
  669TIP3    H223499   2.252   5.102  15.685 -0.8645  1.5539 -2.5976
  670TIP3   OH223500   5.879   2.684   0.445  0.3601  0.1824  0.6478
  670TIP3    H123501   5.856   2.602   0.402  3.3543 -0.2772 -0.2260
  670TIP3    H223502   5.861   2.752   0.379  1.4190 -0.1599 -0.0084
  671TIP3   OH223503   4.168   4.937   4.793 -0.4924 -0.0877 -0.0979
  671TIP3    H123504   4.073   4.949   4.797 -0.7480 -2.0978  1.2491
  671TIP3    H223505   4.179   4.842   4.786  1.4277  0.0823  0.2886
  672TIP3   OH223506   0.550   5.013  14.909  0.6069 -0.4694  0.1352
  672TIP3    H123507   0.588   4.928  14.932  1.1992 -0.2060  0.1300
  672TIP3    H223508   0.625   5.068  14.886  0.2566  0.1785  0.5254
  673TIP3   OH223509   3.539   1.134  12.258 -0.5087  0.6139  0.3467
  673TIP3    H123510   3.501   1.215  12.293 -2.5548  1.7648 -3.8960
  673TIP3    H223511   3.472   1.067  12.274 -0.2103  0.4859  1.0688
  674TIP3   OH223512   0.785   6.162   0.179 -0.3967  0.3160  0.0822
  674TIP3    H123513   0.845   6.111   0.124 -1.3759  0.4470 -1.1640
  674TIP3    H223514   0.827   6.247   0.188 -0.7895  0.7356 -1.5990
  675TIP3   OH223515   4.209   6.379  13.515  0.0388 -0.2987  0.7847
  675TIP3    H123516   4.252   6.303  13.553  0.4149 -0.2850  0.3861
  675TIP3    H223517   4.222   6.370  13.421 -2.3535 -1.2400  0.4629
  676TIP3   OH223518   0.259   5.400  11.682  0.4285  0.3692 -0.8346
  676TIP3    H123519   0.325   5.346  11.638  0.3735  0.5441 -1.1331
  676TIP3    H223520   0.310   5.456  11.740  0.3960 -1.0050  0.6010
  677TIP3   OH223521   0.792   5.758  14.099 -0.3738  0.4291 -0.0618
  677TIP3    H123522   0.710   5.800  14.125 -0.1352  1.3655 -0.7715
  677TIP3    H223523   0.780   5.737  14.006  1.1361  3.0712 -0.9625
  678TIP3   OH223524   4.481   0.558  16.148  0.0241 -0.2624 -0.3014
  678TIP3    H123525   4.448   0.637  16.192 -0.9790 -0.8630  0.0500
  678TIP3    H223526   4.576   0.570  16.145 -0.1763  1.3900 -1.0977
  679TIP3   OH223527   6.555   2.838   0.692  0.3317  0.4020  0.1146
  679TIP3    H123528   6.571   2.898   0.619  0.2939  0.5604  0.2377
  679TIP3    H223529   6.638   2.834   0.738  0.6517 -0.4727 -0.5109
  680TIP3   OH223530   0.834   0.085  10.849  0.1232 -0.6718  0.3873
  680TIP3    H123531   0.867   0.082  10.759  3.3834  1.9147  1.3260
  680TIP3    H223532   0.768   0.154  10.848  0.9749  0.1544  0.1712
  681TIP3   OH223533   0.273   0.804   0.136 -0.1224  0.0695  0.1288
  681TIP3    H123534   0.188   0.782   0.175 -0.1146 -0.2689 -0.0415
  681TIP3    H223535   0.302   0.723   0.095  0.6213 -0.0100  0.7917
  682TIP3   OH223536   6.155   1.228   4.030  0.1668 -0.4014  0.0975
  682TIP3    H123537   6.181   1.309   4.073 -1.6674  0.5125 -0.4077
  682TIP3    H223538   6.073   1.204   4.072  0.7966 -2.1585  0.3993
  683TIP3   OH223539   6.227   0.156   4.755  0.0411 -0.0326 -0.0589
  683TIP3    H123540   6.173   0.077   4.753  0.1428 -0.0903 -0.7760
  683TIP3    H223541   6.227   0.183   4.847 -1.7368  0.3232 -0.1279
  684TIP3   OH223542   2.294   2.475   5.097  0.1588  0.3852 -0.4905
  684TIP3    H123543   2.239   2.552   5.114 -0.5272 -0.1731 -0.1243
  684TIP3    H223544   2.297   2.468   5.001 -0.1133  0.6351 -0.5187
  685TIP3   OH223545   6.076   6.565  15.739  0.1471 -0.1272 -0.1232
  685TIP3    H123546   6.003   6.541  15.797  0.1909  0.6275  0.2618
  685TIP3    H223547   6.105   6.482  15.702 -0.8524 -0.4559 -0.2120
  686TIP3   OH223548   6.014   5.737   2.873  0.0255 -0.1494 -0.4303
  686TIP3    H123549   6.106   5.718   2.859 -0.2393 -1.9087  0.0113
  686TIP3    H223550   5.975   5.735   2.786 -0.3419 -3.8909 -0.3233
  687TIP3   OH223551   2.405   4.370   3.041 -0.2708  0.0832 -0.0785
  687TIP3    H123552   2.485   4.373   3.093 -0.9282 -0.9021  1.0351
  687TIP3    H223553   2.422   4.429   2.967  1.9026 -0.9392 -0.4727
  688TIP3   OH223554   0.810   4.267   2.909 -0.6636 -0.2956 -0.1017
  688TIP3    H123555   0.715   4.278   2.897 -0.5650 -0.2726 -0.9322
  688TIP3    H223556   0.837   4.344   2.958 -0.7852  0.6691 -1.4876
  689TIP3   OH223557   0.423   0.168   1.940  0.5337  0.2890  0.6313
  689TIP3    H123558   0.428   0.244   1.998  0.9249 -0.5473  1.7290
  689TIP3    H223559   0.329   0.151   1.932  0.4861  0.0267  1.5750
  690TIP3   OH223560   6.616   6.403   0.712 -0.1916  0.0193  0.2038
  690TIP3    H123561   6.659   6.440   0.636  1.3606  0.6598  1.3349
  690TIP3    H223562   6.606   6.476   0.773 -1.3262 -0.4830  0.6717
  691TIP3   OH223563   1.448   1.708   5.140  0.2395 -0.2569 -0.6183
  691TIP3    H123564   1.455   1.637   5.204  0.8360  1.6597  1.5657
  691TIP3    H223565   1.357   1.705   5.111 -0.5944 -0.0782  1.7523
  692TIP3   OH223566   1.718   5.008  16.986 -0.1491  0.1137 -0.1121
  692TIP3    H123567   1.672   5.052  16.915 -1.3073  1.0322  1.1338
  692TIP3    H223568   1.651   4.998  17.054  1.4425  1.5011  1.7927
  693TIP3   OH223569   2.331   3.285   6.342 -0.3986  0.0799 -0.3295
  693TIP3    H123570   2.279   3.207   6.362  0.1765  0.1272  1.5099
  693TIP3    H223571   2.267   3.356   6.336 -0.7443 -0.2015 -0.0460
  694TIP3   OH223572   1.170   4.521  10.721 -0.4006 -0.7196  0.0772
  694TIP3    H123573   1.083   4.533  10.758  0.1060  3.4552  0.4552
  694TIP3    H223574   1.155   4.485  10.634 -2.8235  2.0599 -0.8219
  695TIP3   OH223575   3.229   6.417  13.284  0.1543  0.1420  0.4298
  695TIP3    H123576   3.317   6.405  13.248  0.0213 -0.1663  0.1979
  695TIP3    H223577   3.180   6.458  13.212 -0.3734 -1.3779 -0.1055
  696TIP3   OH223578   1.426   6.020  10.503  0.6219 -0.1369 -0.5409
  696TIP3    H123579   1.474   5.938  10.494  1.5046  0.4158 -1.0925
  696TIP3    H223580   1.386   6.034  10.416 -0.2280 -0.3896 -0.2055
  697TIP3   OH223581   4.581   3.548   0.242 -0.0595 -0.1647  0.1025
  697TIP3    H123582   4.619   3.507   0.164 -0.8324  0.4121 -0.5943
  697TIP3    H223583   4.616   3.637   0.241 -1.5784  0.4637 -0.6989
  698TIP3   OH223584   3.561   4.694  14.613  0.5567 -0.3866  0.3407
  698TIP3    H123585   3.466   4.682  14.604  0.5762 -0.4511  0.2204
  698TIP3    H223586   3.578   4.780  14.575  0.4018  0.0863  1.2995
  699TIP3   OH223587   3.358   1.526   3.809 -0.1107  0.4245 -0.0006
  699TIP3    H123588   3.324   1.610   3.838 -1.9226  0.4565 -1.9662
  699TIP3    H223589   3.340   1.466   3.882  1.0540  1.6535  1.3458
  700TIP3   OH223590   2.309   3.177  14.952 -0.1816  0.0265 -0.1032
  700TIP3    H123591   2.310   3.179  15.047  1.0621  0.4966 -0.1147
  700TIP3    H223592   2.234   3.231  14.927 -0.7107 -0.3727  0.6060
  701TIP3   OH223593   2.321   6.551   5.575  0.6876 -0.2751 -0.3631
  701TIP3    H123594   2.295   6.607   5.648  0.4499  0.8489 -1.2774
  701TIP3    H223595   2.358   6.473   5.616 -0.0701  0.0320  0.9501
  702TIP3   OH223596   1.021   0.553  11.826  0.0859  0.3481 -0.4239
  702TIP3    H123597   0.992   0.470  11.864 -0.9350  0.6625 -0.4798
  702TIP3    H223598   1.099   0.577  11.877  0.4396 -0.6823 -0.4703
  703TIP3   OH223599   3.736   0.242   1.427 -0.0390 -0.8648  0.3237
  703TIP3    H123600   3.830   0.228   1.436  1.0683  2.8189 -2.5202
  703TIP3    H223601   3.708   0.175   1.364  1.4464 -0.2285 -1.1094
  704TIP3   OH223602   2.191   1.175   3.829  0.5650  0.5071 -0.0062
  704TIP3    H123603   2.285   1.186   3.846  0.7789 -2.3410  1.2358
  704TIP3    H223604   2.183   1.186   3.734  1.7250  2.9185  0.0869
  705TIP3   OH223605   0.103   5.390   0.693 -0.2240  0.3798 -0.4044
  705TIP3    H123606   0.179   5.337   0.669  0.0217  1.4555 -2.1747
  705TIP3    H223607   0.096   5.380   0.788  1.7964 -0.1881 -0.2629
  706TIP3   OH223608   1.666   3.847   4.823  0.1024  0.4018 -0.4503
  706TIP3    H123609   1.655   3.805   4.909 -0.9908 -0.4490 -0.9864
  706TIP3    H223610   1.579   3.878   4.801  0.3577  0.5204 -1.3023
  707TIP3   OH223611   4.243   4.417  14.107  0.2339  0.1143 -0.4348
  707TIP3    H123612   4.229   4.465  14.025 -1.0433 -1.4648 -1.1850
  707TIP3    H223613   4.275   4.331  14.079  0.5161 -0.1868  0.7765
  708TIP3   OH223614   2.927   4.963  12.835 -0.1282 -0.1533 -1.0821
  708TIP3    H123615   2.970   5.042  12.868  1.7256 -1.3211 -0.5448
  708TIP3    H223616   2.856   4.947  12.898  0.9830 -0.2307  0.1918
  709TIP3   OH223617   6.368   3.990  13.965  0.0665 -0.3797 -0.5855
  709TIP3    H123618   6.388   4.028  13.880 -0.5010 -1.5084 -1.2478
  709TIP3    H223619   6.293   3.932  13.949 -1.0454  0.5289  0.9779
  710TIP3   OH223620   2.204   0.456   0.340  0.5307  0.9204 -0.0541
  710TIP3    H123621   2.195   0.387   0.406  1.5756 -3.1319 -3.6878
  710TIP3    H223622   2.298   0.471   0.334  0.4954  0.8018 -1.0039
  711TIP3   OH223623   2.805   0.965   4.462 -0.7080 -0.1378 -0.9336
  711TIP3    H123624   2.858   0.918   4.526  0.3375 -0.5228 -2.0320
  711TIP3    H223625   2.715   0.954   4.492 -0.1470  1.3966  1.5455
  712TIP3   OH223626   5.474   3.794  10.948  0.1226 -0.1219  0.4513
  712TIP3    H123627   5.420   3.737  11.003  0.9100 -0.5716  0.7760
  712TIP3    H223628   5.526   3.845  11.011 -0.8224  1.2299  0.1781
  713TIP3   OH223629   2.435   3.787   4.821  0.8349 -0.3308 -0.3316
  713TIP3    H123630   2.509   3.829   4.864  1.5962 -0.1698 -1.7393
  713TIP3    H223631   2.450   3.801   4.727 -0.9214 -0.3826 -0.6628
  714TIP3   OH223632   2.628   0.440  15.103  0.4802  0.4175 -0.0005
  714TIP3    H123633   2.621   0.359  15.153 -0.4972  0.2544 -0.3812
  714TIP3    H223634   2.626   0.509  15.169  1.3415  0.1483  0.3284
  715TIP3   OH223635   0.278   4.353  13.278 -0.1980  0.0347 -0.4612
  715TIP3    H123636   0.222   4.412  13.328 -1.3063  0.4707 -2.1315
  715TIP3    H223637   0.217   4.293  13.235  0.7051 -0.3093 -1.2909
  716TIP3   OH223638   4.120   0.025  10.815  0.0561  0.1646  0.2505
  716TIP3    H123639   4.030  -0.006  10.809 -0.1301  0.3547  1.6382
  716TIP3    H223640   4.112   0.121  10.810  0.1703  0.1843  0.4540
  717TIP3   OH223641   4.241   4.967  14.852  1.0288 -0.5676 -0.5399
  717TIP3    H123642   4.318   4.987  14.905  0.8792  2.1097 -1.2166
  717TIP3    H223643   4.169   5.013  14.895  0.1305 -1.6008 -0.8959
  718TIP3   OH223644   5.813   5.921   4.209 -0.2513 -0.5462 -0.3765
  718TIP3    H123645   5.826   5.828   4.189 -3.2092 -0.5897 -2.7080
  718TIP3    H223646   5.881   5.966   4.159  1.7829 -1.3509  1.4544
  719TIP3   OH223647   5.152   1.216  15.912 -0.1060 -0.2581 -0.0911
  719TIP3    H123648   5.066   1.191  15.878  0.2636 -3.0907  0.7329
  719TIP3    H223649   5.154   1.179  16.001  1.0521  1.9717  0.8855
  720TIP3   OH223650   4.088   1.987  10.869 -0.3090  0.0105  0.4426
  720TIP3    H123651   4.159   1.977  10.932 -0.5230  0.8783  0.8271
  720TIP3    H223652   4.128   1.965  10.785 -0.3701 -2.5358  1.0095
  721TIP3   OH223653   6.119   2.765  14.906  0.0290 -0.0248  0.2714
  721TIP3    H123654   6.135   2.671  14.895 -1.5961 -0.1525 -1.2373
  721TIP3    H223655   6.191   2.794  14.963  0.1453 -2.3071  1.4096
  722TIP3   OH223656   0.782   4.323   0.900  0.0331 -0.1164 -0.2333
  722TIP3    H123657   0.793   4.396   0.960 -0.3147 -0.6994  0.5537
  722TIP3    H223658   0.863   4.273   0.908  0.5559  0.5339 -1.2778
  723TIP3   OH223659   4.348   3.600   5.384 -0.1148  0.2125 -0.3146
  723TIP3    H123660   4.341   3.563   5.295 -2.6816 -0.2151 -0.0067
  723TIP3    H223661   4.259   3.596   5.418  1.1221 -1.6130  3.1141
  724TIP3   OH223662   6.133   0.752   5.683  0.8518 -0.5097  0.1622
  724TIP3    H123663   6.088   0.731   5.765  1.2979  2.2283  1.1829
  724TIP3    H223664   6.110   0.679   5.625 -1.1976 -1.4823  2.0329
  725TIP3   OH223665   4.440   5.326   3.855  0.1554  0.5101 -0.0671
  725TIP3    H123666   4.481   5.247   3.888  0.1390  0.5830  0.1297
  725TIP3    H223667   4.506   5.394   3.866  0.3888  0.4137 -0.7852
  726TIP3   OH223668   3.034   4.503   3.018  0.0578 -0.6672  0.5907
  726TIP3    H123669   2.950   4.539   2.990 -0.4156 -1.7080  0.6366
  726TIP3    H223670   3.098   4.572   2.997 -0.4018 -0.9369 -2.0595
  727TIP3   OH223671   6.598   0.238  15.871 -0.0479 -0.6347  0.5811
  727TIP3    H123672   6.511   0.263  15.837  0.5852  2.3068  0.8174
  727TIP3    H223673   6.585   0.151  15.909 -2.7611 -0.5201  0.1282
  728TIP3   OH223674   2.341   3.536  12.466 -0.3190  0.0963 -0.4670
  728TIP3    H123675   2.258   3.575  12.438 -0.5775 -0.5352 -0.6178
  728TIP3    H223676   2.383   3.510  12.384 -0.0638  0.2425 -0.3806
  729TIP3   OH223677   6.757   6.156   3.507  0.4721  0.3856 -0.0366
  729TIP3    H123678   6.685   6.139   3.568  0.5706 -2.1838 -0.5082
  729TIP3    H223679   6.807   6.227   3.546 -1.4870  1.2344  1.0308
  730TIP3   OH223680   2.543   3.178  16.984 -0.5514  0.7941  0.2034
  730TIP3    H123681   2.630   3.200  17.018  0.3400  0.1087 -1.5284
  730TIP3    H223682   2.516   3.101  17.035  0.4793  0.1534 -0.1958
  731TIP3   OH223683   3.613   1.668  12.358  0.9693 -0.2990  0.2850
  731TIP3    H123684   3.625   1.629  12.271 -0.2607 -1.8739  0.7860
  731TIP3    H223685   3.539   1.728  12.347 -0.4511 -1.9313  0.6475
  732TIP3   OH223686   6.164   0.045  16.147 -1.0582  0.6122  0.3912
  732TIP3    H123687   6.124  -0.040  16.126  0.1796 -0.1490  0.9989
  732TIP3    H223688   6.100   0.109  16.116 -1.4254 -0.5026 -1.3313
  733TIP3   OH223689   2.468   2.568  12.074  0.6726  0.2887 -0.8773
  733TIP3    H123690   2.518   2.638  12.032  1.4241  0.1349 -0.2476
  733TIP3    H223691   2.532   2.498  12.089 -0.1537 -0.7496 -1.9400
  734TIP3   OH223692   1.759   3.394   5.644 -0.4288 -0.0450 -0.0814
  734TIP3    H123693   1.781   3.317   5.592 -0.7766  0.3062 -0.7591
  734TIP3    H223694   1.666   3.383   5.664  0.1173 -1.2345  2.2756
  735TIP3   OH223695   5.984   4.853  16.317 -0.1883 -0.4465  0.3415
  735TIP3    H123696   6.045   4.927  16.314 -0.3240 -0.2931  1.0979
  735TIP3    H223697   5.938   4.856  16.234 -0.1085  0.2578  0.3160
  736TIP3   OH223698   3.475   2.181  11.788 -0.5035 -0.0632  0.2986
  736TIP3    H123699   3.532   2.136  11.850  0.0614 -1.8651 -1.4233
  736TIP3    H223700   3.386   2.161  11.819 -0.2493 -1.7352  0.0556
  737TIP3   OH223701   0.164   5.361  16.100 -0.1288  0.1086 -0.5854
  737TIP3    H123702   0.143   5.444  16.057  2.0835  0.4553 -1.1078
  737TIP3    H223703   0.137   5.294  16.036 -0.6175  0.4666 -0.7596
  738TIP3   OH223704   4.328   1.858   5.441 -0.2162  0.6589  0.0500
  738TIP3    H123705   4.340   1.952   5.431 -1.1529  0.9231  1.2353
  738TIP3    H223706   4.417   1.823   5.444  0.1385  1.4709 -0.6213
  739TIP3   OH223707   6.272   2.266  16.986 -0.3620 -0.2499  0.5870
  739TIP3    H123708   6.216   2.342  16.967  0.0176  0.0478  0.6501
  739TIP3    H223709   6.211   2.192  16.990 -0.3336 -0.7545 -3.8132
  740TIP3   OH223710   5.032   3.045  12.735 -0.5584  0.0824 -0.6891
  740TIP3    H123711   5.031   3.076  12.825  1.4934 -0.7596 -0.3355
  740TIP3    H223712   5.096   3.101  12.690  0.7606 -1.4648 -0.8248
  741TIP3   OH223713   2.831   1.419  14.543 -0.1545 -0.0496  0.0449
  741TIP3    H123714   2.887   1.476  14.596  0.5468 -0.4724 -0.2366
  741TIP3    H223715   2.783   1.367  14.607 -0.2018  0.2860  0.2867
  742TIP3   OH223716   0.492   6.369   3.531 -0.4827  0.2755  0.2204
  742TIP3    H123717   0.535   6.303   3.477 -0.6890 -0.3381  0.7855
  742TIP3    H223718   0.404   6.377   3.495 -0.5933 -0.0720  0.4108
  743TIP3   OH223719   4.920   5.916   1.157 -0.2080  0.2592 -0.1753
  743TIP3    H123720   4.998   5.968   1.173 -0.2552  0.2762 -0.0019
  743TIP3    H223721   4.858   5.977   1.117 -0.8874  0.7909  1.5979
  744TIP3   OH223722   0.043   5.496   1.227 -0.4926 -0.2037  0.7444
  744TIP3    H123723   0.092   5.448   1.294 -0.2898  0.5947  1.1850
  744TIP3    H223724   0.073   5.587   1.235  0.3146 -0.2521 -1.1352
  745TIP3   OH223725   4.093   6.800  14.399 -0.3735  0.3257  0.1033
  745TIP3    H123726   4.185   6.826  14.414 -0.3951 -0.3515  1.6156
  745TIP3    H223727   4.097   6.737  14.328  0.2725  0.6468 -0.1583
  746TIP3   OH223728   5.195   6.346  14.777  0.6130 -0.1112  0.6244
  746TIP3    H123729   5.256   6.408  14.737 -1.1128  1.2246 -0.1070
  746TIP3    H223730   5.250   6.282  14.821  2.5809 -0.1489 -1.6948
  747TIP3   OH223731   0.340   6.426  11.955  0.2700 -0.7214 -0.4619
  747TIP3    H123732   0.393   6.376  12.018 -0.9799  1.2986  2.4166
  747TIP3    H223733   0.358   6.518  11.976 -1.0869  0.0504 -2.3528
  748TIP3   OH223734   4.604   1.222  13.139  0.0903 -0.0285 -0.9701
  748TIP3    H123735   4.517   1.218  13.180  0.3797  0.4173 -0.2907
  748TIP3    H223736   4.594   1.173  13.057 -0.7258 -0.2252 -0.7664
  749TIP3   OH223737   3.661   2.057   0.838 -1.0573  0.2549 -0.4802
  749TIP3    H123738   3.693   2.105   0.762  1.7616 -0.2762  0.2722
  749TIP3    H223739   3.665   2.120   0.910 -0.3898 -0.1818 -0.1197
  750TIP3   OH223740   6.511   3.208  15.711 -0.0232 -0.5237  0.2946
  750TIP3    H123741   6.600   3.210  15.675 -0.2982 -0.0525 -0.3835
  750TIP3    H223742   6.519   3.250  15.797  0.5710 -1.2882  0.6290
  751TIP3   OH223743   6.242   5.707  11.814 -0.1774  0.3380  0.5461
  751TIP3    H123744   6.238   5.612  11.801 -1.7405  0.7003 -2.6499
  751TIP3    H223745   6.328   5.732  11.781 -0.0701  0.0978  0.6403
  752TIP3   OH223746   2.771   2.936  16.187  0.3972 -0.0044 -0.4250
  752TIP3    H123747   2.789   2.952  16.095 -1.2017  2.1193 -0.4595
  752TIP3    H223748   2.842   2.980  16.234  1.3417 -1.2855 -0.5831
  753TIP3   OH223749   4.514   0.472   3.891  0.0896 -0.5142 -0.2993
  753TIP3    H123750   4.463   0.391   3.884  0.2401 -0.9287  2.3580
  753TIP3    H223751   4.600   0.443   3.922  0.6568  0.5554 -0.8085
  754TIP3   OH223752   2.919   6.725  15.109  0.2251 -0.2787  0.5583
  754TIP3    H123753   2.961   6.640  15.099  2.9866  0.6356  2.9263
  754TIP3    H223754   2.846   6.710  15.169  0.3390 -1.0844  0.4950
  755TIP3   OH223755   6.491   0.487  11.697  0.1470 -0.0380  0.5454
  755TIP3    H123756   6.398   0.497  11.717 -0.4604 -0.2625 -1.8559
  755TIP3    H223757   6.536   0.540  11.763 -1.8072  2.0640  0.3135
  756TIP3   OH223758   3.734   6.231  12.138 -0.7088  0.8198  0.2898
  756TIP3    H123759   3.685   6.154  12.166 -2.7017  2.4389  1.4595
  756TIP3    H223760   3.803   6.195  12.081 -1.7996 -1.7623  0.4391
  757TIP3   OH223761   2.739   5.260  16.188  0.5544  0.1195 -0.0943
  757TIP3    H123762   2.787   5.184  16.156  0.0742  0.2242 -1.1227
  757TIP3    H223763   2.773   5.333  16.136  2.4292  1.0061  2.2136
  758TIP3   OH223764   1.312   0.517  13.296  0.3069  0.1784 -0.5303
  758TIP3    H123765   1.379   0.561  13.349  0.0516  0.8697 -0.7672
  758TIP3    H223766   1.229   0.551  13.331  0.1329  0.5472 -1.2985
  759TIP3   OH223767   3.798   2.312   1.373 -0.3860  0.3392 -0.6696
  759TIP3    H123768   3.783   2.397   1.331 -3.0335  0.1278 -0.3772
  759TIP3    H223769   3.710   2.273   1.378  0.7100 -2.2979 -0.5157
  760TIP3   OH223770   2.126   2.037  12.212 -0.2637 -0.1052  0.8279
  760TIP3    H123771   2.041   2.043  12.169 -0.3052 -1.1305  0.7267
  760TIP3    H223772   2.178   2.108  12.175 -0.6554 -0.2950 -0.1101
  761TIP3   OH223773   6.760   1.738   5.863 -0.2309  0.7300 -0.5452
  761TIP3    H123774   6.763   1.817   5.809 -0.1244  0.8053 -0.4272
  761TIP3    H223775   6.694   1.683   5.820  1.7829 -0.4101 -2.4309
  762TIP3   OH223776   3.752   1.806   4.038  0.2296  0.0966 -0.1434
  762TIP3    H123777   3.719   1.870   4.101 -1.7405 -0.2889 -0.7221
  762TIP3    H223778   3.808   1.856   3.980  0.3793  0.8768  0.6446
  763TIP3   OH223779   2.141   1.799   2.499  0.4511 -0.0101 -0.5007
  763TIP3    H123780   2.172   1.813   2.410  3.0982 -1.0190  0.1589
  763TIP3    H223781   2.157   1.706   2.516 -1.2314 -0.1474  0.6297
  764TIP3   OH223782   0.860   3.164  14.629  0.3447  0.2620 -0.0245
  764TIP3    H123783   0.955   3.164  14.616  0.3018  1.0906 -0.3912
  764TIP3    H223784   0.843   3.239  14.686 -0.1042  0.2372 -0.1210
  765TIP3   OH223785   4.168   1.176   4.528 -0.5017  0.0619  0.1214
  765TIP3    H123786   4.260   1.187   4.549  0.1722 -1.6727 -1.5440
  765TIP3    H223787   4.139   1.262   4.498  1.6552 -0.1021 -2.8830
  766TIP3   OH223788   0.620   2.852  11.633  0.1497 -0.4615  0.6261
  766TIP3    H123789   0.627   2.827  11.541  1.0829 -1.1120  0.8650
  766TIP3    H223790   0.668   2.784  11.680  0.4698  0.3685  1.5211
  767TIP3   OH223791   4.405   3.410   0.633  0.1761  0.6003  0.2507
  767TIP3    H123792   4.365   3.445   0.554 -0.4374 -0.7046 -0.0523
  767TIP3    H223793   4.424   3.318   0.612  1.4837  0.6474  1.0874
  768TIP3   OH223794   3.399   2.731   0.505 -0.0719  0.5530 -0.1787
  768TIP3    H123795   3.353   2.801   0.459 -0.6581  0.9938  1.0336
  768TIP3    H223796   3.380   2.747   0.597 -0.4194 -1.3208  0.1199
  769TIP3   OH223797   0.295   6.440   1.005 -0.2943  0.2498 -0.1104
  769TIP3    H123798   0.381   6.435   1.046 -0.8854  0.1408  1.1744
  769TIP3    H223799   0.299   6.375   0.934  0.9222  0.8130 -0.5911
  770TIP3   OH223800   4.073   3.131   1.893 -0.5060  0.3362  0.5980
  770TIP3    H123801   4.122   3.205   1.930  0.1020  0.4244 -0.3558
  770TIP3    H223802   3.985   3.165   1.879  0.4912  1.9993 -2.8422
  771TIP3   OH223803   1.883   0.259  16.017 -0.1460  0.2313  0.1017
  771TIP3    H123804   1.847   0.257  15.928  1.6180 -0.7268 -0.6498
  771TIP3    H223805   1.809   0.237  16.073 -1.6942  2.4189 -0.9440
  772TIP3   OH223806   5.272   0.739  12.645  0.5271 -0.3912 -0.3423
  772TIP3    H123807   5.191   0.768  12.604 -0.2550  0.3756  1.6027
  772TIP3    H223808   5.316   0.820  12.671 -1.4034 -0.5594  4.6382
  773TIP3   OH223809   6.368   5.986   5.723  0.3277 -0.6488  0.8020
  773TIP3    H123810   6.274   5.971   5.714  0.2420  0.6284 -0.8304
  773TIP3    H223811   6.384   5.981   5.817 -1.3272 -1.0466  1.0925
  774TIP3   OH223812   0.033   4.882  16.613 -0.1988  0.1925  0.2744
  774TIP3    H123813   0.080   4.806  16.648  0.0035 -0.7837 -1.9732
  774TIP3    H223814   0.083   4.909  16.537  0.1378  3.1168  1.3891
  775TIP3   OH223815   6.698   4.403  13.167 -0.0998 -0.3797 -0.2916
  775TIP3    H123816   6.731   4.397  13.077  1.5361  0.5064  0.2021
  775TIP3    H223817   6.603   4.404  13.158 -0.0173  2.7315 -2.2830
  776TIP3   OH223818   2.261   3.846   5.689  0.6781  0.1037  0.4351
  776TIP3    H123819   2.340   3.799   5.661  0.7752 -0.0038  0.8769
  776TIP3    H223820   2.285   3.885   5.773  1.0367  2.0317 -0.4896
  777TIP3   OH223821   1.194   0.856   4.930  0.6547 -0.7269  0.0520
  777TIP3    H123822   1.128   0.913   4.968  0.4047 -0.9258 -0.0833
  777TIP3    H223823   1.209   0.789   4.997  2.0926  0.3579  0.8845
  778TIP3   OH223824   3.512   1.256   3.259 -0.1454 -0.2273  0.2869
  778TIP3    H123825   3.503   1.231   3.167 -1.8700 -0.6925  0.5454
  778TIP3    H223826   3.604   1.282   3.267  0.7436 -2.5928 -0.9657
  779TIP3   OH223827   5.209   0.141   5.205 -0.6030 -0.0184  0.4627
  779TIP3    H123828   5.222   0.198   5.281 -1.5598 -0.8629  1.2927
  779TIP3    H223829   5.114   0.133   5.197 -0.5931  1.2233 -1.7475
  780TIP3   OH223830   1.697   5.700   5.508  0.4425  0.3160 -0.7088
  780TIP3    H123831   1.665   5.612   5.526  0.0578  0.6361  0.2401
  780TIP3    H223832   1.643   5.730   5.435  0.7577 -0.3307 -1.2117
  781TIP3   OH223833   0.011   1.100  14.730 -0.2857 -0.3006 -0.2064
  781TIP3    H123834  -0.068   1.090  14.678 -0.5950 -2.8482  0.6328
  781TIP3    H223835   0.082   1.076  14.670 -0.2802  0.4181 -0.4968
  782TIP3   OH223836   6.690   4.034   1.660 -0.5958 -0.0722  0.4149
  782TIP3    H123837   6.704   3.951   1.614  2.5490  0.5270  0.0590
  782TIP3    H223838   6.694   4.101   1.591 -0.8097  0.5211  0.9673
  783TIP3   OH223839   2.259   3.625  15.555 -0.0167 -0.1800  0.0728
  783TIP3    H123840   2.343   3.617  15.510 -1.0242 -0.3333 -1.8611
  783TIP3    H223841   2.199   3.659  15.489 -1.2315  1.0993  1.7430
  784TIP3   OH223842   5.490   2.962  16.091  0.2227  0.0991 -0.5129
  784TIP3    H123843   5.456   3.033  16.145  0.2390 -0.6350  0.4820
  784TIP3    H223844   5.570   2.934  16.136  0.4221 -0.3078 -1.1046
  785TIP3   OH223845   0.667   1.136  11.077 -0.1350 -0.0644  0.2697
  785TIP3    H123846   0.684   1.193  11.002  1.1936 -1.7741 -0.8174
  785TIP3    H223847   0.614   1.189  11.137  0.0691  1.8722 -1.1816
  786TIP3   OH223848   4.832   5.548  16.116  0.3663 -0.1405  0.0298
  786TIP3    H123849   4.864   5.469  16.159  0.3616 -0.7786 -1.0939
  786TIP3    H223850   4.738   5.550  16.136  0.3656 -0.4233  0.0598
  787TIP3   OH223851   5.165   1.859  15.811 -0.0988 -0.0010 -0.1954
  787TIP3    H123852   5.248   1.891  15.847  0.5313 -0.2600 -1.3810
  787TIP3    H223853   5.114   1.939  15.794  1.0294  0.3716 -2.0968
  788TIP3   OH223854   3.246   5.692  12.241  0.9259  0.4312 -0.6650
  788TIP3    H123855   3.315   5.632  12.269  0.3245 -2.1364 -4.1074
  788TIP3    H223856   3.164   5.643  12.254  0.1015  1.7548 -0.6707
  789TIP3   OH223857   5.788   2.349  11.778 -0.1764  0.8749  0.4168
  789TIP3    H123858   5.769   2.304  11.696 -0.2078  0.2962  0.7317
  789TIP3    H223859   5.752   2.437  11.767  1.2160  1.3180 -0.7701
  790TIP3   OH223860   5.165   3.126   5.422 -0.1713  1.3303  0.0313
  790TIP3    H123861   5.143   3.174   5.342 -0.6153  0.7972 -0.1728
  790TIP3    H223862   5.204   3.044   5.392 -0.5225  1.0385  0.3587
  791TIP3   OH223863   1.533   5.032  17.197 -0.6410 -0.4455  0.2211
  791TIP3    H123864   1.538   5.120  17.235 -1.0113 -0.3240 -0.0067
  791TIP3    H223865   1.553   4.973  17.270 -1.6114 -0.2285  0.6861
  792TIP3   OH223866   1.161   5.123   4.528  0.0525 -0.0296 -0.0380
  792TIP3    H123867   1.173   5.113   4.433 -0.1112  3.2151 -0.5437
  792TIP3    H223868   1.174   5.217   4.543  0.4918 -0.5128  3.2590
  793TIP3   OH223869   1.609   4.810   4.340  0.0360  0.2361 -0.3992
  793TIP3    H123870   1.570   4.871   4.402  0.7387  0.5053 -0.2201
  793TIP3    H223871   1.564   4.827   4.257  0.6839  1.4552 -0.5103
  794TIP3   OH223872   3.784   4.569   4.873  0.1532 -0.5202 -0.3667
  794TIP3    H123873   3.825   4.602   4.793  1.0176 -0.4386  0.0976
  794TIP3    H223874   3.842   4.500   4.904 -1.2924 -2.0705 -0.9540
  795TIP3   OH223875   3.982   5.967   3.495  0.4083 -0.2509 -0.0396
  795TIP3    H123876   3.981   5.892   3.556  0.2883  0.3584  0.7265
  795TIP3    H223877   3.968   6.043   3.551  0.9203  0.3849 -0.7633
  796TIP3   OH223878   3.798   5.999   4.537  0.0888  0.2541 -0.5545
  796TIP3    H123879   3.850   5.924   4.509  0.3372  0.8002 -1.6071
  796TIP3    H223880   3.732   5.962   4.596  0.8059 -0.6381 -0.2843
  797TIP3   OH223881   2.189   3.574  14.170 -0.5096 -0.1186  0.0353
  797TIP3    H123882   2.236   3.649  14.134 -0.3344  0.0843  0.6828
  797TIP3    H223883   2.167   3.599  14.259  0.1378 -1.0859  0.4886
  798TIP3   OH223884   5.595   0.443  12.461  0.1566  0.3742  0.1598
  798TIP3    H123885   5.687   0.460  12.441  0.9119 -2.6514  0.5915
  798TIP3    H223886   5.572   0.508  12.527  2.7101 -0.2612  1.7724
  799TIP3   OH223887   4.769   6.099   3.492 -0.2833 -0.3392  0.1058
  799TIP3    H123888   4.797   6.191   3.489 -0.5333 -0.2792 -0.9359
  799TIP3    H223889   4.838   6.054   3.541  0.9437  0.0386 -1.2153
  800TIP3   OH223890   6.530   0.215  13.158  0.1759  0.5579  0.2186
  800TIP3    H123891   6.463   0.201  13.091 -0.3280 -1.6524  1.0858
  800TIP3    H223892   6.597   0.267  13.115 -1.1808  1.1477 -1.2797
  801TIP3   OH223893   2.470   6.515  11.066  0.2069 -0.3885  0.2486
  801TIP3    H123894   2.413   6.589  11.048 -0.3841 -0.3095  2.1694
  801TIP3    H223895   2.556   6.554  11.079  0.4842 -0.3732 -1.4364
  802TIP3   OH223896   5.902   1.924   2.590  0.2378  0.2057  0.3076
  802TIP3    H123897   5.946   2.001   2.555  0.0358  0.8868  1.4909
  802TIP3    H223898   5.884   1.946   2.682 -2.7750  0.0993 -0.1518
  803TIP3   OH223899   6.286   6.018   4.164 -0.3040  0.1914 -0.1761
  803TIP3    H123900   6.290   6.056   4.252 -0.3040  0.8020 -0.4305
  803TIP3    H223901   6.267   5.925   4.178  0.5218  0.1158  0.4979
  804TIP3   OH223902   0.160   3.390  10.446 -0.0474 -0.1487 -0.1950
  804TIP3    H123903   0.121   3.357  10.365  1.3706 -1.1235 -0.5153
  804TIP3    H223904   0.122   3.336  10.515 -0.5589  0.0686 -0.2992
  805TIP3   OH223905   1.407   3.293  12.031 -0.4624  0.0172 -0.4532
  805TIP3    H123906   1.337   3.355  12.054  0.0856  0.7817 -0.8132
  805TIP3    H223907   1.479   3.348  12.002  0.1763 -0.7829 -0.4155
  806TIP3   OH223908   4.589   1.127   6.684 -0.7981  0.0977 -0.0071
  806TIP3    H123909   4.591   1.203   6.626 -1.7820 -0.7921 -1.2573
  806TIP3    H223910   4.497   1.118   6.708 -0.2953  1.0711  2.6270
  807TIP3   OH223911   2.948   0.046  13.365 -0.1432 -0.2856 -0.0663
  807TIP3    H123912   2.880   0.044  13.296  1.0069 -1.7638 -1.2288
  807TIP3    H223913   2.899   0.047  13.447 -1.5840 -0.7943 -0.8833
  808TIP3   OH223914   5.916   6.733  16.937  0.0684  0.0637  0.3102
  808TIP3    H123915   5.842   6.766  16.988  0.9371  0.2366  1.5115
  808TIP3    H223916   5.980   6.705  17.003 -0.0456 -2.7623 -0.6611
  809TIP3   OH223917   5.900   0.745   0.537 -0.7244 -0.1238 -0.3462
  809TIP3    H123918   5.942   0.768   0.619 -1.4170  0.0484 -0.0343
  809TIP3    H223919   5.837   0.676   0.560  0.2713 -1.2960 -1.0193
  810TIP3   OH223920   0.410   0.230   3.807  0.3833  0.2256 -0.0546
  810TIP3    H123921   0.362   0.155   3.842  1.2951 -0.7771 -0.9124
  810TIP3    H223922   0.370   0.247   3.722  0.7250  0.1900 -0.2237
  811TIP3   OH223923   5.918   0.735   1.463  0.7665 -0.0070 -0.1588
  811TIP3    H123924   5.837   0.719   1.413  0.3335  0.0184  0.5267
  811TIP3    H223925   5.976   0.778   1.400  0.3484 -0.2712 -0.7422
  812TIP3   OH223926   3.657   2.805  14.581  0.7870  0.4339 -0.0806
  812TIP3    H123927   3.615   2.866  14.521  0.1950 -0.5950 -0.7342
  812TIP3    H223928   3.674   2.727  14.528 -0.7658 -0.9263  1.3321
  813TIP3   OH223929   5.422   1.350   2.563  0.1264 -0.4609 -0.1370
  813TIP3    H123930   5.477   1.375   2.637  0.9502  1.2141 -1.2441
  813TIP3    H223931   5.343   1.314   2.603  1.6382 -2.1972  1.5105
  814TIP3   OH223932   5.128   5.834  13.329 -0.0538 -0.2709 -0.6201
  814TIP3    H123933   5.202   5.892  13.345 -1.1446  1.0201 -0.0287
  814TIP3    H223934   5.093   5.816  13.417 -0.3609 -0.9731 -0.8829
  815TIP3   OH223935   0.979   5.902  11.283  0.0447 -0.0194  0.2309
  815TIP3    H123936   0.972   5.824  11.229 -0.2402  1.1771 -1.5330
  815TIP3    H223937   0.890   5.915  11.318 -0.0879 -0.0791 -0.0792
  816TIP3   OH223938   2.102   1.773   1.912 -0.0647 -0.1858  0.2285
  816TIP3    H123939   2.195   1.792   1.901 -0.2728  0.2879 -0.9356
  816TIP3    H223940   2.072   1.834   1.978  0.4000 -0.1666  0.4228
  817TIP3   OH223941   0.237   4.074  15.512  0.4237 -0.0878 -0.3839
  817TIP3    H123942   0.230   4.056  15.419  1.1122  0.2207 -0.5043
  817TIP3    H223943   0.330   4.061  15.532  0.0150 -1.8550  0.6104
  818TIP3   OH223944   0.275   6.494  12.251 -1.0509  0.1515  0.4127
  818TIP3    H123945   0.193   6.472  12.297 -1.3429 -0.2837 -0.3118
  818TIP3    H223946   0.247   6.552  12.180 -0.3699  2.5070  1.9465
  819TIP3   OH223947   4.458   4.059  14.345 -0.5085  0.4064 -0.1507
  819TIP3    H123948   4.550   4.085  14.347 -0.8342  1.6459 -0.2599
  819TIP3    H223949   4.426   4.092  14.261 -1.2787  0.8208  0.2991
  820TIP3   OH223950   1.075   6.347  10.436 -0.6237 -0.0814 -0.3210
  820TIP3    H123951   1.137   6.418  10.418 -0.0071  0.0518  1.9253
  820TIP3    H223952   1.109   6.273  10.387  1.3932 -0.0033  0.8214
  821TIP3   OH223953   1.145   3.708   5.119 -0.7898 -0.3689  0.1096
  821TIP3    H123954   1.182   3.645   5.181 -0.1994  0.1622  0.3103
  821TIP3    H223955   1.170   3.674   5.033  1.2207  0.5637  0.2588
  822TIP3   OH223956   5.871   5.245  12.593 -0.3113  0.3789 -0.0692
  822TIP3    H123957   5.920   5.319  12.628 -0.5326  0.0156  1.0453
  822TIP3    H223958   5.929   5.170  12.605 -0.6787  0.1334  0.1866
  823TIP3   OH223959   2.895   0.823   5.192 -0.3936  0.1907  0.0206
  823TIP3    H123960   2.898   0.831   5.287  1.9096  1.9814 -0.1141
  823TIP3    H223961   2.822   0.878   5.165  0.5285  1.7966  0.6618
  824TIP3   OH223962   2.206   0.142  13.161  0.5025  0.3978 -0.0502
  824TIP3    H123963   2.295   0.107  13.160 -0.0877 -1.1745 -0.1064
  824TIP3    H223964   2.171   0.115  13.246 -0.2192  0.2103 -0.3999
  825TIP3   OH223965   0.091   0.054  13.077  0.1446 -0.1104  0.0692
  825TIP3    H123966   0.115   0.124  13.017 -2.2677  1.5741  0.9136
  825TIP3    H223967   0.070  -0.020  13.019  0.9809  0.4215 -0.9521
  826TIP3   OH223968   6.309   3.375   1.954  0.0422 -0.4287  0.6182
  826TIP3    H123969   6.227   3.424   1.959  0.2936 -0.1430  2.4094
  826TIP3    H223970   6.377   3.441   1.969  0.5208 -0.9048  0.5477
  827TIP3   OH223971   1.008   2.156  13.572 -0.5192 -0.0156  0.1583
  827TIP3    H123972   0.967   2.242  13.562 -1.1579 -0.5015 -1.9712
  827TIP3    H223973   1.031   2.151  13.664 -1.1238  2.1397  0.4881
  828TIP3   OH223974   3.645   3.979   0.975 -0.3510 -0.4720 -0.1260
  828TIP3    H123975   3.676   3.889   0.982  0.1799 -0.2875 -0.0438
  828TIP3    H223976   3.586   3.989   1.049  0.7672 -0.2979  0.7818
  829TIP3   OH223977   4.996   1.945  12.972  0.5341 -0.5676 -0.7299
  829TIP3    H123978   5.042   1.971  13.052  0.3218  0.0392 -0.7984
  829TIP3    H223979   4.903   1.956  12.993  0.4930  3.3754 -2.2253
  830TIP3   OH223980   0.623   3.997  12.672 -0.4959  0.5716 -0.1789
  830TIP3    H123981   0.538   4.040  12.671 -0.0526  1.6110  1.8145
  830TIP3    H223982   0.684   4.064  12.704  0.9648 -0.3290 -0.9406
  831TIP3   OH223983   1.973   4.330  10.980 -0.3770 -0.5371 -0.4445
  831TIP3    H123984   1.937   4.412  11.014  1.3394 -0.2525  0.8425
  831TIP3    H223985   1.930   4.318  10.895 -1.6617  0.9743 -0.0557
  832TIP3   OH223986   3.895   1.977  11.132  0.7041 -0.4666 -0.1290
  832TIP3    H123987   3.916   1.951  11.042  0.9198 -0.6888 -0.0160
  832TIP3    H223988   3.912   1.898  11.184 -3.3791 -1.7629 -0.4105
  833TIP3   OH223989   3.105   1.832   5.971  0.0727 -0.1026  0.5114
  833TIP3    H123990   3.056   1.851   6.051  0.6944  1.1842  0.6135
  833TIP3    H223991   3.114   1.737   5.970 -1.2281 -0.2452  1.1910
  834TIP3   OH223992   1.219   3.202   1.829 -0.4450 -0.0227  0.0005
  834TIP3    H123993   1.191   3.157   1.910 -0.8532  0.6943  0.2679
  834TIP3    H223994   1.281   3.142   1.789 -0.0282 -0.2783  0.9896
  835TIP3   OH223995   3.327   3.780  11.416  0.7636  0.3056 -0.6154
  835TIP3    H123996   3.330   3.687  11.442 -0.3590  0.0235 -1.4268
  835TIP3    H223997   3.411   3.796  11.375  0.9538 -0.3707 -0.5051
  836TIP3   OH223998   6.815   4.152  14.126 -0.5922 -0.3671  0.0169
  836TIP3    H123999   6.820   4.173  14.033  0.1877 -2.0076 -0.3419
  836TIP3    H224000   6.890   4.197  14.165 -1.0110  0.4549 -0.0843
  837TIP3   OH224001   5.745   4.687  12.484 -0.2602 -0.1580  0.4600
  837TIP3    H124002   5.718   4.776  12.507 -0.9674 -0.3524  0.4139
  837TIP3    H224003   5.701   4.669  12.401  0.3319 -0.3489  0.1832
  838TIP3   OH224004   0.668   5.159  14.325 -0.2317  0.0517 -0.4717
  838TIP3    H124005   0.738   5.208  14.367  0.4463 -0.6282 -0.7791
  838TIP3    H224006   0.603   5.146  14.394 -0.5922  1.6473 -0.4703
  839TIP3   OH224007   4.829   4.716   4.524 -0.0031 -0.4651 -0.3822
  839TIP3    H124008   4.838   4.652   4.453 -0.4322 -0.8102 -0.1312
  839TIP3    H224009   4.832   4.663   4.604 -0.6984 -0.2161 -0.1834
  840TIP3   OH224010   1.299   1.697  10.821  0.0109  0.3588 -0.2120
  840TIP3    H124011   1.395   1.692  10.821 -0.0151 -0.2567 -1.3642
  840TIP3    H224012   1.270   1.607  10.837 -0.3897  0.5895  0.4121
  841TIP3   OH224013   1.953   1.409  13.176  0.2862 -0.0108  0.8693
  841TIP3    H124014   1.885   1.349  13.206  1.0515  0.3051  3.4962
  841TIP3    H224015   1.925   1.495  13.208 -1.2571  1.4049 -3.6021
  842TIP3   OH224016   6.487   2.036  16.674 -0.3108  0.3112  0.4280
  842TIP3    H124017   6.560   2.053  16.734  0.5161 -0.0761 -0.4431
  842TIP3    H224018   6.436   2.117  16.677 -0.6666  0.0787  2.1240
  843TIP3   OH224019   6.384   2.272   5.197 -0.3466  0.1963  0.2318
  843TIP3    H124020   6.468   2.231   5.219  0.5285  2.4134  1.3297
  843TIP3    H224021   6.318   2.216   5.238  0.8959  0.7492  3.2707
  844TIP3   OH224022   4.229   0.876   4.947  0.0218  0.6054 -0.3443
  844TIP3    H124023   4.142   0.837   4.947 -0.1114  0.8995 -0.6198
  844TIP3    H224024   4.242   0.906   4.857  0.2689  0.8723 -0.2200
  845TIP3   OH224025   3.220   2.979  15.548  0.6648  0.0681 -0.2581
  845TIP3    H124026   3.130   2.994  15.521  0.8789 -0.5368 -1.3692
  845TIP3    H224027   3.235   2.886  15.533  1.1895 -0.0393  0.8114
  846TIP3   OH224028   4.258   3.122  15.327 -0.0232 -0.0987 -0.2884
  846TIP3    H124029   4.321   3.190  15.304  0.2219 -0.1533  0.2112
  846TIP3    H224030   4.221   3.094  15.243 -2.3053  2.6680 -0.3678
  847TIP3   OH224031   1.250   4.513  13.646 -0.0910 -0.2365 -0.4066
  847TIP3    H124032   1.324   4.458  13.673 -0.4520 -0.4370  0.2078
  847TIP3    H224033   1.279   4.553  13.564  1.5380  1.3369  0.8464
  848TIP3   OH224034   0.602   0.402  14.086  0.0957  0.3383  0.3333
  848TIP3    H124035   0.593   0.344  14.011  0.9303  0.1066  0.3961
  848TIP3    H224036   0.604   0.344  14.162 -0.7418  0.5721  0.5431
  849TIP3   OH224037   2.833   0.481   2.119  0.3525  0.0582 -0.1045
  849TIP3    H124038   2.896   0.523   2.061  0.8588  0.8844  1.0178
  849TIP3    H224039   2.748   0.497   2.078  0.7910 -0.4543 -1.2536
  850TIP3   OH224040   2.969   6.062  14.112 -0.1810  0.5705  0.0022
  850TIP3    H124041   2.923   5.985  14.146 -1.5281  0.2336 -2.3388
  850TIP3    H224042   2.905   6.133  14.122  0.1310  0.8662 -0.0967
  851TIP3   OH224043   4.989   0.681   0.704  0.0773  0.6155 -0.4414
  851TIP3    H124044   4.942   0.690   0.622 -0.1710 -1.0837 -0.5230
  851TIP3    H224045   5.081   0.696   0.681  0.4785 -2.8955 -1.7621
  852TIP3   OH224046   3.533   0.244  13.749 -0.1079 -0.1123  0.1575
  852TIP3    H124047   3.481   0.292  13.684 -0.3392  1.0046  1.1398
  852TIP3    H224048   3.566   0.312  13.808  1.1629 -0.9752  0.4739
  853TIP3   OH224049   6.222   3.124  12.930 -0.0162  0.1881 -0.2323
  853TIP3    H124050   6.164   3.052  12.904  0.5358 -0.2418 -0.2845
  853TIP3    H224051   6.165   3.201  12.928 -0.2870 -0.0086 -1.6076
  854TIP3   OH224052   3.346   2.618  12.010  0.5699  0.0741  0.6967
  854TIP3    H124053   3.281   2.560  12.048 -0.7827 -0.2567 -1.8983
  854TIP3    H224054   3.391   2.656  12.085 -0.6771 -1.8480  2.5332
  855TIP3   OH224055   3.168   1.498  12.772 -0.4917 -0.2185 -0.1409
  855TIP3    H124056   3.220   1.427  12.737  0.9806  0.4686  0.5711
  855TIP3    H224057   3.139   1.467  12.858 -0.8727 -0.4263 -0.3446
  856TIP3   OH224058   4.292   2.822  16.185  0.5284  0.2382 -0.0773
  856TIP3    H124059   4.277   2.917  16.194  0.4651  0.1149  1.3432
  856TIP3    H224060   4.236   2.796  16.112 -0.7500  1.0254  0.5819
  857TIP3   OH224061   0.313   4.837  15.744  0.5155  0.3004  0.1256
  857TIP3    H124062   0.245   4.900  15.766  1.6464  2.6049 -2.3429
  857TIP3    H224063   0.267   4.754  15.731 -1.1452  0.7264  2.6664
  858TIP3   OH224064   2.172   6.096  11.757  0.1287 -0.2718 -0.0619
  858TIP3    H124065   2.250   6.149  11.738 -0.0677 -0.6043 -1.9757
  858TIP3    H224066   2.099   6.156  11.743 -0.0252 -0.4418  0.0095
  859TIP3   OH224067   3.362   5.742   1.352 -0.0936  0.1109  0.4174
  859TIP3    H124068   3.278   5.786   1.366  0.3547  0.5875  1.8249
  859TIP3    H224069   3.339   5.660   1.308 -1.4319 -0.2839  1.7563
  860TIP3   OH224070   5.426   3.147  13.485  0.4047  0.6445 -0.7027
  860TIP3    H124071   5.422   3.079  13.553 -0.3490 -0.1872 -1.5423
  860TIP3    H224072   5.377   3.221  13.522 -1.9686 -0.5957 -1.1654
  861TIP3   OH224073   0.389   2.467   5.823 -0.4470 -0.4034 -0.0206
  861TIP3    H124074   0.389   2.371   5.824  1.3182 -0.4767 -1.1450
  861TIP3    H224075   0.332   2.493   5.895 -0.5786 -2.2945  0.5960
  862TIP3   OH224076   1.593   1.746  13.387 -0.3200 -0.2043  0.3528
  862TIP3    H124077   1.564   1.781  13.471  0.2499  1.4025 -0.0799
  862TIP3    H224078   1.524   1.772  13.326 -0.1191 -0.2456  0.1067
  863TIP3   OH224079   0.965   3.017  12.298 -0.0595 -0.2419 -0.4251
  863TIP3    H124080   1.015   2.951  12.345  0.4168  0.1104 -0.4357
  863TIP3    H224081   0.876   3.010  12.334 -0.3846 -1.8929 -1.4604
  864TIP3   OH224082   4.755   1.563  16.918  0.1063 -0.0603 -0.0031
  864TIP3    H124083   4.751   1.468  16.905  0.7547 -0.0163 -0.5371
  864TIP3    H224084   4.804   1.595  16.843  0.3389  0.6458  0.4512
  865TIP3   OH224085   3.936   6.761  11.326 -0.3320  0.4450  0.6368
  865TIP3    H124086   4.004   6.707  11.365 -1.4717 -0.3127  1.6562
  865TIP3    H224087   3.925   6.725  11.238 -2.8143 -2.8741  2.0509
  866TIP3   OH224088   3.276   5.107   2.113 -0.6728 -0.5305  0.2973
  866TIP3    H124089   3.243   5.071   2.031 -1.0841  0.3307  0.0776
  866TIP3    H224090   3.315   5.191   2.089 -3.6972  1.3379  1.3964
  867TIP3   OH224091   2.297   3.389   4.825 -0.0282  0.0065 -0.7221
  867TIP3    H124092   2.257   3.475   4.819  0.0675 -0.0124 -2.2344
  867TIP3    H224093   2.380   3.398   4.779 -0.3417 -1.0476 -1.5624
  868TIP3   OH224094   5.130   5.515  11.152  0.1493  0.3926  0.5964
  868TIP3    H124095   5.122   5.427  11.190  3.2151 -0.7130 -1.0010
  868TIP3    H224096   5.047   5.528  11.105 -0.4956 -1.5054  1.0979
  869TIP3   OH224097   1.152   5.891   6.521  0.4251 -0.2547 -0.3031
  869TIP3    H124098   1.175   5.930   6.605  0.5155 -1.5703  0.3139
  869TIP3    H224099   1.059   5.908   6.510  0.5089  0.3016 -0.1437
  870TIP3   OH224100   1.603   5.507  12.308 -0.0724  0.0787  0.5228
  870TIP3    H124101   1.528   5.452  12.331 -0.7193  1.1033  0.9061
  870TIP3    H224102   1.654   5.511  12.389 -1.0581  1.6343  1.1183
  871TIP3   OH224103   3.101   6.506  16.323  0.0218  0.4872  0.5177
  871TIP3    H124104   3.073   6.537  16.409 -1.7022 -1.5408  0.7659
  871TIP3    H224105   3.124   6.414  16.337  2.9454  0.9583 -0.5773
  872TIP3   OH224106   1.294   3.125  14.390 -0.1858 -0.6014  0.3526
  872TIP3    H124107   1.280   3.190  14.458 -0.4975 -2.6145  2.3355
  872TIP3    H224108   1.361   3.067  14.425 -1.2558 -2.4406 -0.4403
  873TIP3   OH224109   4.830   0.964  16.560  0.1643 -0.7601 -0.1968
  873TIP3    H124110   4.839   0.912  16.480  2.0875 -1.9153  0.7084
  873TIP3    H224111   4.818   0.900  16.630  0.2455  0.1350  0.6668
  874TIP3   OH224112   5.409   3.605  15.881  0.0819  0.4216 -1.1219
  874TIP3    H124113   5.382   3.516  15.860  1.0239 -0.4341  0.9846
  874TIP3    H224114   5.503   3.599  15.897 -0.4102  0.8477  2.9943
  875TIP3   OH224115   1.288   4.483  12.536 -0.0829  0.3525  0.3047
  875TIP3    H124116   1.380   4.457  12.544 -0.0696  0.4666  0.5253
  875TIP3    H224117   1.243   4.436  12.606 -0.2349  0.1069  0.0440
  876TIP3   OH224118   4.926   0.004   0.215  0.2268 -0.2260 -0.3640
  876TIP3    H124119   4.848   0.059   0.215 -0.2613 -0.8946 -1.0189
  876TIP3    H224120   4.958   0.007   0.125  0.3502 -0.7959 -0.3416
  877TIP3   OH224121   2.970   3.616  15.475 -0.4890  0.0645 -0.0685
  877TIP3    H124122   2.971   3.597  15.382  1.4525  0.8773 -0.2725
  877TIP3    H224123   2.966   3.530  15.517 -0.3803 -0.3601 -0.9101
  878TIP3   OH224124   6.265   2.735  15.269 -0.1598  0.2106 -0.2812
  878TIP3    H124125   6.225   2.775  15.347 -0.6385 -1.0936  0.1804
  878TIP3    H224126   6.354   2.714  15.295 -0.2687 -0.0709 -0.1264
  879TIP3   OH224127   1.285   5.664   3.860 -0.2286  0.2026 -0.2396
  879TIP3    H124128   1.263   5.589   3.804 -0.8079  0.1010  0.1116
  879TIP3    H224129   1.202   5.687   3.902  0.2501  0.1080  0.7859
  880TIP3   OH224130   6.711   5.188  16.580 -0.3163  0.3352 -0.1272
  880TIP3    H124131   6.712   5.246  16.656 -0.0960 -0.1930  0.2749
  880TIP3    H224132   6.693   5.246  16.506  0.5715  1.0265  0.1828
  881TIP3   OH224133   4.238   5.328   1.951 -0.9096 -0.2047 -0.4329
  881TIP3    H124134   4.236   5.332   1.855 -2.3116  1.5680 -0.3944
  881TIP3    H224135   4.147   5.312   1.976 -2.0269  5.5452  0.5988
  882TIP3   OH224136   3.615   6.097  14.797 -0.0288 -0.1826  0.4815
  882TIP3    H124137   3.578   6.144  14.722 -2.0451 -1.1307  0.7957
  882TIP3    H224138   3.677   6.035  14.759  0.4337  0.6837 -0.2054
  883TIP3   OH224139   4.744   1.951   5.058  0.2155  0.0110  0.1983
  883TIP3    H124140   4.742   1.855   5.052 -1.9887 -0.0580  1.2155
  883TIP3    H224141   4.775   1.968   5.147  0.4149  0.2582  0.0834
  884TIP3   OH224142   5.223   1.380   3.075  0.1308  0.1052  0.3815
  884TIP3    H124143   5.215   1.471   3.048 -1.1173  0.3467  1.4759
  884TIP3    H224144   5.292   1.344   3.019  0.9899  1.8421  0.2654
  885TIP3   OH224145   1.776   2.696   1.119 -0.6470  0.4637 -0.2988
  885TIP3    H124146   1.763   2.630   1.051 -0.6766  0.5886 -0.4161
  885TIP3    H224147   1.872   2.704   1.126 -0.5203 -1.5827  1.6612
  886TIP3   OH224148   2.017   6.355   6.443 -0.1134  0.6838  0.8338
  886TIP3    H124149   1.957   6.418   6.403  0.0775  1.1306  1.2482
  886TIP3    H224150   2.104   6.385   6.416 -0.0265  0.5349  0.9494
  887TIP3   OH224151   4.222   1.779   6.666 -0.0653  0.3396  0.2576
  887TIP3    H124152   4.304   1.783   6.715 -0.3739 -0.9694  0.9374
  887TIP3    H224153   4.216   1.688   6.637 -1.7955  0.1200  1.1606
  888TIP3   OH224154   2.881   1.082   5.622  0.6480 -0.5403 -0.1144
  888TIP3    H124155   2.822   1.077   5.697 -0.7270 -0.8049 -1.1762
  888TIP3    H224156   2.826   1.114   5.550  2.0379  0.1644 -0.9169
  889TIP3   OH224157   4.014   2.694   6.390 -0.4868 -0.4392 -0.5894
  889TIP3    H124158   4.074   2.730   6.325 -0.6236 -0.5842 -0.7961
  889TIP3    H224159   3.928   2.697   6.348 -0.7539  0.4782 -0.0136
  890TIP3   OH224160   1.387   5.738   1.039 -0.8782  0.0111  0.3444
  890TIP3    H124161   1.465   5.776   1.080 -0.2746 -1.3541  0.5352
  890TIP3    H224162   1.316   5.797   1.062  0.0754  1.2164  0.2772
  891TIP3   OH224163   1.400   0.848   4.752 -0.7061 -0.3514  0.3596
  891TIP3    H124164   1.336   0.860   4.823  0.3265  3.0463  0.8675
  891TIP3    H224165   1.391   0.926   4.698  3.6437  0.8765  1.0704
  892TIP3   OH224166   2.892   5.942  16.160 -0.0865  0.1786 -0.2156
  892TIP3    H124167   2.914   5.854  16.129  0.9799  0.4069 -0.1484
  892TIP3    H224168   2.840   5.927  16.239  0.0422 -0.3940 -0.2309
  893TIP3   OH224169   0.460   0.853   4.831  0.0609  0.5438  0.0280
  893TIP3    H124170   0.393   0.826   4.768 -1.2890  1.9736  0.7602
  893TIP3    H224171   0.505   0.772   4.855 -2.2690 -0.7174  0.4649
  894TIP3   OH224172   6.435   5.673  10.893  0.8943  0.5589  0.2686
  894TIP3    H124173   6.513   5.648  10.844  1.4500  1.1288  0.8353
  894TIP3    H224174   6.441   5.768  10.900 -0.1627  0.6683 -0.1857
  895TIP3   OH224175   3.086   3.891  12.089 -0.3171  0.3395  0.7179
  895TIP3    H124176   3.177   3.863  12.099 -1.1177 -2.9369  0.3013
  895TIP3    H224177   3.058   3.851  12.006 -1.8769  2.1435  0.3047
  896TIP3   OH224178   1.684   5.637   4.927  0.1541 -0.1320  0.2221
  896TIP3    H124179   1.680   5.731   4.942 -0.6755 -0.0962 -0.1526
  896TIP3    H224180   1.770   5.622   4.890 -0.3018  0.7200 -1.2557
  897TIP3   OH224181   5.943   4.279   6.702 -0.6553  0.2319 -0.1937
  897TIP3    H124182   5.926   4.373   6.695  0.4550  0.4565 -0.0482
  897TIP3    H224183   5.933   4.246   6.613 -0.7161  0.5480 -0.3053
  898TIP3   OH224184   4.763   4.873  11.042  0.1423  0.0851  0.3219
  898TIP3    H124185   4.720   4.890  11.126  0.9367  0.5256  0.6553
  898TIP3    H224186   4.728   4.789  11.014 -0.7488  0.3231  0.6931
  899TIP3   OH224187   4.507   1.942  14.125 -0.4885  0.2083 -0.2703
  899TIP3    H124188   4.597   1.972  14.119 -0.7739  1.2908  0.6649
  899TIP3    H224189   4.493   1.923  14.217 -1.0720 -0.4586 -0.4820
  900TIP3   OH224190   3.973   2.252   5.484 -0.1104  0.0319 -0.6095
  900TIP3    H124191   3.949   2.165   5.451  1.2768 -0.3677 -0.6498
  900TIP3    H224192   4.028   2.233   5.561 -1.6693  0.9215  0.7960
  901TIP3   OH224193   4.914   2.143  11.128  0.3194 -0.1436  0.5206
  901TIP3    H124194   4.842   2.098  11.085  1.2859 -0.8655 -0.3917
  901TIP3    H224195   4.877   2.228  11.154 -0.1841  0.6225 -2.3297
  902TIP3   OH224196   3.392   6.570   2.231  0.4393  0.7880  0.2108
  902TIP3    H124197   3.376   6.539   2.320  1.5783 -0.9361 -0.1243
  902TIP3    H224198   3.444   6.649   2.242 -2.6981  2.9194  1.1168
  903TIP3   OH224199   1.376   4.930   1.747 -0.1481 -0.6063 -0.1442
  903TIP3    H124200   1.364   4.992   1.675  1.0096 -1.6055 -1.2484
  903TIP3    H224201   1.370   4.984   1.826 -1.1620  0.5628 -0.9738
  904TIP3   OH224202   5.563   3.922  11.469 -0.1316  0.2089 -0.2067
  904TIP3    H124203   5.634   3.870  11.506 -0.1300  0.6832  0.4808
  904TIP3    H224204   5.589   4.013  11.485 -1.5960  0.3935  1.4854
  905TIP3   OH224205   4.381   3.067   5.882  0.4110  0.2554 -0.0219
  905TIP3    H124206   4.446   3.135   5.865  1.1293 -0.1039  1.1821
  905TIP3    H224207   4.432   2.987   5.896 -0.2990 -0.0744  0.7682
  906TIP3   OH224208   2.166   0.810  11.105 -0.1179  0.1472 -0.3953
  906TIP3    H124209   2.257   0.838  11.109 -0.6169  1.8282  0.2480
  906TIP3    H224210   2.169   0.714  11.106  1.6707  0.1421 -1.7286
  907TIP3   OH224211   6.517   0.211  16.518 -0.1049 -0.1256 -0.7520
  907TIP3    H124212   6.455   0.138  16.513 -2.6898  1.9524 -1.1069
  907TIP3    H224213   6.474   0.275  16.574  2.8967  0.4749  1.0523
  908TIP3   OH224214   3.629   3.394   4.575  0.4718 -0.1475  0.3411
  908TIP3    H124215   3.609   3.382   4.482  1.8523 -3.3261  0.3209
  908TIP3    H224216   3.724   3.405   4.577  0.6680 -1.8079  1.4581
  909TIP3   OH224217   5.805   1.994  12.701  0.0262 -0.1466  0.2269
  909TIP3    H124218   5.819   1.956  12.788  0.4300  0.4091  0.4079
  909TIP3    H224219   5.873   2.060  12.692  0.1716 -0.4038 -0.6395
  910TIP3   OH224220   1.344   4.270  13.265  0.3481  0.3009  0.0813
  910TIP3    H124221   1.315   4.189  13.223  0.3630  0.3699 -0.0596
  910TIP3    H224222   1.387   4.241  13.346  0.2205  0.1768  0.1049
  911TIP3   OH224223   2.587   3.649  16.517  0.3829 -0.3437  0.7024
  911TIP3    H124224   2.499   3.682  16.535  0.4250  0.3729 -0.3147
  911TIP3    H224225   2.629   3.719  16.468  1.4622 -0.7648  0.9958
  912TIP3   OH224226   5.236   5.688   0.653  0.0006  0.5836  0.3215
  912TIP3    H124227   5.171   5.754   0.675 -1.2768 -0.8744  1.1397
  912TIP3    H224228   5.320   5.727   0.679 -0.4651  2.6184 -1.0480
  913TIP3   OH224229   4.397   1.463  10.661  0.2362  0.0960 -0.7373
  913TIP3    H124230   4.462   1.395  10.682 -0.0131  0.0409 -0.1407
  913TIP3    H224231   4.439   1.514  10.591 -0.8466 -2.6289 -3.6675
  914TIP3   OH224232   2.669   4.750   1.463 -0.0942  0.0918 -0.2428
  914TIP3    H124233   2.747   4.798   1.492 -0.0381  0.4091 -0.8777
  914TIP3    H224234   2.608   4.819   1.436 -0.9319 -0.1185  1.0310
  915TIP3   OH224235   3.327   4.409  12.512  0.3793  0.0073 -0.4173
  915TIP3    H124236   3.397   4.358  12.553  0.3003 -0.0401 -0.3417
  915TIP3    H224237   3.283   4.348  12.453 -1.0357 -0.6113  1.1891
  916TIP3   OH224238   1.199   6.341  14.658 -0.2855 -0.0270 -0.7450
  916TIP3    H124239   1.121   6.388  14.628  0.1417 -0.2776 -2.2970
  916TIP3    H224240   1.239   6.306  14.579  1.1771 -0.2901  0.0666
  917TIP3   OH224241   0.459   3.703  15.957 -0.0520  0.3559 -0.0292
  917TIP3    H124242   0.445   3.615  15.923 -1.6086  0.6443 -0.1727
  917TIP3    H224243   0.551   3.703  15.986 -0.6199 -2.0552  2.1231
  918TIP3   OH224244   0.629   2.717  12.340 -0.2752  0.0503  0.4166
  918TIP3    H124245   0.558   2.652  12.342 -1.1957  0.8849 -1.8129
  918TIP3    H224246   0.663   2.712  12.250  0.6895  1.5471  0.6685
  919TIP3   OH224247   5.651   0.357  13.411 -0.1509 -0.7643 -0.3516
  919TIP3    H124248   5.565   0.315  13.421  0.0687 -1.1592 -0.0823
  919TIP3    H224249   5.636   0.427  13.349 -0.1576 -2.3080 -2.1804
  920TIP3   OH224250   1.466   5.436   5.130  0.1897 -0.0308  0.6295
  920TIP3    H124251   1.465   5.357   5.184  0.6435 -0.7890 -0.4414
  920TIP3    H224252   1.523   5.415   5.057  0.0332  1.1717  0.1306
  921TIP3   OH224253   3.282   2.473  12.666 -0.5296  0.2619 -0.0615
  921TIP3    H124254   3.263   2.409  12.598 -1.8499  0.6764 -0.1086
  921TIP3    H224255   3.315   2.421  12.740 -0.0950 -0.2916 -0.6381
  922TIP3   OH224256   0.727   0.924   2.110 -0.4190 -0.5079  0.4171
  922TIP3    H124257   0.703   0.897   2.021  0.3711 -0.2707  0.1298
  922TIP3    H224258   0.818   0.898   2.120  0.0667  1.0946  0.4978
  923TIP3   OH224259   3.732   6.674  11.825  0.3616  0.7230  0.1041
  923TIP3    H124260   3.773   6.602  11.873  1.0639  1.3992  0.5410
  923TIP3    H224261   3.703   6.734  11.894 -2.7108 -0.3732 -0.0628
  924TIP3   OH224262   5.148   0.424  13.394 -0.3661  0.1425 -0.1952
  924TIP3    H124263   5.104   0.417  13.478 -2.2051  0.3201 -1.0977
  924TIP3    H224264   5.136   0.515  13.367  0.2432  0.1023 -0.6398
  925TIP3   OH224265   0.805   2.318  12.174  0.2276 -0.3916 -0.5965
  925TIP3    H124266   0.901   2.315  12.173  0.2142 -1.9074 -0.5583
  925TIP3    H224267   0.780   2.308  12.082  0.1161 -0.5743 -0.5481
  926TIP3   OH224268   1.471   3.431   2.003 -0.8554 -0.0071 -0.1748
  926TIP3    H124269   1.382   3.415   2.033 -1.0794 -0.4602 -1.0670
  926TIP3    H224270   1.461   3.492   1.930 -0.6088 -1.4325 -1.4447
  927TIP3   OH224271   5.993   0.552   2.798  0.1300  0.3263 -0.1102
  927TIP3    H124272   5.912   0.601   2.814 -0.4641 -0.6742  0.0308
  927TIP3    H224273   5.963   0.468   2.764  1.1036 -0.1376  0.1554
  928TIP3   OH224274   3.635   1.026   1.094  0.2374  0.0361 -0.5475
  928TIP3    H124275   3.549   0.988   1.080 -0.0559  1.0891 -1.7917
  928TIP3    H224276   3.621   1.120   1.087  1.5198  0.2115 -1.0333
  929TIP3   OH224277   6.744   2.957   2.677  0.9682 -0.5682 -0.0209
  929TIP3    H124278   6.671   2.974   2.737  1.8239  1.4781  0.5155
  929TIP3    H224279   6.731   3.020   2.605  1.9912 -0.4264 -0.0965
  930TIP3   OH224280   2.261   1.063  14.905  0.2369  0.6239  0.2064
  930TIP3    H124281   2.339   1.055  14.850 -0.7796  0.8017 -1.3302
  930TIP3    H224282   2.294   1.084  14.992  1.9217  0.0075 -0.2621
  931TIP3   OH224283   5.921   6.328  15.043 -0.4787  0.4124  0.4588
  931TIP3    H124284   5.829   6.305  15.061 -0.0168 -2.0091  0.0259
  931TIP3    H224285   5.918   6.421  15.023 -2.5635  0.8734  2.3583
  932TIP3   OH224286   3.662   3.866   6.229  0.2647 -0.1869  0.1014
  932TIP3    H124287   3.680   3.778   6.198 -0.1989 -1.3969  2.9737
  932TIP3    H224288   3.570   3.881   6.207  0.1104 -0.7642  0.3401
  933TIP3   OH224289   3.456   4.920  15.026  0.4963  0.8000 -0.2950
  933TIP3    H124290   3.519   4.868  14.976  0.3240 -1.7586  1.9093
  933TIP3    H224291   3.375   4.869  15.024  0.5897  0.3530  2.7963
  934TIP3   OH224292   1.785   1.443   5.674 -0.1613  0.4033  0.3716
  934TIP3    H124293   1.867   1.413   5.714  0.1492 -0.7370 -1.0542
  934TIP3    H224294   1.799   1.536   5.657  0.3684  0.4944  1.2367
  935TIP3   OH224295   6.777   6.162  16.233  0.6110  0.0615 -0.3628
  935TIP3    H124296   6.786   6.082  16.182  0.0246  0.3329 -0.9089
  935TIP3    H224297   6.684   6.167  16.256  0.8567 -0.0342  0.7122
  936TIP3   OH224298   2.381   4.683  13.083  0.2770  0.0150 -0.3932
  936TIP3    H124299   2.356   4.689  12.990  1.8960 -1.4123 -0.9648
  936TIP3    H224300   2.470   4.717  13.086 -0.4358  1.9744  1.0461
  937TIP3   OH224301   1.929   2.662   4.997  0.2605 -0.4416 -0.3791
  937TIP3    H124302   1.863   2.720   5.034  0.7775  1.1538 -1.8169
  937TIP3    H224303   1.907   2.575   5.032 -0.5170  0.5790  1.8794
  938TIP3   OH224304   3.099   3.639   2.488 -0.5188  0.3836  0.5369
  938TIP3    H124305   3.074   3.727   2.517 -0.5726 -0.0552  1.9033
  938TIP3    H224306   3.137   3.598   2.566  0.2158 -0.5486 -0.2828
  939TIP3   OH224307   4.829   4.667  13.922  0.4732 -0.0673  0.1652
  939TIP3    H124308   4.916   4.635  13.947  0.6676  0.8948  0.7743
  939TIP3    H224309   4.777   4.660  14.002  0.4117  0.7438  0.2012
  940TIP3   OH224310   3.284   3.828  11.677 -0.4372  0.3982 -0.8333
  940TIP3    H124311   3.345   3.771  11.723 -1.7528 -0.4418 -0.0589
  940TIP3    H224312   3.296   3.807  11.584  0.2096  0.0052 -0.6643
  941TIP3   OH224313   3.807   3.740   0.959 -0.5423 -0.3242  0.1600
  941TIP3    H124314   3.756   3.762   0.881 -1.8177 -1.5335  0.6177
  941TIP3    H224315   3.896   3.769   0.938 -1.1889  0.8959 -1.0683
  942TIP3   OH224316   2.285   3.633   3.732  0.2812  0.4790 -0.3866
  942TIP3    H124317   2.267   3.596   3.646  2.9612  0.4412 -1.0241
  942TIP3    H224318   2.373   3.602   3.753 -0.9179 -1.0039  3.2125
  943TIP3   OH224319   5.569   6.332   5.789  0.4062 -0.4445 -0.3379
  943TIP3    H124320   5.606   6.296   5.869  0.7756 -0.4020 -0.4880
  943TIP3    H224321   5.483   6.365   5.815 -0.2215 -2.0140 -0.3391
  944TIP3   OH224322   1.268   5.173  11.413 -0.2906  0.1892 -0.2270
  944TIP3    H124323   1.324   5.096  11.417 -0.3584  0.1391 -0.2530
  944TIP3    H224324   1.240   5.178  11.322  0.4457  0.7601 -0.4321
  945TIP3   OH224325   2.913   4.335  14.555  0.5924  0.1282  0.5028
  945TIP3    H124326   2.912   4.254  14.503  0.6155  0.3488  0.1520
  945TIP3    H224327   2.960   4.397  14.500  2.3985 -0.1773  1.6310
  946TIP3   OH224328   5.353   2.684   2.403 -0.4089 -0.4967 -0.2876
  946TIP3    H124329   5.414   2.710   2.334 -0.1238 -1.5807 -0.4496
  946TIP3    H224330   5.357   2.756   2.467 -1.1813  0.8540 -1.6933
  947TIP3   OH224331   4.153   4.320  14.885 -0.0564  0.1569  0.4669
  947TIP3    H124332   4.102   4.337  14.805 -0.3858  1.3778  0.9134
  947TIP3    H224333   4.240   4.355  14.865  0.3092 -0.9202  0.1085
  948TIP3   OH224334   1.822   5.163  16.580 -0.2068  0.2318  0.2347
  948TIP3    H124335   1.842   5.222  16.508 -1.6970  1.5707  0.8394
  948TIP3    H224336   1.777   5.090  16.539  0.4383  0.1696 -0.3761
  949TIP3   OH224337   2.939   2.310   4.934  0.2009 -0.2631  0.9084
  949TIP3    H124338   2.849   2.339   4.915 -0.0014 -0.0868  2.0765
  949TIP3    H224339   2.994   2.378   4.895 -0.1628 -0.4171  0.1053
  950TIP3   OH224340   0.938   3.585   5.319  0.6910  0.0756 -0.1507
  950TIP3    H124341   0.931   3.526   5.244  1.8504 -2.1237  1.3549
  950TIP3    H224342   0.861   3.564   5.372  0.3599  0.9709 -0.2614
  951TIP3   OH224343   2.317   5.410  15.580  0.1368  0.6482  0.0071
  951TIP3    H124344   2.404   5.397  15.542 -0.3059 -0.8099 -0.6028
  951TIP3    H224345   2.318   5.500  15.612  2.5969  0.0514  1.9345
  952TIP3   OH224346   1.917   2.643  12.707 -0.3407 -0.1652 -0.1595
  952TIP3    H124347   2.003   2.602  12.697  0.0892  0.5646  0.4607
  952TIP3    H224348   1.921   2.721  12.651  0.4857  1.4967  2.0816
  953TIP3   OH224349   6.360   2.759  14.148 -0.0751  0.5495  0.1823
  953TIP3    H124350   6.367   2.664  14.156 -0.7281  0.4120 -0.6730
  953TIP3    H224351   6.392   2.793  14.231 -1.0118 -0.4667  0.9957
  954TIP3   OH224352   3.632   5.953  13.976 -0.0564  0.0450  0.2500
  954TIP3    H124353   3.725   5.965  13.991  0.5559 -2.7658 -0.7730
  954TIP3    H224354   3.622   5.958  13.881 -0.9296  0.1132  0.3320
  955TIP3   OH224355   2.111   1.071   2.419  0.1188 -0.6102  0.1844
  955TIP3    H124356   2.169   1.103   2.350  0.6443  0.6647  1.1715
  955TIP3    H224357   2.062   1.000   2.378 -1.5428  1.7926 -2.3449
  956TIP3   OH224358   2.626   2.655  15.719 -0.8977 -0.1380 -0.2842
  956TIP3    H124359   2.660   2.575  15.680 -1.6414 -0.2083 -0.8074
  956TIP3    H224360   2.607   2.631  15.810 -1.0762 -0.5356 -0.4278
  957TIP3   OH224361   1.469   6.706  15.292 -0.0257 -0.1637 -0.1953
  957TIP3    H124362   1.388   6.751  15.265  0.2537  1.3424  1.3232
  957TIP3    H224363   1.440   6.622  15.326 -1.1248  0.8054  1.3798
  958TIP3   OH224364   2.857   6.689  14.787  0.3239  0.0443 -0.1471
  958TIP3    H124365   2.810   6.622  14.836  1.2917 -0.8766 -0.4346
  958TIP3    H224366   2.799   6.765  14.788  0.7179  0.5153  3.4241
  959TIP3   OH224367   0.527   3.303   3.094  0.0278 -0.1675 -0.1566
  959TIP3    H124368   0.525   3.399   3.098 -2.7553 -0.1978  1.9195
  959TIP3    H224369   0.470   3.280   3.021 -1.7395 -0.2024  1.1791
  960TIP3   OH224370   4.342   6.174  16.601 -0.1945 -0.1218 -0.4168
  960TIP3    H124371   4.412   6.158  16.664 -0.2768 -0.3387 -0.3821
  960TIP3    H224372   4.387   6.207  16.523  0.0522 -1.2365 -0.7636
  961TIP3   OH224373   3.495   2.666   5.503 -0.2187  0.3620  0.4070
  961TIP3    H124374   3.584   2.688   5.476 -0.2175  2.0140  1.5672
  961TIP3    H224375   3.445   2.663   5.422  0.6752  0.5570 -0.1594
  962TIP3   OH224376   2.782   4.107  14.223  0.0649 -0.5016  0.2713
  962TIP3    H124377   2.731   4.183  14.253  1.0464  0.3483 -0.1299
  962TIP3    H224378   2.806   4.130  14.133 -2.2325 -2.6766 -1.0089
  963TIP3   OH224379   1.704   3.563   4.509  0.5162 -0.1073 -0.1245
  963TIP3    H124380   1.700   3.470   4.533  1.1625 -0.3266 -0.8528
  963TIP3    H224381   1.786   3.572   4.462  0.3549  0.7997 -0.2415
  964TIP3   OH224382   6.088   6.557   4.483  0.2679 -0.0057 -0.2741
  964TIP3    H124383   6.108   6.545   4.575  1.5090 -0.9326 -0.6317
  964TIP3    H224384   6.050   6.473   4.455  0.3634  0.0922 -0.7136
  965TIP3   OH224385   0.708   2.090  17.187  0.0506  0.2603 -0.6770
  965TIP3    H124386   0.722   2.153  17.258 -0.7072  1.9411 -1.9463
  965TIP3    H224387   0.760   2.123  17.114  0.2463 -1.0282 -1.1439
  966TIP3   OH224388   6.191   4.198   3.290  0.2865 -0.0516 -0.2339
  966TIP3    H124389   6.180   4.245   3.207  0.8126  2.2345  0.9306
  966TIP3    H224390   6.268   4.237   3.330 -0.7495 -0.1226  1.9803
  967TIP3   OH224391   0.377   3.279  15.967 -0.1509  0.4676  0.2084
  967TIP3    H124392   0.439   3.259  15.897 -1.2107  1.5863 -1.0994
  967TIP3    H224393   0.292   3.280  15.924 -0.9754  0.0830  1.7467
  968TIP3   OH224394   2.713   3.226   0.012 -0.1404  0.1901 -0.0043
  968TIP3    H124395   2.731   3.320   0.001  1.4285 -0.1554 -0.5958
  968TIP3    H224396   2.658   3.222   0.090  0.2593  1.5543  0.3805
  969TIP3   OH224397   6.251   5.388   4.658 -0.6548  0.3764  0.0518
  969TIP3    H124398   6.233   5.398   4.564  2.0598  0.1074 -0.5703
  969TIP3    H224399   6.294   5.303   4.665  0.1888  0.9026  1.3732
  970TIP3   OH224400   0.947   5.030   0.225  0.3182 -0.2305 -0.1730
  970TIP3    H124401   1.035   5.046   0.189  1.0182 -1.5044  0.9032
  970TIP3    H224402   0.924   4.943   0.192 -0.3908 -0.0668 -0.1193
  971TIP3   OH224403   1.646   0.515   3.464  0.2912  0.0104  0.5164
  971TIP3    H124404   1.598   0.492   3.543 -1.9443 -2.7764 -1.4413
  971TIP3    H224405   1.724   0.459   3.466 -1.1266 -2.1414 -0.4070
  972TIP3   OH224406   1.183   4.350  12.952 -0.6234  0.4329 -0.1861
  972TIP3    H124407   1.154   4.404  13.025  2.6644  1.1667  0.7432
  972TIP3    H224408   1.123   4.371  12.881 -2.8247  1.0640  1.7433
  973TIP3   OH224409   6.338   4.327  14.983  0.2943  0.0237  0.2466
  973TIP3    H124410   6.374   4.239  14.993  0.8850  0.2750  0.3266
  973TIP3    H224411   6.340   4.364  15.071 -0.2826 -0.0030  0.2779
  974TIP3   OH224412   6.260   4.646  16.728  0.1077 -0.1202  0.0823
  974TIP3    H124413   6.216   4.614  16.807 -0.1470  0.5955  0.2444
  974TIP3    H224414   6.353   4.635  16.746  0.0053 -1.9437 -0.3887
  975TIP3   OH224415   1.109   6.772  13.798  0.0579  1.0416 -0.1753
  975TIP3    H124416   1.015   6.772  13.785  0.2549  0.1155 -2.0139
  975TIP3    H224417   1.135   6.864  13.790 -0.7224  1.3510  0.7525
  976TIP3   OH224418   2.985   4.130   4.074  0.7105  0.0201  0.2891
  976TIP3    H124419   3.022   4.215   4.051  1.6577 -0.9062 -1.8513
  976TIP3    H224420   2.892   4.138   4.052  0.7016  0.6197  0.5145
  977TIP3   OH224421   3.149   1.494  11.634 -0.1137 -0.2953  0.3390
  977TIP3    H124422   3.073   1.526  11.585 -0.3219  0.2727  1.0293
  977TIP3    H224423   3.114   1.426  11.691 -0.0416 -0.2909  0.3888
  978TIP3   OH224424   3.558   2.212   5.422 -0.0497  0.1583 -0.2038
  978TIP3    H124425   3.567   2.263   5.502  0.1438  0.8053 -0.6342
  978TIP3    H224426   3.648   2.191   5.397 -0.1136 -0.1007 -0.2207
  979TIP3   OH224427   0.792   3.489   1.347 -0.4033 -0.2793  0.2201
  979TIP3    H124428   0.879   3.460   1.375 -0.5381  0.6709  1.7314
  979TIP3    H224429   0.794   3.584   1.357 -2.2369 -0.3710  2.2768
  980TIP3   OH224430   3.907   6.103   5.055  0.0388 -0.5066 -0.3250
  980TIP3    H124431   3.873   6.170   4.996 -1.3410 -1.1833 -0.3435
  980TIP3    H224432   3.981   6.144   5.099 -1.3633  1.3910  0.3979
  981TIP3   OH224433   5.656   6.064  16.179 -0.2680  0.5447  0.1622
  981TIP3    H124434   5.703   6.032  16.101 -0.6656  0.2845  0.0250
  981TIP3    H224435   5.722   6.110  16.230  0.5783 -1.3230  0.8560
  982TIP3   OH224436   5.693   5.125  15.101 -0.1484  0.1208  0.0807
  982TIP3    H124437   5.649   5.208  15.122 -0.3454 -0.1795  0.8953
  982TIP3    H224438   5.630   5.077  15.048 -0.2948  0.2231  0.1588
  983TIP3   OH224439   1.235   0.646  15.954 -0.1400  0.1375 -0.1233
  983TIP3    H124440   1.211   0.687  16.038 -0.1415 -0.8492  0.3705
  983TIP3    H224441   1.303   0.703  15.919 -0.0046  0.4637  0.6427
  984TIP3   OH224442   1.330   3.219   6.643  0.9487  0.1646 -0.3278
  984TIP3    H124443   1.334   3.166   6.564 -0.3935 -0.4034 -0.0506
  984TIP3    H224444   1.252   3.274   6.631  0.2177 -0.5359  0.9397
  985TIP3   OH224445   0.249   3.365   5.246  0.3727 -0.0971  0.1580
  985TIP3    H124446   0.334   3.338   5.282 -0.3813 -1.8410  0.7365
  985TIP3    H224447   0.263   3.364   5.151  0.7132 -1.5655  0.1906
  986TIP3   OH224448   0.024   6.241  10.451  0.0226  0.2065  0.2332
  986TIP3    H124449  -0.013   6.243  10.540 -1.9639  1.8177 -0.5604
  986TIP3    H224450   0.010   6.330  10.418 -0.2326 -0.6435 -2.0773
  987TIP3   OH224451   6.036   5.091   2.040 -0.0238 -0.0563  0.0553
  987TIP3    H124452   5.999   5.177   2.060  0.4436  0.7037 -2.0562
  987TIP3    H224453   6.130   5.107   2.031 -0.0160 -0.6229 -1.0056
  988TIP3   OH224454   3.994   4.147   0.720  0.2238  0.5966 -0.3379
  988TIP3    H124455   4.030   4.231   0.749  0.3596  0.5743 -0.4423
  988TIP3    H224456   4.009   4.145   0.626  1.5361 -0.1649 -0.1408
  989TIP3   OH224457   4.233   2.782  11.342 -0.0161 -0.3975 -0.0683
  989TIP3    H124458   4.266   2.855  11.289 -1.7779  0.9293  0.5559
  989TIP3    H224459   4.296   2.776  11.414 -0.2712  1.1077  0.3301
  990TIP3   OH224460   2.035   4.188  14.437 -0.3215 -0.0169 -0.3694
  990TIP3    H124461   1.948   4.193  14.397 -1.1608 -1.5945  1.1697
  990TIP3    H224462   2.019   4.184  14.531  1.5368  1.8681  0.1259
  991TIP3   OH224463   4.779   6.585  16.918 -0.2490 -0.3932 -0.2456
  991TIP3    H124464   4.687   6.608  16.931  0.0733  1.2438 -0.6750
  991TIP3    H224465   4.823   6.669  16.907  1.1791 -1.1979 -0.8461
  992TIP3   OH224466   2.381   1.650   0.487 -0.5821  0.2276  0.2592
  992TIP3    H124467   2.370   1.596   0.565  0.9110  0.4513  0.6587
  992TIP3    H224468   2.402   1.737   0.520  4.2332 -0.4735 -0.1773
  993TIP3   OH224469   5.439   3.853  12.009  0.0197 -0.2288 -0.2764
  993TIP3    H124470   5.381   3.789  12.050  0.2624 -0.7506 -0.7263
  993TIP3    H224471   5.386   3.933  12.003  0.0145 -0.1034  1.1277
  994TIP3   OH224472   0.318   6.009  14.093 -0.3515 -0.6571 -0.5644
  994TIP3    H124473   0.242   6.013  14.034 -1.2204  1.1308  0.6099
  994TIP3    H224474   0.281   6.020  14.181  1.3851  2.7328 -0.0881
  995TIP3   OH224475   4.251   3.376  11.255 -0.1206  0.2116  0.2602
  995TIP3    H124476   4.264   3.404  11.164  0.2444  2.0249  0.8286
  995TIP3    H224477   4.258   3.457  11.306 -2.3123 -0.4256  1.7216
  996TIP3   OH224478   2.522   3.534  10.795 -0.3437 -0.0727  0.0919
  996TIP3    H124479   2.496   3.576  10.713 -0.4474 -0.1039  0.1084
  996TIP3    H224480   2.608   3.496  10.777  0.0482  0.7062  0.2773
  997TIP3   OH224481   6.573   3.077   1.250  0.3084  0.1144  0.3584
  997TIP3    H124482   6.587   3.048   1.340 -0.6018  1.2022  0.8801
  997TIP3    H224483   6.625   3.156   1.242 -0.9222  0.9573  0.4861
  998TIP3   OH224484   0.106   2.162   3.574  0.1210 -0.1977 -0.0214
  998TIP3    H124485   0.141   2.145   3.486  1.4435  0.7476  0.2997
  998TIP3    H224486   0.028   2.105   3.580  1.6438 -2.5031 -0.7197
  999TIP3   OH224487   5.048   5.819  11.228  0.0763  0.1947  0.0705
  999TIP3    H124488   4.985   5.792  11.295  0.9029  1.3711  1.3601
  999TIP3    H224489   5.036   5.913  11.219 -0.7704 -0.0691 -2.2804
 1000TIP3   OH224490   5.974   0.564   3.455  0.3931 -0.6572 -1.2885
 1000TIP3    H124491   6.044   0.604   3.404  1.2664 -0.4390  0.0399
 1000TIP3    H224492   5.897   0.568   3.397  0.1630  3.6612 -1.0108
 1001TIP3   OH224493   2.071   5.285   4.848 -0.2011  0.4000  0.4539
 1001TIP3    H124494   2.102   5.201   4.814 -2.0320 -0.9228  1.8546
 1001TIP3    H224495   2.117   5.351   4.795 -0.4140 -1.4713 -2.2735
 1002TIP3   OH224496   0.088   2.308   2.013  0.1736 -0.0684  0.5083
 1002TIP3    H124497   0.011   2.306   1.956  0.2052  1.4369  0.3848
 1002TIP3    H224498   0.138   2.230   1.988 -1.4707 -1.2948  0.8548
 1003TIP3   OH224499   4.603   1.511  13.157  0.1453  0.0197 -0.3110
 1003TIP3    H124500   4.562   1.425  13.152  0.7559 -0.3652  0.9805
 1003TIP3    H224501   4.645   1.523  13.071 -1.4987 -0.1449 -1.1649
 1004TIP3   OH224502   3.938   1.973   5.458  0.2266 -0.1052  0.5148
 1004TIP3    H124503   3.874   1.915   5.500  1.4958 -0.7749  1.5975
 1004TIP3    H224504   3.997   1.999   5.529 -0.4290  2.7517  0.1204
 1005TIP3   OH224505   1.344   3.820  16.522 -0.2945 -0.1888 -0.2944
 1005TIP3    H124506   1.419   3.848  16.574 -1.4069  1.7242  0.3775
 1005TIP3    H224507   1.323   3.733  16.555 -0.2859  0.5346  1.7541
 1006TIP3   OH224508   4.569   6.513  14.544  0.5138  0.2098  0.4102
 1006TIP3    H124509   4.480   6.529  14.515  0.7396  0.4095 -0.1730
 1006TIP3    H224510   4.560   6.448  14.614 -0.0723  0.1053  0.2419
 1007TIP3   OH224511   3.055   5.308  10.826 -0.0148  0.2894 -0.5987
 1007TIP3    H124512   3.099   5.367  10.887 -0.2254 -0.3754  0.2011
 1007TIP3    H224513   3.096   5.327  10.741  0.8668  0.6302 -0.1106
 1008TIP3   OH224514   3.712   0.410  11.112 -0.6388  0.1734  0.6522
 1008TIP3    H124515   3.782   0.392  11.049  1.1653  1.0812  2.2902
 1008TIP3    H224516   3.643   0.347  11.090  0.3781 -0.2709 -1.4836
 1009TIP3   OH224517   4.138   1.207   1.455 -0.4363 -0.1324 -0.0227
 1009TIP3    H124518   4.066   1.254   1.414 -1.4423 -1.5863  0.0021
 1009TIP3    H224519   4.124   1.219   1.549 -0.2853  0.1017 -0.0300
 1010TIP3   OH224520   6.622   3.415  14.375 -0.5584  0.5760 -0.0897
 1010TIP3    H124521   6.712   3.402  14.403 -0.8506 -0.9784  0.2299
 1010TIP3    H224522   6.579   3.454  14.451 -0.5575 -0.4153  0.4400
 1011TIP3   OH224523   0.528   3.368  11.205  0.5315 -0.2875 -0.1694
 1011TIP3    H124524   0.569   3.295  11.252 -1.8774 -0.4954  1.8163
 1011TIP3    H224525   0.446   3.383  11.252 -0.6638  1.4621 -2.6360
 1012TIP3   OH224526   2.487   2.723   0.594 -0.1668 -0.1623 -0.1613
 1012TIP3    H124527   2.518   2.814   0.590 -2.1371  0.5338 -1.0678
 1012TIP3    H224528   2.558   2.672   0.555 -0.2030  1.3716 -2.4749
 1013TIP3   OH224529   5.827   2.295   0.535 -0.6265 -0.0832 -0.4318
 1013TIP3    H124530   5.920   2.310   0.550 -0.0622 -0.6744 -2.8737
 1013TIP3    H224531   5.793   2.267   0.620  1.2384  0.8813  0.6954
 1014TIP3   OH224532   4.048   4.365   4.099 -0.0235 -0.5086 -0.1506
 1014TIP3    H124533   3.958   4.333   4.095  0.5605 -2.1631 -0.7148
 1014TIP3    H224534   4.051   4.437   4.036 -0.9882 -0.3084  0.0171
 1015TIP3   OH224535   1.642   2.773  15.041  0.1682  0.1274 -0.2055
 1015TIP3    H124536   1.688   2.769  15.124 -0.4695  1.5307  0.2453
 1015TIP3    H224537   1.564   2.719  15.054 -0.1281  0.6547  0.2564
 1016TIP3   OH224538   0.836   1.081  10.733 -0.2409  0.0367 -0.0416
 1016TIP3    H124539   0.802   1.031  10.659 -3.0656 -2.1286  2.4741
 1016TIP3    H224540   0.924   1.045  10.747 -1.7475 -3.7775  0.9953
 1017TIP3   OH224541   3.137   5.481  11.292  0.6711  0.0995 -0.7443
 1017TIP3    H124542   3.180   5.566  11.294 -0.4375  0.7397 -2.2223
 1017TIP3    H224543   3.192   5.428  11.234  0.9942  0.0190 -0.3660
 1018TIP3   OH224544   6.590   6.821   3.011  0.1687 -0.0526 -0.0277
 1018TIP3    H124545   6.654   6.887   3.039 -0.0579 -0.4122  1.4260
 1018TIP3    H224546   6.505   6.863   3.027  0.0153  0.1342 -1.2313
 1019TIP3   OH224547   4.915   0.923  11.763 -0.5698 -0.3572 -0.0437
 1019TIP3    H124548   4.953   1.002  11.803 -1.2012  0.2809 -0.6929
 1019TIP3    H224549   4.839   0.954  11.715 -0.7866 -1.3616 -0.3737
 1020TIP3   OH224550   2.456   5.117   5.152  0.8062 -0.4566  0.1205
 1020TIP3    H124551   2.400   5.067   5.092  2.5007 -2.0299 -0.2182
 1020TIP3    H224552   2.400   5.133   5.228 -0.1915 -1.8148 -0.2818
 1021TIP3   OH224553   1.270   1.665   0.404  0.0324 -0.6180 -0.3052
 1021TIP3    H124554   1.303   1.736   0.348 -0.5368 -1.4458 -1.7274
 1021TIP3    H224555   1.341   1.651   0.468 -0.3344  2.0233  0.8241
 1022TIP3   OH224556   6.075   1.490   3.350  0.2922 -0.4707 -0.1725
 1022TIP3    H124557   6.015   1.415   3.346 -0.4465  0.1382 -1.2030
 1022TIP3    H224558   6.038   1.553   3.288  2.2556 -0.2467 -1.2039
 1023TIP3   OH224559   6.776   5.775   3.326  0.1318 -1.0581 -0.5112
 1023TIP3    H124560   6.829   5.705   3.364  1.1896 -0.2563 -0.4819
 1023TIP3    H224561   6.689   5.762   3.364  0.4837 -1.9272  0.0302
 1024TIP3   OH224562   3.057   6.448  12.920 -0.0464  0.4630 -0.8097
 1024TIP3    H124563   3.141   6.493  12.919 -0.3586  1.0389 -1.4893
 1024TIP3    H224564   3.015   6.478  13.001  0.0425  0.8301 -0.8979
 1025TIP3   OH224565   4.561   4.819  17.149  0.7103  0.1247 -0.1263
 1025TIP3    H124566   4.474   4.781  17.135 -0.0943  1.5360  0.7362
 1025TIP3    H224567   4.612   4.791  17.073  0.5763 -3.5333  0.9893
 1026TIP3   OH224568   6.206   5.493   3.579  0.2638 -0.5902 -0.3721
 1026TIP3    H124569   6.289   5.520   3.539  1.2023  1.4704  2.5758
 1026TIP3    H224570   6.231   5.465   3.667 -2.0587 -1.1533  0.1638
 1027TIP3   OH224571   6.588   2.760  10.653  0.2170  0.1001 -0.2562
 1027TIP3    H124572   6.658   2.784  10.593  0.1014  1.4271  0.1084
 1027TIP3    H224573   6.627   2.695  10.712  1.4019  1.4398  0.4796
 1028TIP3   OH224574   4.262   2.678  10.676  0.0433  0.2247 -0.1318
 1028TIP3    H124575   4.294   2.594  10.710  1.2596  0.4238 -0.7419
 1028TIP3    H224576   4.315   2.744  10.720 -0.3320  0.6298 -0.2876
 1029TIP3   OH224577   3.559   4.485  10.946 -0.5063 -0.3712  0.3041
 1029TIP3    H124578   3.490   4.547  10.923 -0.1729 -0.1104 -0.0036
 1029TIP3    H224579   3.557   4.420  10.876 -2.0488 -1.7268  1.5373
 1030TIP3   OH224580   5.753   0.142  14.242 -0.2573 -0.1143  0.5394
 1030TIP3    H124581   5.775   0.221  14.192  1.5529 -1.4824 -0.9876
 1030TIP3    H224582   5.663   0.122  14.216  1.0376 -1.5712 -3.5216
 1031TIP3   OH224583   3.164   6.192  14.882  0.3784 -0.0683 -0.1457
 1031TIP3    H124584   3.206   6.134  14.819 -0.9563 -0.8797 -0.3328
 1031TIP3    H224585   3.131   6.264  14.829 -0.5088 -0.6155 -0.3537
 1032TIP3   OH224586   4.343   5.097  16.188  0.2466  0.2566 -1.0557
 1032TIP3    H124587   4.297   5.145  16.257 -1.3448 -1.4091 -0.8859
 1032TIP3    H224588   4.313   5.006  16.197  2.1779 -0.5499 -2.1544
 1033TIP3   OH224589   5.251   3.398   3.284 -0.0135 -0.0057 -0.6648
 1033TIP3    H124590   5.266   3.411   3.378  1.3819  0.1137 -0.8892
 1033TIP3    H224591   5.208   3.478   3.255 -0.8607 -0.2195 -0.0636
 1034TIP3   OH224592   5.091   5.015  16.750 -0.3816  0.3247  0.5696
 1034TIP3    H124593   5.051   4.929  16.740 -1.1136  0.4791  1.8581
 1034TIP3    H224594   5.182   5.003  16.723 -0.4336 -0.8885  0.8710
 1035TIP3   OH224595   1.707   6.082   5.222 -0.5723  0.0536 -0.4559
 1035TIP3    H124596   1.758   6.046   5.294  1.2612 -0.0016 -1.7022
 1035TIP3    H224597   1.658   6.154   5.260  0.9711  0.5393  0.7000
 1036TIP3   OH224598   4.311   3.354   5.941  0.0865  0.5507  0.1344
 1036TIP3    H124599   4.326   3.448   5.955 -1.1891  1.3214 -2.8712
 1036TIP3    H224600   4.396   3.320   5.912  0.1578  1.1324 -0.3461
 1037TIP3   OH224601   0.409   1.509   5.451  0.2128  0.5553  0.3199
 1037TIP3    H124602   0.472   1.578   5.430 -0.0214  0.4520 -0.7754
 1037TIP3    H224603   0.327   1.539   5.411 -0.1794  0.1990  0.8507
 1038TIP3   OH224604   1.191   4.400  10.438  0.2682 -0.1542 -0.5845
 1038TIP3    H124605   1.258   4.449  10.390 -0.0167  0.5199 -0.3157
 1038TIP3    H224606   1.222   4.310  10.438  0.1547 -0.2268 -2.2622
 1039TIP3   OH224607   5.564   0.139   4.514 -0.0903 -0.2469 -0.2293
 1039TIP3    H124608   5.517   0.154   4.596 -0.4203 -0.5232 -0.3612
 1039TIP3    H224609   5.507   0.078   4.466 -1.0296  1.6180 -1.6113
 1040TIP3   OH224610   2.880   5.455  12.870  0.1048  0.2273 -0.6310
 1040TIP3    H124611   2.850   5.503  12.947  0.7370 -0.3008 -0.0411
 1040TIP3    H224612   2.813   5.388  12.856  0.4797 -0.3067  0.0699
 1041TIP3   OH224613   0.844   4.194   3.481  0.1184  0.8981 -0.0994
 1041TIP3    H124614   0.930   4.153   3.469 -0.6257 -0.8541  0.3177
 1041TIP3    H224615   0.862   4.288   3.476  1.6732  0.5565 -2.5863
 1042TIP3   OH224616   3.731   2.432   0.511  0.3595  0.2281 -0.7531
 1042TIP3    H124617   3.743   2.501   0.445  0.6661  0.9693  0.0507
 1042TIP3    H224618   3.820   2.409   0.538  0.2269  0.4954 -0.0483
 1043TIP3   OH224619   4.489   3.956   2.628 -0.3079  0.1411  0.1209
 1043TIP3    H124620   4.572   3.927   2.664  0.9065  2.2983 -0.7676
 1043TIP3    H224621   4.430   3.960   2.703  0.8703  0.2278  1.0624
 1044TIP3   OH224622   2.400   1.531   3.104  0.4393  0.4020  0.7591
 1044TIP3    H124623   2.372   1.518   3.013  0.2587  0.6316  0.7831
 1044TIP3    H224624   2.474   1.471   3.114 -0.6170 -0.9007  0.9772
 1045TIP3   OH224625   3.259   2.451  10.347 -0.2603  0.3255 -0.2972
 1045TIP3    H124626   3.200   2.526  10.358  1.3319  1.6902 -0.6926
 1045TIP3    H224627   3.231   2.410  10.265 -0.4615  1.1547 -0.6549
 1046TIP3   OH224628   1.110   0.589  11.258  0.2597 -0.1284 -0.3333
 1046TIP3    H124629   1.128   0.667  11.206 -1.1474  0.6660  0.3070
 1046TIP3    H224630   1.093   0.622  11.346 -1.5087 -1.0115 -0.3060
 1047TIP3   OH224631   6.148   3.928   5.729  0.4153  0.8565  0.3080
 1047TIP3    H124632   6.206   3.975   5.789 -0.4259 -0.4306  2.2252
 1047TIP3    H224633   6.079   3.991   5.708 -0.2018  0.8417  2.1177
 1048TIP3   OH224634   3.457   5.808   4.139  0.1779 -0.0163  0.2409
 1048TIP3    H124635   3.544   5.793   4.102 -0.2173 -1.3406 -0.2030
 1048TIP3    H224636   3.397   5.798   4.066 -0.2975  2.2634  0.2484
 1049TIP3   OH224637   5.103   4.597   1.559 -1.0680 -0.5224  0.4072
 1049TIP3    H124638   5.062   4.591   1.473  0.7423 -1.4906 -0.4502
 1049TIP3    H224639   5.155   4.677   1.556  1.0839 -1.8623 -0.4463
 1050TIP3   OH224640   3.134   1.471  10.944  0.3878  0.9463 -0.0717
 1050TIP3    H124641   3.169   1.543  10.891  0.3464  1.5997  0.7555
 1050TIP3    H224642   3.051   1.449  10.902 -0.8119  3.0574  0.9997
 1051TIP3   OH224643   6.060   1.345  16.636  0.3136  0.1385  0.0854
 1051TIP3    H124644   5.973   1.371  16.608 -0.0884 -0.2528  0.9227
 1051TIP3    H224645   6.071   1.387  16.722  0.2299 -1.2332  0.7879
 1052TIP3   OH224646   3.743   3.973   0.012 -0.0358 -0.2842  0.3343
 1052TIP3    H124647   3.662   3.924   0.026 -0.9737  0.8721 -0.8256
 1052TIP3    H224648   3.726   4.026  -0.066  2.2689 -0.9066 -0.6594
 1053TIP3   OH224649   1.336   2.718   3.609  0.1761  0.3200  0.1702
 1053TIP3    H124650   1.284   2.656   3.558 -0.5815 -0.9044  2.3132
 1053TIP3    H224651   1.321   2.692   3.700  1.7827  2.1581  1.0117
 1054TIP3   OH224652   3.022   0.732  11.326 -0.0080 -0.3561  0.1320
 1054TIP3    H124653   2.947   0.784  11.355  1.1796  1.6604 -0.2009
 1054TIP3    H224654   3.027   0.748  11.232  0.3965 -1.0715  0.0275
 1055TIP3   OH224655   5.553   2.309  15.912 -0.0450 -0.3672  0.2638
 1055TIP3    H124656   5.605   2.386  15.934  0.4265 -0.8951  1.0709
 1055TIP3    H224657   5.471   2.319  15.959  0.1399 -0.5034  0.6171
 1056TIP3   OH224658   3.067   5.866   2.864 -0.2966  0.3560  0.6133
 1056TIP3    H124659   2.996   5.920   2.897 -0.4656  0.0539  0.7457
 1056TIP3    H224660   3.109   5.830   2.942 -0.4352 -0.0210  0.5164
 1057TIP3   OH224661   6.652   3.930  13.828  0.1884  1.0095  0.0406
 1057TIP3    H124662   6.560   3.927  13.802  0.2646  1.8944 -0.3470
 1057TIP3    H224663   6.694   3.862  13.775 -0.4852 -0.4480  1.2914
 1058TIP3   OH224664   3.252   5.782  10.741  0.1907  0.3075  0.4287
 1058TIP3    H124665   3.308   5.745  10.810  0.3390  1.0227  0.7014
 1058TIP3    H224666   3.274   5.732  10.663  0.9448  0.3227  0.6232
 1059TIP3   OH224667   5.221   2.059   2.742  0.6172 -0.7539  0.3409
 1059TIP3    H124668   5.249   2.092   2.657 -1.0169  0.1081  0.0934
 1059TIP3    H224669   5.226   2.135   2.800 -2.2383 -0.1942 -0.0025
 1060TIP3   OH224670   6.565   4.561   2.806  0.4661  0.4675  0.5988
 1060TIP3    H124671   6.536   4.609   2.883  0.2600 -0.2274  0.9558
 1060TIP3    H224672   6.660   4.553   2.816  0.3347 -0.3822  1.2214
 1061TIP3   OH224673   6.540   2.453  12.580 -0.1636 -0.7444  0.3134
 1061TIP3    H124674   6.518   2.431  12.671  0.0446 -0.0036  0.5517
 1061TIP3    H224675   6.537   2.549  12.578  1.5540 -0.6795 -0.0247
 1062TIP3   OH224676   1.040   3.282  15.671  0.1881 -0.1961 -0.2767
 1062TIP3    H124677   0.996   3.229  15.736  0.0495  0.4675  0.1874
 1062TIP3    H224678   1.133   3.260  15.680  0.4310  1.2977  1.5382
 1063TIP3   OH224679   0.320   0.389  14.198 -0.7758 -0.0951  0.0894
 1063TIP3    H124680   0.405   0.370  14.237 -1.4289 -1.3599  0.9754
 1063TIP3    H224681   0.271   0.434  14.267 -1.8747 -2.1756  0.7408
 1064TIP3   OH224682   5.763   2.344   5.557 -0.0251 -0.0127 -0.3352
 1064TIP3    H124683   5.745   2.398   5.634 -1.7108 -2.1179  0.8647
 1064TIP3    H224684   5.846   2.300   5.578 -0.6859 -0.8931  0.5002
 1065TIP3   OH224685   6.439   5.676  13.287 -0.1039 -0.2947 -0.1201
 1065TIP3    H124686   6.479   5.622  13.355 -1.2821 -0.2183  0.6665
 1065TIP3    H224687   6.422   5.615  13.215  0.7515 -0.4645 -0.1886
 1066TIP3   OH224688   3.839   2.921   5.043 -0.4530 -0.0180 -0.0307
 1066TIP3    H124689   3.809   2.837   5.079 -0.9173 -0.8512 -2.1787
 1066TIP3    H224690   3.848   2.904   4.949 -0.2662  2.2741 -0.4725
 1067TIP3   OH224691   2.471   3.577   0.992 -0.0972  0.3057  0.1752
 1067TIP3    H124692   2.467   3.649   0.929  1.4355  0.6797  0.4528
 1067TIP3    H224693   2.515   3.615   1.068  1.3264 -1.0652  0.0963
 1068TIP3   OH224694   4.570   0.769   1.996  0.0519  0.5248 -0.1130
 1068TIP3    H124695   4.575   0.814   1.911  1.9713 -0.9564 -0.8427
 1068TIP3    H224696   4.482   0.789   2.028  0.2284  3.4173 -1.1382
 1069TIP3   OH224697   3.149   2.797   5.470  0.1188  0.3584 -0.1422
 1069TIP3    H124698   3.103   2.828   5.392  0.0807 -0.1577 -0.3334
 1069TIP3    H224699   3.149   2.701   5.461 -0.9848  0.2078  1.0939
 1070TIP3   OH224700   1.209   6.362   1.868 -0.3315  0.3760 -0.1840
 1070TIP3    H124701   1.143   6.382   1.935  0.0196  0.4433  0.1445
 1070TIP3    H224702   1.159   6.354   1.787 -0.9106 -0.8509  0.2724
 1071TIP3   OH224703   3.340   3.421   2.815  0.2447 -0.1552  0.2819
 1071TIP3    H124704   3.265   3.457   2.767 -1.0977  0.2234  2.5593
 1071TIP3    H224705   3.341   3.328   2.789 -1.0972 -0.2029  0.3027
 1072TIP3   OH224706   3.806   1.465  10.927 -0.1486 -0.0214  0.3826
 1072TIP3    H124707   3.874   1.400  10.911 -1.3412 -1.8868  2.3834
 1072TIP3    H224708   3.740   1.447  10.860  0.2360  0.1929 -0.0565
 1073TIP3   OH224709   6.428   3.953  15.711 -0.1531  0.8219  0.0856
 1073TIP3    H124710   6.431   4.002  15.629 -0.7290  0.3200 -0.2440
 1073TIP3    H224711   6.519   3.954  15.742 -0.0831  1.7267 -0.1251
 1074TIP3   OH224712   3.814   4.323  15.993 -0.4262 -0.0490  1.2301
 1074TIP3    H124713   3.793   4.234  15.962 -0.0521 -0.5466  2.3637
 1074TIP3    H224714   3.830   4.372  15.912 -1.2295 -0.8504  0.5523
 1075TIP3   OH224715   4.807   0.367   0.631  0.1154 -0.6070  0.1671
 1075TIP3    H124716   4.893   0.348   0.669 -0.2184  0.4267  1.5391
 1075TIP3    H224717   4.767   0.281   0.619  2.1711 -1.3042 -2.7623
 1076TIP3   OH224718   2.729   1.319  13.324  0.4704 -0.0818  0.2057
 1076TIP3    H124719   2.650   1.352  13.367 -0.6945 -2.3741 -0.0077
 1076TIP3    H224720   2.796   1.385  13.342 -0.8935  0.8108  2.3961
 1077TIP3   OH224721   3.742   2.649  16.435  0.0535 -0.5829  0.2234
 1077TIP3    H124722   3.660   2.659  16.483  1.0699 -1.0112  2.1601
 1077TIP3    H224723   3.755   2.733  16.392 -0.7752 -0.0770  0.9225
 1078TIP3   OH224724   3.661   1.534  12.120 -0.1065 -0.1697 -0.5891
 1078TIP3    H124725   3.726   1.552  12.051 -0.1904  1.0047 -0.3852
 1078TIP3    H224726   3.645   1.440  12.114  0.4703 -0.2173 -1.6609
 1079TIP3   OH224727   0.374   3.904  14.180  0.0894 -0.0120 -0.3333
 1079TIP3    H124728   0.298   3.883  14.126 -0.9483 -0.8460  1.3569
 1079TIP3    H224729   0.420   3.972  14.131 -1.5057  0.2236 -1.6080
 1080TIP3   OH224730   4.589   2.597   1.789 -0.1232  0.0081 -0.0222
 1080TIP3    H124731   4.599   2.509   1.753  0.1830  0.5006 -1.1987
 1080TIP3    H224732   4.636   2.595   1.872  2.3568 -0.1943 -1.3238
 1081TIP3   OH224733   4.194   2.459   5.481  0.3501  0.0040 -0.2336
 1081TIP3    H124734   4.187   2.547   5.519 -0.3752 -0.7089  1.4061
 1081TIP3    H224735   4.105   2.425   5.485  0.4888 -0.5402 -1.5602
 1082TIP3   OH224736   3.510   4.900   0.264  0.6123  0.4982  0.0228
 1082TIP3    H124737   3.604   4.889   0.250  0.7455 -0.8143  1.6198
 1082TIP3    H224738   3.469   4.842   0.200  0.9004  0.8044 -0.4400
 1083TIP3   OH224739   4.789   3.719   2.119  0.2362 -0.4336  0.7021
 1083TIP3    H124740   4.734   3.642   2.131 -0.1818 -0.5681 -1.5867
 1083TIP3    H224741   4.871   3.685   2.084 -0.3255  0.1564 -1.3668
 1084TIP3   OH224742   3.433   4.157  12.553  0.0548  0.0008  0.1739
 1084TIP3    H124743   3.495   4.129  12.620  1.7016 -2.7985 -2.2573
 1084TIP3    H224744   3.348   4.124  12.584  0.5347 -0.0850  1.4446
 1085TIP3   OH224745   3.241   4.701  11.135 -0.1898  0.1018 -0.3367
 1085TIP3    H124746   3.250   4.787  11.175 -1.2490  0.0324  0.0910
 1085TIP3    H224747   3.152   4.674  11.157  0.2234 -1.2276 -0.2362
 1086TIP3   OH224748   5.897   3.502  14.298  0.5660  0.0239  0.0510
 1086TIP3    H124749   5.954   3.462  14.364 -0.0543 -2.4996 -0.8259
 1086TIP3    H224750   5.912   3.450  14.219  0.1833  2.0194 -1.4282
 1087TIP3   OH224751   5.256   3.398   0.716  0.1111  0.0026 -0.7941
 1087TIP3    H124752   5.250   3.407   0.811 -0.5660  1.2551 -0.9350
 1087TIP3    H224753   5.333   3.343   0.702  0.8328  0.6483  0.4437
 1088TIP3   OH224754   4.707   1.462  12.482  0.0919 -0.1278  0.2721
 1088TIP3    H124755   4.688   1.514  12.404 -0.4004  0.4122  0.7349
 1088TIP3    H224756   4.642   1.492  12.547 -0.1520 -1.2642  0.5825
 1089TIP3   OH224757   5.255   5.682   4.693  0.1499 -0.4928 -0.1213
 1089TIP3    H124758   5.306   5.603   4.674  1.2316 -0.0081  0.6715
 1089TIP3    H224759   5.217   5.706   4.609  0.1805 -1.5973 -0.4703
 1090TIP3   OH224760   5.831   1.879  11.030  0.1128 -0.0887  0.2250
 1090TIP3    H124761   5.839   1.949  10.964  0.8395  0.2314  0.6405
 1090TIP3    H224762   5.753   1.831  11.004 -1.3467  1.8251  0.8000
 1091TIP3   OH224763   3.257   1.907   5.728  0.6119  0.1488 -0.1761
 1091TIP3    H124764   3.198   1.861   5.787 -0.9229  0.6273 -1.2515
 1091TIP3    H224765   3.300   1.973   5.783 -0.5407  0.3825  0.4760
 1092TIP3   OH224766   0.126   3.508   4.507  0.2790  0.4845  0.3116
 1092TIP3    H124767   0.161   3.499   4.596  1.5884 -2.1363 -0.3575
 1092TIP3    H224768   0.196   3.553   4.459  1.3074 -1.5401 -0.1990
 1093TIP3   OH224769   6.628   2.862  13.908 -0.5313  0.0660 -0.1773
 1093TIP3    H124770   6.639   2.866  14.002  0.9592 -2.3677 -0.1883
 1093TIP3    H224771   6.534   2.845  13.895 -0.9046  1.2792  0.7771
 1094TIP3   OH224772   2.172   5.213  11.320  0.4428  0.9483  0.0526
 1094TIP3    H124773   2.237   5.217  11.391  1.2226 -2.0924 -0.3727
 1094TIP3    H224774   2.219   5.247  11.244  0.7089  1.0627  0.2605
 1095TIP3   OH224775   3.795   0.716   3.419  0.1534  0.0250  0.8293
 1095TIP3    H124776   3.803   0.808   3.391 -0.2040 -0.4560 -1.0266
 1095TIP3    H224777   3.804   0.666   3.338  2.5421 -1.7446  2.0570
 1096TIP3   OH224778   5.464   3.296  15.888  0.3134  0.5809  0.4602
 1096TIP3    H124779   5.535   3.283  15.825  0.9898  1.3565  1.0306
 1096TIP3    H224780   5.448   3.209  15.925  0.1643  0.1919 -0.5083
 1097TIP3   OH224781   5.425   5.471  13.568 -0.4613 -0.5335  0.4415
 1097TIP3    H124782   5.482   5.544  13.592 -0.2883  0.2650 -2.0967
 1097TIP3    H224783   5.444   5.403  13.633 -0.1089  1.3770  2.4662
 1098TIP3   OH224784   6.683   1.679  12.072  0.0287  0.4287 -0.0423
 1098TIP3    H124785   6.688   1.726  11.989 -0.7081  1.3067  0.3894
 1098TIP3    H224786   6.635   1.738  12.130 -1.0372 -0.9105  0.4912
 1099TIP3   OH224787   2.921   0.631   4.519 -0.1888  0.5495 -0.2196
 1099TIP3    H124788   2.882   0.581   4.591 -1.5280 -0.0613 -1.3327
 1099TIP3    H224789   2.941   0.716   4.558 -0.5572  0.1278  0.9673
 1100TIP3   OH224790   2.557   4.730   0.141 -0.6459 -0.0816 -0.3138
 1100TIP3    H124791   2.580   4.639   0.122 -1.4570 -0.5050  0.6464
 1100TIP3    H224792   2.570   4.738   0.236 -1.4244  0.5463 -0.2573
 1101TIP3   OH224793   1.377   5.138   3.052 -0.5447  0.0589  0.3975
 1101TIP3    H124794   1.337   5.057   3.021 -0.3554 -0.7029  2.0285
 1101TIP3    H224795   1.465   5.137   3.016  0.0480 -1.3512  1.7826
 1102TIP3   OH224796   0.329   6.766   2.421  0.1959 -0.4451 -0.0753
 1102TIP3    H124797   0.347   6.773   2.327 -0.4464 -0.8529 -0.2435
 1102TIP3    H224798   0.332   6.672   2.438 -0.4908 -0.4388  0.1329
 1103TIP3   OH224799   5.084   5.493  12.969  0.0883  0.2684  0.3154
 1103TIP3    H124800   5.136   5.435  12.913  1.1870  1.6359 -0.1511
 1103TIP3    H224801   5.087   5.578  12.924  0.7143  1.3291  2.2801
 1104TIP3   OH224802   6.360   1.929   3.726  0.4368  0.1087 -0.5857
 1104TIP3    H124803   6.393   1.839   3.724  1.6369  0.5309 -1.2248
 1104TIP3    H224804   6.374   1.961   3.636 -2.4390  0.1107 -1.1353
 1105TIP3   OH224805   6.150   3.744   0.593  0.3837 -0.1049 -0.1828
 1105TIP3    H124806   6.056   3.760   0.587  0.2610 -0.0609  1.3636
 1105TIP3    H224807   6.188   3.793   0.520 -0.8400 -0.7148 -1.2657
 1106TIP3   OH224808   4.602   6.631   0.778  0.1276  0.3591 -0.2183
 1106TIP3    H124809   4.546   6.681   0.718  0.2112 -0.5084 -1.0535
 1106TIP3    H224810   4.556   6.548   0.789  1.0948 -0.2523 -0.6745
 1107TIP3   OH224811   0.096   5.274  13.808  0.4284 -0.2058  0.4078
 1107TIP3    H124812   0.141   5.190  13.820 -0.0783 -0.3898  1.0635
 1107TIP3    H224813   0.083   5.307  13.897 -0.5921 -0.0833  0.2251
 1108TIP3   OH224814   6.740   1.939  15.694  0.0414  0.0516 -0.5704
 1108TIP3    H124815   6.679   1.986  15.637 -0.3866  0.7426  0.4244
 1108TIP3    H224816   6.809   2.003  15.713 -1.5042  0.9973  2.3123
 1109TIP3   OH224817   2.429   3.689   4.160 -0.1843  0.0330 -0.1489
 1109TIP3    H124818   2.488   3.748   4.206  1.4947 -0.3376 -1.6969
 1109TIP3    H224819   2.477   3.606   4.155 -1.4014 -0.6949 -0.3016
 1110TIP3   OH224820   3.888   0.288   0.025  0.3386  0.4488 -0.0499
 1110TIP3    H124821   3.958   0.263   0.086  0.5993  0.8950 -0.1621
 1110TIP3    H224822   3.914   0.250  -0.059  0.0550 -0.0384  0.0789
 1111TIP3   OH224823   0.697   0.593  12.537 -0.0458 -0.2029  0.6839
 1111TIP3    H124824   0.777   0.645  12.528  0.0989 -0.2774  1.4857
 1111TIP3    H224825   0.641   0.645  12.594 -0.7126  0.0041 -0.1449
 1112TIP3   OH224826   4.751   5.890  16.869  0.4151 -0.5288 -0.0202
 1112TIP3    H124827   4.760   5.930  16.955 -1.9479  0.9328 -0.3557
 1112TIP3    H224828   4.694   5.815  16.883 -0.2042 -0.1248 -0.3293
 1113TIP3   OH224829   4.217   6.102  16.991 -0.1042  0.1451  0.6584
 1113TIP3    H124830   4.269   6.095  17.072 -0.8681 -0.5601  1.0997
 1113TIP3    H224831   4.150   6.168  17.012  0.2476  0.6317  0.2827
 1114TIP3   OH224832   1.548   4.571   4.454  0.8158  0.0205  0.6128
 1114TIP3    H124833   1.578   4.658   4.428 -0.4881  0.1817 -0.4358
 1114TIP3    H224834   1.486   4.587   4.525 -3.6136  0.5770 -2.9335
 1115TIP3   OH224835   2.034   6.038   0.563 -0.0360  0.7159  0.8193
 1115TIP3    H124836   2.073   5.968   0.616 -2.3779 -0.5683  0.9456
 1115TIP3    H224837   2.049   6.117   0.615 -0.1524 -0.1621  2.2525
 1116TIP3   OH224838   2.175   3.407  13.764 -0.2226  0.0644 -0.1333
 1116TIP3    H124839   2.113   3.418  13.836 -0.0997 -1.9406  0.3381
 1116TIP3    H224840   2.120   3.389  13.687 -0.2798 -0.7500  0.0883
 1117TIP3   OH224841   3.890   2.227   2.071  0.1493 -0.5078  0.0870
 1117TIP3    H124842   3.953   2.168   2.112 -0.8413 -0.3218  1.9818
 1117TIP3    H224843   3.853   2.176   1.999  1.8008 -0.9202 -0.5154
 1118TIP3   OH224844   1.545   6.577  15.955 -0.2221 -0.4027  0.2736
 1118TIP3    H124845   1.555   6.518  15.881 -2.4926 -0.4850 -0.0410
 1118TIP3    H224846   1.549   6.520  16.032  0.1152 -0.6062  0.1044
 1119TIP3   OH224847   2.643   3.301   0.888 -0.4123  0.6696  0.3070
 1119TIP3    H124848   2.577   3.250   0.934 -0.1870 -0.2840 -0.3875
 1119TIP3    H224849   2.695   3.341   0.958 -1.2768  0.8495  0.8604
 1120TIP3   OH224850   1.274   2.408  12.666 -0.5113 -0.3957 -0.2259
 1120TIP3    H124851   1.278   2.386  12.573 -1.2612  0.6151 -0.5162
 1120TIP3    H224852   1.328   2.341  12.709 -0.4045 -1.0562 -1.3457
 1121TIP3   OH224853   3.788   4.549  11.917  0.2245  0.0917 -0.1333
 1121TIP3    H124854   3.769   4.562  12.010  0.0292 -0.8799 -0.0289
 1121TIP3    H224855   3.771   4.456  11.902 -1.4776  0.5781 -1.5283
 1122TIP3   OH224856   6.744   0.145   4.852  0.2520  0.0087 -0.1002
 1122TIP3    H124857   6.681   0.151   4.780  0.6818 -1.6968 -0.6607
 1122TIP3    H224858   6.806   0.078   4.824  1.2663  0.3384  1.2476
 1123TIP3   OH224859   5.816   5.673  16.439  0.3538  0.0496  0.1796
 1123TIP3    H124860   5.848   5.640  16.523  2.1701 -1.1808 -0.9120
 1123TIP3    H224861   5.751   5.609  16.412 -0.2080  0.4284  0.6175
 1124TIP3   OH224862   1.508   4.814  12.483 -0.2411  0.8532 -0.1444
 1124TIP3    H124863   1.589   4.791  12.437 -0.2687  2.8831 -1.3702
 1124TIP3    H224864   1.442   4.818  12.413 -1.1352  0.4291  0.6587
 1125TIP3   OH224865   2.133   3.305   2.850  0.0236 -0.6261  0.6231
 1125TIP3    H124866   2.039   3.317   2.836  0.1460 -0.4565 -0.0869
 1125TIP3    H224867   2.169   3.289   2.763  0.8834  0.9274  0.6389
 1126TIP3   OH224868   3.041   2.117   0.128  0.5930 -0.0643 -0.0205
 1126TIP3    H124869   3.104   2.045   0.134  0.1637 -0.3698  0.9205
 1126TIP3    H224870   3.062   2.159   0.044  2.4715  0.2575  0.5662
 1127TIP3   OH224871   5.814   5.559  15.356 -0.3050  0.8874  0.3504
 1127TIP3    H124872   5.830   5.601  15.271 -1.7593 -0.6288 -0.7342
 1127TIP3    H224873   5.806   5.631  15.418  0.4254  2.0470 -0.8552
 1128TIP3   OH224874   2.748   1.587   3.152  0.1306 -0.0562  0.6024
 1128TIP3    H124875   2.771   1.496   3.169  0.7287 -0.1632 -0.6507
 1128TIP3    H224876   2.831   1.628   3.125 -0.2163  0.7574  0.7389
 1129TIP3   OH224877   2.781   4.964  13.718  0.1333 -0.5149 -0.0811
 1129TIP3    H124878   2.854   5.008  13.761  0.9292 -1.2255 -0.6822
 1129TIP3    H224879   2.821   4.891  13.671 -1.0482 -1.3310  0.1457
 1130TIP3   OH224880   6.778   5.955  12.169  0.7072  0.0636 -0.1253
 1130TIP3    H124881   6.779   5.862  12.147 -0.3156  0.1905 -0.7997
 1130TIP3    H224882   6.864   5.972  12.207  0.2850 -1.5474  1.7008
 1131TIP3   OH224883   0.068   6.077   0.488 -0.3693 -0.2249 -0.0813
 1131TIP3    H124884   0.108   6.022   0.421 -0.4052 -0.5269  0.1408
 1131TIP3    H224885   0.128   6.151   0.499  1.2399 -1.7195  1.7643
 1132TIP3   OH224886   5.729   3.668   1.173 -0.3690  0.5054  0.1007
 1132TIP3    H124887   5.746   3.602   1.240 -0.0792  0.8965  0.4210
 1132TIP3    H224888   5.685   3.621   1.102  0.6298 -0.2144 -0.0593
 1133TIP3   OH224889   3.725   6.519  16.426 -0.2589  0.1575  0.2189
 1133TIP3    H124890   3.777   6.447  16.390 -0.4313 -0.1557  0.5903
 1133TIP3    H224891   3.784   6.562  16.488  0.6145  1.7162 -1.5884
 1134TIP3   OH224892   5.737   2.370   3.851 -0.0236 -0.2753  0.0694
 1134TIP3    H124893   5.757   2.427   3.925  1.7969  1.3550 -1.5962
 1134TIP3    H224894   5.690   2.426   3.789 -0.4534 -1.2777 -0.5433
 1135TIP3   OH224895   1.729   1.148  13.622 -0.6502  0.0882  0.0885
 1135TIP3    H124896   1.707   1.099  13.702  0.2848  0.4069  0.5535
 1135TIP3    H224897   1.656   1.208  13.610 -3.5106 -3.4119 -2.2482
 1136TIP3   OH224898   2.378   0.995   1.942 -0.0583 -0.4233 -0.0538
 1136TIP3    H124899   2.322   0.929   1.900 -0.2080 -0.4177  0.1360
 1136TIP3    H224900   2.419   0.948   2.014  1.9570 -1.0795 -1.5196
 1137TIP3   OH224901   1.587   4.043   5.356  0.1238 -0.2096 -0.9596
 1137TIP3    H124902   1.558   3.967   5.305 -1.8157  0.1204 -0.4483
 1137TIP3    H224903   1.516   4.057   5.419  1.1593  1.1013 -0.0354
 1138TIP3   OH224904   6.542   3.826   3.867  0.2254 -0.0670 -0.4265
 1138TIP3    H124905   6.532   3.883   3.790  1.2550  0.9861  0.1815
 1138TIP3    H224906   6.481   3.863   3.932  1.0047  0.4501  0.0215
 1139TIP3   OH224907   4.766   5.347  11.787  0.1541 -0.4176 -0.2308
 1139TIP3    H124908   4.738   5.345  11.879 -0.8012 -0.5151 -0.5160
 1139TIP3    H224909   4.743   5.260  11.753  1.5635 -0.7984 -0.2673
 1140TIP3   OH224910   6.008   5.439   3.400  0.1794 -0.8185 -0.0104
 1140TIP3    H124911   6.049   5.484   3.474  0.4428 -1.4453  0.2315
 1140TIP3    H224912   5.915   5.463   3.406  0.6229  1.5589 -1.2364
 1141TIP3   OH224913   4.900   1.771  12.053  0.4086  0.3890  1.0267
 1141TIP3    H124914   4.897   1.816  12.137  0.7680  2.6113 -0.0869
 1141TIP3    H224915   4.980   1.803  12.011  0.2659 -0.7078 -0.1643
 1142TIP3   OH224916   2.953   5.808   6.117  0.1705 -0.2566  0.2950
 1142TIP3    H124917   3.018   5.738   6.126  0.5874  0.1536  0.4842
 1142TIP3    H224918   2.872   5.769   6.150 -0.1721 -1.4366 -1.7852
 1143TIP3   OH224919   5.034   6.363   0.911  0.4934  0.1675 -0.1114
 1143TIP3    H124920   4.961   6.418   0.941 -0.1963 -0.4751 -0.5714
 1143TIP3    H224921   5.106   6.384   0.971 -0.4965 -0.2118  1.2582
 1144TIP3   OH224922   3.870   4.066  16.162 -0.7761  0.9943 -0.0178
 1144TIP3    H124923   3.939   4.089  16.224  0.5368 -2.5852  0.0352
 1144TIP3    H224924   3.911   4.074  16.076 -0.4414 -0.5598 -0.0187
 1145TIP3   OH224925   3.612   3.437   1.798 -0.3903  0.2038  0.4272
 1145TIP3    H124926   3.640   3.526   1.776 -1.0335  0.3179  0.0606
 1145TIP3    H224927   3.572   3.444   1.884 -1.6338  0.5249 -0.1528
 1146TIP3   OH224928   2.562   2.888   1.144  0.1549  0.3038  0.1048
 1146TIP3    H124929   2.553   2.862   1.053  0.3134  1.3468 -0.2191
 1146TIP3    H224930   2.537   2.810   1.194  1.9869 -0.9484 -0.8163
 1147TIP3   OH224931   4.622   2.759   5.057  0.4547  0.4986 -0.5964
 1147TIP3    H124932   4.601   2.847   5.027  1.1701  0.6049 -0.7895
 1147TIP3    H224933   4.587   2.701   4.989 -0.3249  0.6080 -0.2992
 1148TIP3   OH224934   2.739   3.729   5.151  0.1612 -0.3116 -0.0785
 1148TIP3    H124935   2.700   3.754   5.067 -1.4357  1.4994  1.1270
 1148TIP3    H224936   2.711   3.637   5.163 -3.2464  0.6204  0.3087
 1149TIP3   OH224937   3.377   4.187  15.389 -0.5151  0.7946  0.5548
 1149TIP3    H124938   3.472   4.195  15.385 -0.2836 -1.6781 -0.5975
 1149TIP3    H224939   3.344   4.247  15.322  0.1637  2.0351  1.3008
 1150TIP3   OH224940   5.781   4.220   0.372 -0.0471  0.2068  0.0907
 1150TIP3    H124941   5.757   4.289   0.310  0.5081  2.2470  2.0233
 1150TIP3    H224942   5.874   4.205   0.357 -0.1781 -0.1716 -0.3621
 1151TIP3   OH224943   4.094   0.142   0.635 -0.1605 -0.4791  0.7197
 1151TIP3    H124944   4.105   0.165   0.728  1.5299  1.3566  0.1327
 1151TIP3    H224945   4.028   0.203   0.602  1.2868  0.8276  0.1198
 1152TIP3   OH224946   4.842   0.798   5.025  0.9679 -0.1091 -0.0017
 1152TIP3    H124947   4.923   0.779   5.072  0.5448  1.1361  1.3016
 1152TIP3    H224948   4.789   0.719   5.036  2.1745 -1.1436 -1.3296
 1153TIP3   OH224949   2.722   3.397   4.333 -0.2206 -0.4802 -0.1228
 1153TIP3    H124950   2.677   3.423   4.253  0.8809 -2.8798 -1.6499
 1153TIP3    H224951   2.809   3.369   4.303  0.0573 -1.9101  1.8308
 1154TIP3   OH224952   6.686   0.571   0.565 -0.7368 -0.0267  0.2462
 1154TIP3    H124953   6.769   0.546   0.605  0.0736  1.5750 -0.3782
 1154TIP3    H224954   6.698   0.555   0.471 -0.5315  1.6632 -0.0539
 1155TIP3   OH224955   5.030   4.679   1.291 -1.0897 -0.3117  0.0134
 1155TIP3    H124956   4.983   4.740   1.234  0.3619  0.3873 -0.5013
 1155TIP3    H224957   5.118   4.717   1.298 -0.5902 -1.5830  0.8916
 1156TIP3   OH224958   6.252   0.922  11.708 -0.2920 -0.0732 -0.2969
 1156TIP3    H124959   6.338   0.882  11.696 -0.3078 -0.3952  0.5777
 1156TIP3    H224960   6.202   0.857  11.756  0.0969  1.4324  2.3934
 1157TIP3   OH224961   5.273   0.171   4.905 -0.5030 -0.6425 -0.0051
 1157TIP3    H124962   5.284   0.079   4.929 -0.2664 -1.0197 -1.4971
 1157TIP3    H224963   5.279   0.217   4.989 -1.2982 -2.0200  0.8601
 1158TIP3   OH224964   3.802   5.513   4.639  0.1135  0.4445 -0.1839
 1158TIP3    H124965   3.855   5.574   4.690  2.2944 -2.2388  1.0309
 1158TIP3    H224966   3.729   5.490   4.696 -0.0087  0.9554 -0.1359
 1159TIP3   OH224967   6.511   4.822  14.275  0.3055  0.3451 -0.3797
 1159TIP3    H124968   6.420   4.814  14.304  0.9637 -0.8698  1.6313
 1159TIP3    H224969   6.561   4.830  14.357  2.0987 -0.3169 -1.3538
 1160TIP3   OH224970   3.037   5.804   4.847 -0.1551  0.6156 -0.0936
 1160TIP3    H124971   2.979   5.786   4.921  0.7809  0.9831  0.7487
 1160TIP3    H224972   2.999   5.754   4.775 -0.2754 -0.9296  0.9839
 1161TIP3   OH224973   2.592   4.293  14.324 -0.6155  0.0257 -0.3653
 1161TIP3    H124974   2.625   4.382  14.312 -0.4631 -0.1954 -1.6334
 1161TIP3    H224975   2.504   4.306  14.362  0.1498  0.6433  1.3179
 1162TIP3   OH224976   5.958   5.413   4.074 -0.7418  0.2979  0.0966
 1162TIP3    H124977   5.922   5.331   4.110 -0.7226 -0.2241 -1.0445
 1162TIP3    H224978   6.050   5.411   4.100 -0.7218 -0.0869  0.0144
 1163TIP3   OH224979   6.622   4.656  12.779  0.4188  0.0792  0.1790
 1163TIP3    H124980   6.700   4.621  12.736  0.8108  0.2959  0.7071
 1163TIP3    H224981   6.568   4.687  12.707  0.4359 -0.8417 -0.2465
 1164TIP3   OH224982   6.464   4.734  10.861  0.1450 -0.3457 -0.3236
 1164TIP3    H124983   6.495   4.753  10.773 -2.2575  1.2865 -0.9219
 1164TIP3    H224984   6.542   4.707  10.909  1.6683 -0.4549 -2.7045
 1165TIP3   OH224985   3.689   5.669   1.838  0.2130  0.1756 -0.0819
 1165TIP3    H124986   3.714   5.698   1.926  1.8662  0.4632 -0.6110
 1165TIP3    H224987   3.757   5.608   1.812  0.2617  0.8005 -1.5270
 1166TIP3   OH224988   5.764   1.082  15.450 -0.1836  0.8935 -1.3159
 1166TIP3    H124989   5.790   1.015  15.512 -0.3746  0.6736 -1.4702
 1166TIP3    H224990   5.689   1.044  15.404 -1.9361  2.1913  0.3394
 1167TIP3   OH224991   2.722   4.097  16.910  0.0748  0.7418 -0.1536
 1167TIP3    H124992   2.724   4.088  16.814  1.0126 -0.6043 -0.0365
 1167TIP3    H224993   2.739   4.008  16.942 -0.2679  1.1767  1.2725
 1168TIP3   OH224994   5.657   3.828  13.133 -0.2739  0.2782  0.7626
 1168TIP3    H124995   5.598   3.904  13.132 -1.8075 -0.8470  1.6741
 1168TIP3    H224996   5.666   3.804  13.041 -1.1421  0.5542  0.5948
 1169TIP3   OH224997   1.582   2.854   1.258  0.1628 -0.0103  0.3203
 1169TIP3    H124998   1.573   2.935   1.208 -2.5265 -0.4770 -0.1082
 1169TIP3    H224999   1.654   2.807   1.215 -0.6853  0.5422 -1.8248
 1170TIP3   OH225000   0.793   5.309   1.711  0.1522  0.3125  0.7137
 1170TIP3    H125001   0.751   5.296   1.625 -1.4623  0.2031  1.4823
 1170TIP3    H225002   0.887   5.307   1.692 -0.1615  0.3815 -1.0673
 1171TIP3   OH225003   3.695   1.435   5.148  0.1789 -0.1270 -0.3847
 1171TIP3    H125004   3.775   1.468   5.106  0.6908 -0.9596 -0.0835
 1171TIP3    H225005   3.658   1.374   5.084  1.2989 -1.8871  0.5626
 1172TIP3   OH225006   1.340   3.757  13.729 -0.4709  0.3357  0.4548
 1172TIP3    H125007   1.344   3.762  13.824  2.0655 -0.9354  0.4990
 1172TIP3    H225008   1.427   3.786  13.700  0.7112 -3.9560 -1.0921
 1173TIP3   OH225009   1.868   0.843  14.941  0.7476 -0.1160  0.1741
 1173TIP3    H125010   1.963   0.835  14.939  0.8798  1.3898 -1.8266
 1173TIP3    H225011   1.836   0.752  14.935  2.0893 -0.4755 -2.9007
 1174TIP3   OH225012   4.385   5.112   4.807 -0.3854 -0.8848  0.0342
 1174TIP3    H125013   4.422   5.024   4.797  2.0824  0.2088 -1.3619
 1174TIP3    H225014   4.290   5.098   4.805 -0.0843 -3.3509 -1.7888
 1175TIP3   OH225015   5.519   0.098   7.094  0.6905  0.5871 -0.2756
 1175TIP3    H125016   5.535   0.014   7.052 -0.6055  0.2298 -0.1054
 1175TIP3    H225017   5.435   0.087   7.138 -0.7661  2.6972 -2.2587
 1176TIP3   OH225018   4.080   4.953   2.841 -0.3166 -0.2899 -0.0721
 1176TIP3    H125019   4.125   4.964   2.758  2.4269 -1.3549  1.1442
 1176TIP3    H225020   4.062   4.859   2.846 -0.4152 -0.2450  0.5425
 1177TIP3   OH225021   2.527   5.918  11.924 -0.3997  0.1676  0.3098
 1177TIP3    H125022   2.540   5.855  11.995 -2.2371 -1.9763 -1.0614
 1177TIP3    H225023   2.435   5.944  11.933 -0.2532  0.9574 -0.4352
 1178TIP3   OH225024   3.441   3.261   1.045 -0.3952 -0.6743 -0.3936
 1178TIP3    H125025   3.416   3.223   1.129  0.7583 -1.8185 -0.5285
 1178TIP3    H225026   3.359   3.290   1.006 -0.8034  1.5334  1.8513
 1179TIP3   OH225027   2.892   6.814  12.907  0.0408  0.0249 -0.1424
 1179TIP3    H125028   2.884   6.729  12.864 -3.0662 -0.6557  1.4993
 1179TIP3    H225029   2.879   6.877  12.837 -2.3575 -1.0073 -0.7224
 1180TIP3   OH225030   4.911   4.812  11.402 -0.2584  0.0797 -0.2288
 1180TIP3    H125031   4.906   4.718  11.387 -0.2582 -0.0087  0.2946
 1180TIP3    H225032   4.825   4.845  11.377 -0.5603 -0.1916  0.4249
 1181TIP3   OH225033   5.764   2.126   6.168 -0.1841 -0.3480 -0.7138
 1181TIP3    H125034   5.771   2.173   6.251  0.7290 -0.5976 -0.6401
 1181TIP3    H225035   5.734   2.192   6.105  0.0240  0.0658 -0.3847
 1182TIP3   OH225036   1.564   5.234   2.313  0.0515  0.5690  0.0748
 1182TIP3    H125037   1.562   5.264   2.222 -2.5360 -0.9372 -0.4624
 1182TIP3    H225038   1.569   5.314   2.365 -3.4097  1.8835 -1.3595
 1183TIP3   OH225039   4.084   3.940  12.989 -0.4759 -0.0746 -0.0535
 1183TIP3    H125040   4.078   4.034  13.004 -1.7077  0.4091 -2.9123
 1183TIP3    H225041   4.103   3.903  13.075  0.6694  2.8063  1.0449
 1184TIP3   OH225042   0.366   2.418  14.832 -0.5111  0.5016  0.0985
 1184TIP3    H125043   0.295   2.481  14.842 -1.4301 -0.5063  0.0717
 1184TIP3    H225044   0.371   2.373  14.916 -1.5476 -1.0823 -0.6298
 1185TIP3   OH225045   1.364   2.116  13.268  0.3622 -0.8107  0.2225
 1185TIP3    H125046   1.427   2.168  13.219 -0.3345  0.1299  0.2979
 1185TIP3    H225047   1.401   2.110  13.357  0.2675 -0.1072  0.3155
 1186TIP3   OH225048   1.010   0.842  12.303 -0.1413 -0.2194 -0.0896
 1186TIP3    H125049   1.017   0.835  12.208 -4.6410  1.7056 -0.8359
 1186TIP3    H225050   1.037   0.932  12.323  0.0784 -0.3787  0.3476
 1187TIP3   OH225051   4.876   0.878   4.741  0.5881  0.0540 -0.3612
 1187TIP3    H125052   4.899   0.912   4.828 -0.5722  0.6215 -0.2649
 1187TIP3    H225053   4.885   0.783   4.750  0.3195  0.0948  0.4398
 1188TIP3   OH225054   5.592   0.947   0.037  0.2769 -0.1796 -0.4635
 1188TIP3    H125055   5.516   0.949   0.096  0.5976 -2.2793  0.1311
 1188TIP3    H225056   5.642   0.871   0.066  1.4735 -0.1372 -2.2481
 1189TIP3   OH225057   6.030   2.223  12.358 -0.4153 -0.1936 -0.6663
 1189TIP3    H125058   6.036   2.129  12.340  2.6138 -0.4230  0.8290
 1189TIP3    H225059   6.063   2.265  12.279 -0.3011 -0.4703 -0.7684
 1190TIP3   OH225060   0.809   4.299  10.383 -0.1928  0.2247 -0.5093
 1190TIP3    H125061   0.850   4.369  10.434  0.8214  0.4761 -1.6235
 1190TIP3    H225062   0.742   4.343  10.331 -0.4769  0.1434 -0.2160
 1191TIP3   OH225063   4.264   3.645   4.179  0.1246 -0.4323 -0.5071
 1191TIP3    H125064   4.330   3.642   4.109  0.4850 -0.7447 -0.1618
 1191TIP3    H225065   4.306   3.697   4.248  0.5869 -1.7938  0.2800
 1192TIP3   OH225066   6.228   2.566   4.140 -0.0800 -0.6399 -0.9651
 1192TIP3    H125067   6.188   2.613   4.067 -0.9227 -0.7990 -0.6203
 1192TIP3    H225068   6.225   2.627   4.213  0.0607 -0.7508 -0.8668
 1193TIP3   OH225069   4.357   5.780  13.433 -0.3203  0.5707 -0.1594
 1193TIP3    H125070   4.355   5.777  13.528 -0.3721  0.9993 -0.1424
 1193TIP3    H225071   4.267   5.761  13.406 -0.0691 -0.6566 -0.1685
 1194TIP3   OH225072   2.500   5.280   0.103  0.1517 -0.3570 -0.1674
 1194TIP3    H125073   2.447   5.349   0.143  0.2829  0.5500 -1.4919
 1194TIP3    H225074   2.591   5.304   0.122  0.1974 -0.1492 -0.6228
 1195TIP3   OH225075   3.181   2.268  11.178 -0.3905  0.4606 -0.0178
 1195TIP3    H125076   3.180   2.174  11.197 -0.9882  0.1886 -1.2860
 1195TIP3    H225077   3.130   2.307  11.249 -0.3965 -0.2062  0.3553
 1196TIP3   OH225078   5.699   5.931  16.961 -0.6805 -0.2297  0.4602
 1196TIP3    H125079   5.793   5.915  16.959 -0.5345  0.5583 -1.7412
 1196TIP3    H225080   5.664   5.880  16.887 -1.9214 -0.1962  0.9976
 1197TIP3   OH225081   6.821   2.736  16.155 -1.0270 -0.0231 -0.3606
 1197TIP3    H125082   6.856   2.665  16.101 -2.2039  0.3986 -1.7203
 1197TIP3    H225083   6.858   2.815  16.117  1.0410  0.1320  1.7206
 1198TIP3   OH225084   3.936   4.063   1.531  0.2867  0.2905 -0.2042
 1198TIP3    H125085   3.937   4.157   1.548  1.4556  1.1883 -4.2755
 1198TIP3    H225086   3.862   4.050   1.472 -0.4108 -1.5666  1.0018
 1199TIP3   OH225087   5.871   3.174  13.987  0.2302  0.7212  0.5876
 1199TIP3    H125088   5.852   3.263  14.015 -1.6760  0.4272  0.3576
 1199TIP3    H225089   5.945   3.183  13.927 -0.9972  2.3935 -0.7703
 1200TIP3   OH225090   3.500   6.579   0.270  0.2572 -0.2561  0.9267
 1200TIP3    H125091   3.588   6.574   0.308  0.9329 -0.9687 -0.6532
 1200TIP3    H225092   3.509   6.641   0.197 -0.9930  1.0252  1.8173
 1201TIP3   OH225093   1.895   5.003  16.032 -0.1042  0.4970 -0.5305
 1201TIP3    H125094   1.969   4.970  16.084 -0.5808  1.7222  1.0012
 1201TIP3    H225095   1.924   5.089  16.001 -0.1621  0.1432 -1.6122
 1202TIP3   OH225096   2.860   0.071  11.380  0.4127 -0.5218  0.9989
 1202TIP3    H125097   2.767   0.079  11.363  0.5666 -0.9784 -0.1547
 1202TIP3    H225098   2.902   0.084  11.295  1.3155 -1.6013  1.2457
 1203TIP3   OH225099   2.097   3.038   1.522  0.5368 -0.4391 -0.5749
 1203TIP3    H125100   2.119   2.958   1.570 -0.9195 -1.3726 -1.4009
 1203TIP3    H225101   2.149   3.033   1.441 -0.5114 -1.2296 -1.2238
 1204TIP3   OH225102   2.462   3.482   0.020  0.4424  0.1226  0.4205
 1204TIP3    H125103   2.426   3.396   0.003 -1.0089  0.9331 -0.9258
 1204TIP3    H225104   2.387   3.535   0.049  0.6852  1.5888 -1.4144
 1205TIP3   OH225105   0.605   0.048  15.593  0.1790  0.4664  0.1961
 1205TIP3    H125106   0.610  -0.040  15.556  0.4942 -0.0434  1.3835
 1205TIP3    H225107   0.581   0.104  15.520  2.9066 -0.1364 -1.3231
 1206TIP3   OH225108   2.333   5.109   2.232  0.6728 -0.3410  0.4854
 1206TIP3    H125109   2.365   5.029   2.189 -0.8823  0.0814 -1.6035
 1206TIP3    H225110   2.297   5.161   2.161 -1.7642  0.5831  2.2649
 1207TIP3   OH225111   2.310   4.509   2.418  0.4224 -0.5781  0.6072
 1207TIP3    H125112   2.338   4.574   2.353 -0.3963 -0.5150  0.3091
 1207TIP3    H225113   2.232   4.548   2.459  0.4132 -1.0095  1.0060
 1208TIP3   OH225114   6.304   4.660  11.117  0.6605 -0.1175  0.1407
 1208TIP3    H125115   6.372   4.688  11.055  0.0097  1.3154  0.0344
 1208TIP3    H225116   6.340   4.581  11.157  2.8142  1.0721  0.7436
 1209TIP3   OH225117   2.984   4.794   1.972 -0.1637 -0.5054  0.5137
 1209TIP3    H125118   3.031   4.741   2.036 -0.4582 -1.1267  0.2307
 1209TIP3    H225119   2.909   4.830   2.021  1.2808  1.6028  1.3299
 1210TIP3   OH225120   4.700   6.698   1.749  0.0957  0.4898 -0.8205
 1210TIP3    H125121   4.770   6.724   1.689 -0.4108  0.5734 -1.3907
 1210TIP3    H225122   4.619   6.726   1.705 -0.4641 -1.6367 -1.2583
 1211TIP3   OH225123   5.778   3.587  11.141 -0.5104 -0.4212  0.3431
 1211TIP3    H125124   5.723   3.633  11.204  0.6113 -0.9386  1.7553
 1211TIP3    H225125   5.795   3.502  11.181  1.8364 -0.0537  0.3261
 1212TIP3   OH225126   1.445   6.529   3.116  0.1120  0.3381  0.1393
 1212TIP3    H125127   1.368   6.586   3.109 -1.1456 -1.0115  1.8090
 1212TIP3    H225128   1.423   6.470   3.188  0.8306 -3.0221 -2.2143
 1213TIP3   OH225129   4.950   2.834  12.546 -0.2246 -0.1750 -0.1504
 1213TIP3    H125130   5.022   2.801  12.492  0.4999  1.3700 -0.2124
 1213TIP3    H225131   4.994   2.889  12.611 -1.1263 -1.6105  1.7359
 1214TIP3   OH225132   5.491   4.463  13.024  0.8355 -0.5708  0.1185
 1214TIP3    H125133   5.483   4.544  13.074  0.1505  2.0948 -3.8024
 1214TIP3    H225134   5.401   4.430  13.017  0.6814 -0.0372 -0.5806
 1215TIP3   OH225135   2.346   3.970  16.785 -0.2720 -0.0059  0.3688
 1215TIP3    H125136   2.370   3.994  16.696  0.3323  0.9633  0.7796
 1215TIP3    H225137   2.259   3.931  16.777  0.8383 -2.4709 -1.0197
 1216TIP3   OH225138   5.091   0.956  15.430 -0.2776  1.0166  0.0820
 1216TIP3    H125139   4.997   0.947  15.417 -0.0089 -0.1131 -1.3216
 1216TIP3    H225140   5.118   1.023  15.367 -0.3325  2.4357  1.5131
 1217TIP3   OH225141   4.699   4.453  16.132 -0.2360  0.2631 -0.1514
 1217TIP3    H125142   4.747   4.532  16.155  0.2530 -0.1081  0.1071
 1217TIP3    H225143   4.614   4.485  16.100 -1.0313  0.8105  2.2960
 1218TIP3   OH225144   1.520   1.840   1.409 -0.1310  0.6264 -0.1313
 1218TIP3    H125145   1.472   1.880   1.482 -1.0750 -0.0744 -0.3639
 1218TIP3    H225146   1.564   1.914   1.367 -0.3187  1.1625  0.5896
 1219TIP3   OH225147   4.751   4.939  13.931  0.7289 -0.3186 -0.1769
 1219TIP3    H125148   4.773   4.859  13.884 -1.7410 -1.3869  0.3368
 1219TIP3    H225149   4.716   4.998  13.863 -0.5846 -0.9638 -0.0865
 1220TIP3   OH225150   3.262   5.860   3.968 -0.1451  0.6146 -0.5160
 1220TIP3    H125151   3.329   5.914   3.925  0.8845  1.0778  1.5427
 1220TIP3    H225152   3.220   5.918   4.031  0.6322 -0.7631  1.3891
 1221TIP3   OH225153   3.692   6.081  16.477 -0.0850  0.4331 -0.4005
 1221TIP3    H125154   3.616   6.102  16.532 -0.4984 -0.5846 -0.5537
 1221TIP3    H225155   3.766   6.084  16.537 -0.4919 -0.3630  0.1712
 1222TIP3   OH225156   2.849   5.570  13.135 -0.4353  0.3003  0.3108
 1222TIP3    H125157   2.929   5.623  13.135 -1.0916  1.4012  2.2967
 1222TIP3    H225158   2.859   5.510  13.209 -0.7208 -0.7755 -0.4936
 1223TIP3   OH225159   4.738   5.163  15.210 -0.0530  0.0797  0.3336
 1223TIP3    H125160   4.791   5.084  15.221 -1.3456 -1.0369 -1.0211
 1223TIP3    H225161   4.682   5.166  15.287 -0.8200 -1.0224 -0.1581
 1224TIP3   OH225162   3.616   1.652  16.625 -0.0405 -0.1137  0.5314
 1224TIP3    H125163   3.690   1.656  16.565 -1.1532 -1.4992 -1.0290
 1224TIP3    H225164   3.641   1.709  16.698  1.9428  0.5469 -0.5862
 1225TIP3   OH225165   6.125   2.141   2.992  0.7705  0.3830  0.2392
 1225TIP3    H125166   6.037   2.167   2.968  0.5279  0.0810  0.7806
 1225TIP3    H225167   6.125   2.045   2.981  0.2262  0.0474  2.7181
 1226TIP3   OH225168   1.326   2.335  14.514  0.2663 -0.4926  0.0967
 1226TIP3    H125169   1.293   2.419  14.483  0.7083 -0.5278 -0.4948
 1226TIP3    H225170   1.252   2.275  14.502  0.4063 -0.4950 -0.8926
 1227TIP3   OH225171   0.611   0.650   4.960  0.1674 -0.1765 -0.3091
 1227TIP3    H125172   0.693   0.697   4.947  0.3016  0.1423  1.5239
 1227TIP3    H225173   0.589   0.663   5.052 -2.6556  0.9126 -1.0147
 1228TIP3   OH225174   1.084   2.592  12.694 -0.5539  0.1379  0.1046
 1228TIP3    H125175   1.150   2.523  12.702 -0.7203  0.0563  0.8285
 1228TIP3    H225176   1.016   2.567  12.757  0.1356  1.8173  1.5711
 1229TIP3   OH225177   4.092   3.832  12.721 -0.2164 -0.1593  0.5297
 1229TIP3    H125178   4.090   3.853  12.815  1.1070 -0.6749  0.6910
 1229TIP3    H225179   4.025   3.888  12.683 -0.5192  0.3332  1.7316
 1230TIP3   OH225180   0.207   3.440   1.003 -0.0345  1.1085  0.7112
 1230TIP3    H125181   0.298   3.469   0.991 -0.7314  2.6353 -1.3624
 1230TIP3    H225182   0.205   3.352   0.966  0.4094  1.3916 -0.0054
 1231TIP3   OH225183   6.315   3.279  14.689 -0.0815 -0.1261 -0.0556
 1231TIP3    H125184   6.280   3.269  14.600  0.7631 -0.1700 -0.3916
 1231TIP3    H225185   6.328   3.190  14.721 -1.3090 -0.1285  0.5047
 1232TIP3   OH225186   5.842   3.285  13.144  0.3578  0.1566  0.3315
 1232TIP3    H125187   5.810   3.314  13.059 -1.4046 -3.1474 -0.2803
 1232TIP3    H225188   5.790   3.335  13.208 -0.3766  0.5507 -0.5505
 1233TIP3   OH225189   4.514   2.484   1.253 -0.2849  0.7841 -0.4485
 1233TIP3    H125190   4.564   2.465   1.174  1.5701 -1.3269  1.1116
 1233TIP3    H225191   4.580   2.486   1.323 -2.2227 -1.1576  1.5852
 1234TIP3   OH225192   3.497   6.787   1.909 -0.1400 -0.2550  0.2325
 1234TIP3    H125193   3.422   6.844   1.922 -0.8070 -0.5738 -1.8173
 1234TIP3    H225194   3.573   6.841   1.932 -0.7254  1.5982 -1.8879
 1235TIP3   OH225195   0.826   5.445  11.929  0.0855  0.7049 -0.5311
 1235TIP3    H125196   0.862   5.521  11.974 -0.8661  0.1652  1.2242
 1235TIP3    H225197   0.842   5.462  11.836 -1.9969  4.1419 -0.4370
 1236TIP3   OH225198   6.687   0.747   5.090 -0.0057 -0.3773  0.1756
 1236TIP3    H125199   6.673   0.687   5.017 -1.5964 -0.0868  0.2091
 1236TIP3    H225200   6.713   0.829   5.049  0.6632 -0.6366  0.0516
 1237TIP3   OH225201   6.654   4.042  11.624  0.0200 -0.4725  0.0130
 1237TIP3    H125202   6.739   4.026  11.667 -0.5880 -0.2417  1.3697
 1237TIP3    H225203   6.601   3.967  11.648 -1.1545  0.8716  1.9246
 1238TIP3   OH225204   4.826   4.905  16.454  0.9019 -0.1622 -0.2516
 1238TIP3    H125205   4.784   4.990  16.466  0.7948 -0.5005  2.2884
 1238TIP3    H225206   4.920   4.925  16.449  0.8632  0.1346  0.1743
 1239TIP3   OH225207   5.576   4.888  15.498  0.3888 -0.8686  0.1628
 1239TIP3    H125208   5.628   4.911  15.574  3.4188 -3.6026 -0.8708
 1239TIP3    H225209   5.584   4.964  15.440  2.3980 -0.7633  0.5040
 1240TIP3   OH225210   2.571   3.321  15.353 -0.0574 -0.2373  0.0980
 1240TIP3    H125211   2.543   3.260  15.420  0.0589  0.2879  0.6323
 1240TIP3    H225212   2.624   3.386  15.399  1.2758 -0.6886 -0.7361
 1241TIP3   OH225213   0.558   2.837   2.938  0.3769 -0.4107 -0.6572
 1241TIP3    H125214   0.627   2.898   2.962 -0.5266 -0.1202  1.4677
 1241TIP3    H225215   0.566   2.827   2.843  1.3308  2.0290 -0.8960
 1242TIP3   OH225216   1.019   5.805   1.389 -0.2215  0.3946  0.0239
 1242TIP3    H125217   1.033   5.772   1.477 -1.2655  1.1823  0.5129
 1242TIP3    H225218   0.927   5.783   1.370 -0.5736  1.9107 -0.1057
 1243TIP3   OH225219   6.026   0.381   1.039 -0.0221 -0.2358  0.0404
 1243TIP3    H125220   5.994   0.311   1.095  0.3820 -1.2600 -0.9756
 1243TIP3    H225221   6.091   0.339   0.982 -1.0253  0.5687 -1.7720
 1244TIP3   OH225222   5.092   1.866   2.872 -0.2546 -0.9106 -0.2705
 1244TIP3    H125223   5.137   1.833   2.950 -0.4677 -3.2166 -1.0471
 1244TIP3    H225224   5.149   1.935   2.839 -1.1429  1.5891  2.9971
 1245TIP3   OH225225   3.909   6.241  15.945 -0.1370 -0.1787  0.5195
 1245TIP3    H125226   3.877   6.200  15.865 -1.2323  0.2694  0.7111
 1245TIP3    H225227   3.960   6.172  15.988  1.6290 -0.0283 -1.1822
 1246TIP3   OH225228   2.901   4.917  16.987 -0.0843 -0.1664  0.1960
 1246TIP3    H125229   2.829   4.884  16.934 -0.8232 -0.9498  1.6239
 1246TIP3    H225230   2.979   4.873  16.952 -0.4775 -0.3167 -0.5053
 1247TIP3   OH225231   1.917   5.175   1.035  0.0951 -0.2191  0.2811
 1247TIP3    H125232   1.955   5.221   0.960  1.2777  0.2900  1.1636
 1247TIP3    H225233   1.978   5.103   1.052  0.4050  0.2857  1.3871
 1248TIP3   OH225234   2.338   3.044   1.782 -0.4139  0.1257  0.4715
 1248TIP3    H125235   2.297   3.124   1.750  1.6726  0.7176 -0.9704
 1248TIP3    H225236   2.363   3.064   1.872 -0.7801  0.7334  0.4411
 1249TIP3   OH225237   6.061   6.102  14.328  0.1153  0.3814  0.0496
 1249TIP3    H125238   5.966   6.112  14.339 -0.0165  2.3403 -2.1208
 1249TIP3    H225239   6.074   6.010  14.306 -1.4109  0.2855 -0.5430
 1250TIP3   OH225240   3.913   5.192  12.789 -0.4025 -0.0856 -0.1033
 1250TIP3    H125241   3.958   5.211  12.706  1.5566 -1.5705  0.5420
 1250TIP3    H225242   3.982   5.191  12.854 -1.8879  0.8612  1.5760
 1251TIP3   OH225243   0.333   5.705   2.363  0.8559 -0.2466  0.1832
 1251TIP3    H125244   0.243   5.680   2.387  1.4755 -0.9491  1.9049
 1251TIP3    H225245   0.340   5.797   2.388  0.5341 -0.0968 -0.2567
 1252TIP3   OH225246   5.635   0.332  17.030 -0.2234  0.0352  0.5153
 1252TIP3    H125247   5.611   0.244  17.059  2.2666 -0.5898  0.9211
 1252TIP3    H225248   5.624   0.331  16.935 -0.2876 -0.6682  0.5285
 1253TIP3   OH225249   4.579   3.655   1.189  0.0532 -0.5447  0.3702
 1253TIP3    H125250   4.597   3.604   1.110 -2.1370  0.3161 -0.7452
 1253TIP3    H225251   4.510   3.606   1.234 -1.4841  0.9077 -0.2899
 1254TIP3   OH225252   5.689   6.534  12.275  0.5037 -0.6322  0.3951
 1254TIP3    H125253   5.608   6.497  12.309 -0.5472  0.2957 -0.9544
 1254TIP3    H225254   5.660   6.612  12.226  2.2414 -0.1322  0.1061
 1255TIP3   OH225255   1.091   1.496  12.465  0.2032  0.3900  0.0885
 1255TIP3    H125256   1.115   1.564  12.527 -1.9511  1.0016  0.3443
 1255TIP3    H225257   1.054   1.426  12.519  0.2161  0.0351 -0.3558
 1256TIP3   OH225258   1.713   0.948   1.762 -0.1946  0.6783 -0.0094
 1256TIP3    H125259   1.760   0.923   1.682  1.4558 -2.0925  1.6649
 1256TIP3    H225260   1.738   1.039   1.777  1.5636  0.4608 -1.2838
 1257TIP3   OH225261   4.075   2.364   0.846 -0.0204  0.1410 -0.0561
 1257TIP3    H125262   4.070   2.451   0.885 -0.5110  0.9086 -1.7775
 1257TIP3    H225263   4.165   2.336   0.861 -0.2270  0.2894  1.7736
 1258TIP3   OH225264   3.828   0.414   5.466  0.1038  0.3135 -0.1759
 1258TIP3    H125265   3.894   0.355   5.430 -0.5772 -0.9501  0.5747
 1258TIP3    H225266   3.758   0.356   5.496 -1.7060  1.6601 -1.6094
 1259TIP3   OH225267   5.895   3.068   3.884 -0.1954 -0.4736  0.1263
 1259TIP3    H125268   5.892   3.153   3.841  1.7649  0.7149  2.1183
 1259TIP3    H225269   5.808   3.057   3.923  0.1268  1.6995  1.6394
 1260TIP3   OH225270   4.844   4.062   1.822 -0.1196 -0.8528  0.3451
 1260TIP3    H125271   4.930   4.094   1.797 -0.9921  0.7225 -0.8044
 1260TIP3    H225272   4.790   4.072   1.744 -2.1408  1.1850  1.8645
 1261TIP3   OH225273   0.436   1.619   4.386 -0.2158  0.4836 -0.0878
 1261TIP3    H125274   0.369   1.656   4.444 -0.8423  1.7557 -1.5481
 1261TIP3    H225275   0.420   1.525   4.388 -0.7999  0.5830  1.0765
 1262TIP3   OH225276   2.210   1.769  10.674 -0.2306 -0.0165  0.3817
 1262TIP3    H125277   2.218   1.738  10.764 -2.3125 -0.8334  0.3614
 1262TIP3    H225278   2.237   1.695  10.621 -3.1017 -1.2101  0.3658
 1263TIP3   OH225279   5.078   6.253   0.192 -0.5333 -0.0641  0.4083
 1263TIP3    H125280   5.127   6.264   0.273  0.2290 -0.0118 -0.0503
 1263TIP3    H225281   5.132   6.195   0.138 -0.7345  0.3857 -0.2969
 1264TIP3   OH225282   0.470   6.606   5.870  0.4948 -0.5420  0.1475
 1264TIP3    H125283   0.501   6.603   5.960 -0.8637  0.7763  0.7007
 1264TIP3    H225284   0.441   6.697   5.857 -1.7212 -1.3014 -0.7578
 1265TIP3   OH225285   4.021   0.518  12.460  0.4777 -0.0718 -0.0896
 1265TIP3    H125286   3.987   0.428  12.460 -0.2535  0.1887  0.8827
 1265TIP3    H225287   4.073   0.524  12.541 -0.6794  0.8022  0.6161
 1266TIP3   OH225288   1.484   0.731  15.029  0.0820  0.1629 -0.1228
 1266TIP3    H125289   1.485   0.641  14.996  0.7708 -0.3088  1.0883
 1266TIP3    H225290   1.398   0.740  15.071  0.4839 -0.3789  0.8518
 1267TIP3   OH225291   2.551   4.527   0.983 -0.1484 -0.3689 -0.0459
 1267TIP3    H125292   2.526   4.573   1.064  0.8716 -0.2627  0.2309
 1267TIP3    H225293   2.647   4.537   0.979 -0.0266 -1.5941 -0.5201
 1268TIP3   OH225294   5.529   0.379   5.427 -0.4468 -0.5450 -0.1285
 1268TIP3    H125295   5.472   0.453   5.449 -0.8911 -0.9227  0.0059
 1268TIP3    H225296   5.614   0.403   5.464 -1.1447 -1.1044  1.9717
 1269TIP3   OH225297   6.270   2.794  16.126 -0.2783 -1.0783 -1.0447
 1269TIP3    H125298   6.349   2.810  16.074  1.1939  0.1208  1.3710
 1269TIP3    H225299   6.202   2.846  16.083  1.1286  0.7012 -1.2398
 1270TIP3   OH225300   5.059   2.411  14.448  0.0829  0.0601  0.0754
 1270TIP3    H125301   5.133   2.460  14.412 -0.1067 -0.7806 -1.5450
 1270TIP3    H225302   5.035   2.459  14.528  1.9382  0.7132  0.2825
 1271TIP3   OH225303   4.652   6.579   3.524  0.1164  0.1545 -0.4650
 1271TIP3    H125304   4.707   6.568   3.446 -1.0016 -0.7579 -1.1805
 1271TIP3    H225305   4.571   6.617   3.490 -0.4233 -0.3544  0.2222
 1272TIP3   OH225306   5.801   3.762  15.353  0.3308 -0.1728 -0.1173
 1272TIP3    H125307   5.887   3.779  15.391 -0.1907  0.8241  0.6850
 1272TIP3    H225308   5.739   3.789  15.421 -0.6315  0.6058 -1.2600
 1273TIP3   OH225309   2.544   1.690   3.310 -0.0762 -0.3838 -0.2594
 1273TIP3    H125310   2.631   1.685   3.271  0.3337  0.6240  0.4933
 1273TIP3    H225311   2.486   1.648   3.246  1.2837 -3.4028  0.3072
 1274TIP3   OH225312   1.857   1.813  12.110 -0.4235 -0.0993 -0.6570
 1274TIP3    H125313   1.879   1.735  12.160 -1.8269  0.8100  1.5285
 1274TIP3    H225314   1.936   1.832  12.059  0.1021 -2.6341 -0.9189
 1275TIP3   OH225315   1.431   4.097  17.006 -0.1601 -0.7918 -0.6143
 1275TIP3    H125316   1.355   4.092  17.064 -1.0326  0.2901 -1.6116
 1275TIP3    H225317   1.461   4.007  16.997 -1.1951 -1.2103 -0.0397
 1276TIP3   OH225318   1.290   4.584   5.587  0.6118  0.4716  0.4099
 1276TIP3    H125319   1.381   4.566   5.609  1.1279  0.1676 -1.7101
 1276TIP3    H225320   1.293   4.622   5.499 -1.2976  0.6083  0.3460
 1277TIP3   OH225321   6.514   5.117  12.432  0.3422 -0.3054  0.2804
 1277TIP3    H125322   6.565   5.140  12.509 -0.0087 -1.2485  0.8134
 1277TIP3    H225323   6.556   5.163  12.360  1.3205 -0.2614  0.8677
 1278TIP3   OH225324   4.235   3.165   5.260 -0.2267 -0.6340  0.3394
 1278TIP3    H125325   4.242   3.192   5.169 -1.5440 -2.8027 -0.4691
 1278TIP3    H225326   4.225   3.070   5.257  0.5387 -0.8748  2.8011
 1279TIP3   OH225327   0.026   3.906   4.548  0.2277 -0.1528  0.3425
 1279TIP3    H125328   0.107   3.880   4.591 -0.1298 -1.9077  0.0067
 1279TIP3    H225329  -0.028   3.827   4.547  0.4897 -0.5046 -3.9617
 1280TIP3   OH225330   4.403   0.702   1.609 -0.2720 -0.1206  0.9788
 1280TIP3    H125331   4.457   0.722   1.532  0.1849  1.0132  1.5711
 1280TIP3    H225332   4.394   0.606   1.608 -1.3261 -0.0681 -1.1707
 1281TIP3   OH225333   4.865   1.624   2.366 -0.5699  0.0238 -0.1253
 1281TIP3    H125334   4.825   1.658   2.446 -0.6869 -0.4647  0.0295
 1281TIP3    H225335   4.876   1.701   2.310 -0.7371  0.3283  0.2532
 1282TIP3   OH225336   1.463   2.965  10.836 -0.0529 -0.0720  1.3096
 1282TIP3    H125337   1.416   3.038  10.877  2.1582  2.5853 -0.5312
 1282TIP3    H225338   1.430   2.963  10.746  0.3072 -1.0229  1.1867
 1283TIP3   OH225339   4.120   4.091   6.035  0.4859 -0.2688  0.0123
 1283TIP3    H125340   4.063   4.023   6.073 -0.0597 -0.5414 -1.2513
 1283TIP3    H225341   4.202   4.046   6.017  0.2450 -0.5099 -0.4916
 1284TIP3   OH225342   1.210   3.367  11.258  0.1986 -0.9296  0.1591
 1284TIP3    H125343   1.175   3.429  11.322  1.9104 -0.4076  0.6433
 1284TIP3    H225344   1.194   3.410  11.173 -0.8443 -0.9954  0.3018
 1285TIP3   OH225345   1.867   5.237  15.234 -0.5543  0.4227  1.0019
 1285TIP3    H125346   1.832   5.262  15.148  1.0737  0.9619  0.4511
 1285TIP3    H225347   1.862   5.317  15.286  2.1542  1.2823  0.0926
 1286TIP3   OH225348   4.153   1.463   4.445 -0.2424 -0.1711  0.1598
 1286TIP3    H125349   4.109   1.543   4.414 -0.5090 -0.5872 -0.5486
 1286TIP3    H225350   4.239   1.494   4.474  0.3664  0.1358 -1.8044
 1287TIP3   OH225351   0.785   6.741  11.800 -0.3032 -0.1916 -0.1542
 1287TIP3    H125352   0.823   6.727  11.886  0.2557 -0.6452 -0.4704
 1287TIP3    H225353   0.714   6.678  11.794 -0.0401 -0.4807 -0.2108
 1288TIP3   OH225354   1.526   6.279   3.296  0.5218 -0.6762  0.1250
 1288TIP3    H125355   1.475   6.230   3.361 -1.6809 -2.1565 -2.5225
 1288TIP3    H225356   1.548   6.362   3.340 -1.1884 -1.4304  2.5918
 1289TIP3   OH225357   2.231   0.967  12.306  0.3943  0.2890  0.0604
 1289TIP3    H125358   2.230   0.906  12.233  1.0665 -0.3128  0.5395
 1289TIP3    H225359   2.140   0.968  12.336  0.0946  0.6201 -0.8365
 1290TIP3   OH225360   3.252   2.009  11.963 -0.1668  0.0629 -0.3385
 1290TIP3    H125361   3.198   1.939  11.929 -1.0872 -0.0261  1.2023
 1290TIP3    H225362   3.230   2.013  12.056  1.7726  0.6677  0.1445
 1291TIP3   OH225363   5.555   4.937  14.947 -0.2106  0.3021 -0.0732
 1291TIP3    H125364   5.580   4.856  14.990 -0.3094  0.9056  1.1717
 1291TIP3    H225365   5.566   4.920  14.853  2.7532 -0.1566  0.2714
 1292TIP3   OH225366   4.630   1.859   2.033 -0.2169 -0.4807  0.5428
 1292TIP3    H125367   4.579   1.855   2.113 -0.3925 -0.9828  0.4082
 1292TIP3    H225368   4.718   1.832   2.059  0.3150  1.4806  1.0167
 1293TIP3   OH225369   1.615   3.465  16.690  0.1935 -0.4525 -0.2882
 1293TIP3    H125370   1.670   3.532  16.730 -0.0187 -0.8165  0.6585
 1293TIP3    H225371   1.593   3.499  16.604 -1.2633  1.4562  0.7638
 1294TIP3   OH225372   2.442   0.074   5.437  0.5473  0.1996  0.3765
 1294TIP3    H125373   2.405   0.019   5.368  3.2656 -1.8036  0.3377
 1294TIP3    H225374   2.523   0.109   5.400  1.8306 -0.5357  2.3068
 1295TIP3   OH225375   2.742   1.784   0.799  0.1129  0.1576  0.1184
 1295TIP3    H125376   2.807   1.828   0.744 -0.9284  0.3347 -1.0182
 1295TIP3    H225377   2.769   1.692   0.799 -0.3096  0.0027 -1.4016
 1296TIP3   OH225378   1.666   0.427   0.832  0.2596  0.2641  0.1867
 1296TIP3    H125379   1.590   0.412   0.775  1.0931 -2.0402 -0.4598
 1296TIP3    H225380   1.714   0.498   0.790 -0.7152  0.6677 -0.2776
 1297TIP3   OH225381   5.611   1.032  12.311  0.2223 -0.0697 -0.8477
 1297TIP3    H125382   5.590   0.950  12.266  2.2892 -0.7267 -0.7400
 1297TIP3    H225383   5.539   1.091  12.289 -1.5156 -2.0024 -0.6468
 1298TIP3   OH225384   2.109   4.079   2.919 -0.0894  0.4701 -0.2458
 1298TIP3    H125385   2.098   3.984   2.927  0.5434  0.3642 -0.5971
 1298TIP3    H225386   2.112   4.095   2.825 -2.6696  1.1467 -0.2922
 1299TIP3   OH225387   1.604   4.599   1.540  0.2112 -0.2474 -0.4506
 1299TIP3    H125388   1.514   4.572   1.525  0.8081 -1.5201 -2.0847
 1299TIP3    H225389   1.656   4.545   1.480  1.9533  1.3342 -0.4754
 1300TIP3   OH225390   5.387   6.707   1.147  0.1501  0.2912 -0.3274
 1300TIP3    H125391   5.445   6.633   1.126  1.5461  1.3389 -0.2508
 1300TIP3    H225392   5.336   6.720   1.067  2.1252  1.2390 -1.5042
 1301TIP3   OH225393   2.791   3.623   6.230  0.4409 -0.0010  0.1038
 1301TIP3    H125394   2.714   3.668   6.265  0.3411 -0.1597  0.0919
 1301TIP3    H225395   2.784   3.633   6.135 -0.1129 -0.8834  0.0400
 1302TIP3   OH225396   2.085   6.785  15.437 -0.6668 -0.1736  0.3492
 1302TIP3    H125397   2.002   6.814  15.476 -2.7827 -1.5642 -2.6908
 1302TIP3    H225398   2.109   6.708  15.488 -1.1380  0.3624  1.4109
 1303TIP3   OH225399   4.681   1.846  15.793 -0.1102  0.2835 -0.1455
 1303TIP3    H125400   4.701   1.801  15.875  1.4781 -1.3209 -1.3232
 1303TIP3    H225401   4.680   1.939  15.816 -1.3582 -0.2021  1.9633
 1304TIP3   OH225402   5.495   4.613   2.850  0.2394 -0.9513 -0.3685
 1304TIP3    H125403   5.553   4.686   2.872 -1.5624  1.6238 -3.3614
 1304TIP3    H225404   5.407   4.645   2.869 -0.6068 -2.4725 -1.4716
 1305TIP3   OH225405   4.268   2.963  14.934 -0.3528  0.2605 -0.1597
 1305TIP3    H125406   4.355   3.002  14.931  0.0920 -0.6795  0.3892
 1305TIP3    H225407   4.280   2.872  14.907 -1.4208  0.5202 -1.6591
 1306TIP3   OH225408   1.108   6.755   0.255 -0.1293  0.2435  0.4626
 1306TIP3    H125409   1.103   6.848   0.232 -0.2312  0.1857  0.2500
 1306TIP3    H225410   1.041   6.713   0.200  0.9410 -0.1796 -0.5611
 1307TIP3   OH225411   2.282   5.090  16.007  0.5231 -0.2126  0.5876
 1307TIP3    H125412   2.367   5.127  16.030  0.7089  0.4261 -1.0124
 1307TIP3    H225413   2.274   5.105  15.913  0.3047 -3.6208 -0.0571
 1308TIP3   OH225414   4.167   1.365  14.423  0.0407 -0.4998 -0.0545
 1308TIP3    H125415   4.261   1.380  14.413  0.0676 -1.3327 -1.2665
 1308TIP3    H225416   4.161   1.283  14.472 -0.0379 -0.8928 -0.7124
 1309TIP3   OH225417   3.625   4.639   3.504  0.5321 -0.2755 -0.2310
 1309TIP3    H125418   3.563   4.688   3.449  0.6701 -0.4958 -0.5856
 1309TIP3    H225419   3.711   4.665   3.471  0.6787  0.7953  0.9075
 1310TIP3   OH225420   1.768   5.117  11.144 -0.0301  0.1843  0.8069
 1310TIP3    H125421   1.832   5.050  11.167 -0.5100 -0.6809 -0.2835
 1310TIP3    H225422   1.740   5.154  11.228  0.9364 -0.3163  1.3631
 1311TIP3   OH225423   2.385   1.562  13.187  0.4754  0.0906  0.1624
 1311TIP3    H125424   2.297   1.600  13.184 -0.4358 -1.9911 -1.0945
 1311TIP3    H225425   2.370   1.469  13.203  2.2903 -0.7503 -2.5030
 1312TIP3   OH225426   5.411   1.624  17.107 -0.4405 -0.4037  0.1816
 1312TIP3    H125427   5.446   1.565  17.040  1.7697  0.6733  0.2972
 1312TIP3    H225428   5.316   1.619  17.096 -0.2050 -1.6366 -1.8149
 1313TIP3   OH225429   1.223   2.456  14.022  0.0113  0.4521 -0.1653
 1313TIP3    H125430   1.310   2.450  14.061  0.1808  0.0632 -0.5782
 1313TIP3    H225431   1.163   2.465  14.096  0.4697  1.6273  0.0815
 1314TIP3   OH225432   3.867   1.770  16.079 -0.4345  0.4098  0.8210
 1314TIP3    H125433   3.949   1.744  16.037 -1.5418  2.6017 -3.3071
 1314TIP3    H225434   3.888   1.777  16.172  4.0779  0.8938 -0.0308
 1315TIP3   OH225435   5.840   3.598   3.142  0.2222 -0.3105 -0.2587
 1315TIP3    H125436   5.818   3.539   3.070  0.0258  0.6123 -0.9752
 1315TIP3    H225437   5.759   3.608   3.192 -0.5392  1.4764 -1.7235
 1316TIP3   OH225438   3.839   2.213   2.518  0.1380 -0.1687  0.2256
 1316TIP3    H125439   3.897   2.168   2.580 -0.0482  0.9633  1.2685
 1316TIP3    H225440   3.896   2.277   2.474  0.3404 -1.1767 -1.0443
 1317TIP3   OH225441   5.317   2.905  11.147  0.8387  0.2936  0.1828
 1317TIP3    H125442   5.322   2.896  11.242  0.9542 -0.2558  0.1250
 1317TIP3    H225443   5.249   2.844  11.120  0.6836  0.5761 -0.0748
 1318TIP3   OH225444   5.806   3.842  16.531 -0.4510  0.1497 -0.0930
 1318TIP3    H125445   5.853   3.823  16.612  2.7308  2.1845 -1.2700
 1318TIP3    H225446   5.749   3.915  16.553  0.3969  0.6917  0.3473
 1319TIP3   OH225447   0.978   3.224   1.182 -0.1472 -0.4242  0.1317
 1319TIP3    H125448   0.993   3.145   1.234  1.5427  0.5582  1.2163
 1319TIP3    H225449   1.045   3.220   1.114 -1.3858 -0.9316 -1.1034
 1320TIP3   OH225450   4.855   4.097  13.685  0.2225 -0.2031 -0.3967
 1320TIP3    H125451   4.903   4.147  13.751  1.6675 -1.3521 -0.5272
 1320TIP3    H225452   4.900   4.013  13.681 -1.3717 -1.0642 -1.0849
 1321TIP3   OH225453   1.377   6.193   6.631 -0.2203 -0.3700 -0.3364
 1321TIP3    H125454   1.399   6.286   6.632  1.2457 -0.7119  0.7049
 1321TIP3    H225455   1.360   6.174   6.538  0.6398  0.6611 -0.7230
 1322TIP3   OH225456   5.291   4.542  16.136 -0.2114 -0.3080  0.4046
 1322TIP3    H125457   5.287   4.589  16.053 -1.9395 -0.1109  0.5611
 1322TIP3    H225458   5.384   4.544  16.160  0.0099  1.6026 -0.4083
 1323TIP3   OH225459   0.971   6.134   3.171  0.7621  0.1392 -0.1864
 1323TIP3    H125460   0.944   6.139   3.079  0.7078  0.7363 -0.1388
 1323TIP3    H225461   0.988   6.225   3.196  2.4395 -0.1572 -0.1132
 1324TIP3   OH225462   0.049   6.364  12.814 -0.1981  0.0821  0.5196
 1324TIP3    H125463  -0.018   6.363  12.882  0.8859  1.0440  1.6757
 1324TIP3    H225464   0.004   6.337  12.734 -2.1227  1.3916  1.0997
 1325TIP3   OH225465   6.376   5.373   1.377 -0.4046  0.2195  0.7068
 1325TIP3    H125466   6.429   5.302   1.341 -1.8929 -1.5965  1.9093
 1325TIP3    H225467   6.288   5.356   1.342 -0.9047  1.1074  1.4955
 1326TIP3   OH225468   3.494   2.508   1.891 -0.3227  0.5947 -0.4965
 1326TIP3    H125469   3.443   2.563   1.952  0.3924  0.2770  0.4103
 1326TIP3    H225470   3.436   2.496   1.816 -1.4812  0.4838  0.3862
 1327TIP3   OH225471   4.483   6.489   0.393  0.0931 -0.0447  0.5271
 1327TIP3    H125472   4.556   6.537   0.353 -0.9644  1.2398  0.0794
 1327TIP3    H225473   4.446   6.439   0.321 -1.7478  2.1895 -0.1869
 1328TIP3   OH225474   6.200   1.869   5.171  0.2245 -0.0922  0.5053
 1328TIP3    H125475   6.151   1.816   5.109 -2.3374  1.3275  1.1812
 1328TIP3    H225476   6.229   1.806   5.238 -1.0671 -0.9409  0.3091
 1329TIP3   OH225477   0.298   4.451  11.391  0.3415  0.0205  0.2753
 1329TIP3    H125478   0.333   4.387  11.328  0.1613  0.2109 -0.0248
 1329TIP3    H225479   0.344   4.532  11.370 -0.8376  0.4797 -0.6667
 1330TIP3   OH225480   1.577   1.969   4.435  0.3017  0.4013  0.0752
 1330TIP3    H125481   1.601   2.052   4.395 -0.3205  0.5648  0.0274
 1330TIP3    H225482   1.597   1.980   4.528 -2.8907  1.8816  0.7251
 1331TIP3   OH225483   4.034   1.617  13.576 -0.1481 -0.0646 -0.3214
 1331TIP3    H125484   4.032   1.636  13.670  0.7283  2.3171 -0.7138
 1331TIP3    H225485   4.086   1.537  13.569 -1.4744 -1.1369  1.2969
 1332TIP3   OH225486   6.161   1.604   6.103 -0.6177  0.2317  0.4960
 1332TIP3    H125487   6.175   1.682   6.156  1.7742 -0.6943  1.3869
 1332TIP3    H225488   6.226   1.541   6.135 -2.4873 -2.1720 -0.1310
 1333TIP3   OH225489   3.386   3.667   2.221 -0.1352  0.2050 -0.3956
 1333TIP3    H125490   3.413   3.660   2.130 -0.6544 -1.0699 -0.4621
 1333TIP3    H225491   3.292   3.683   2.218  0.0056  1.2161 -0.0845
 1334TIP3   OH225492   5.323   6.551   4.379 -0.2573 -0.4554  0.0894
 1334TIP3    H125493   5.250   6.598   4.421  0.5259  1.1874 -0.3297
 1334TIP3    H225494   5.395   6.558   4.441 -0.0565 -0.9247 -0.0849
 1335TIP3   OH225495   6.154   2.987   5.223 -0.2442 -0.4131 -0.1720
 1335TIP3    H125496   6.237   3.006   5.180 -0.1142  0.9630  0.6496
 1335TIP3    H225497   6.092   2.972   5.151  0.5370 -0.7493 -0.7893
 1336TIP3   OH225498   3.409   5.045  14.690  1.1650  0.1522  0.2342
 1336TIP3    H125499   3.495   5.041  14.648  0.9978  3.1570 -0.6522
 1336TIP3    H225500   3.364   4.966  14.660  2.5341  0.1069 -1.9234
 1337TIP3   OH225501   2.911   2.558   3.794  0.0450  0.4248 -0.8555
 1337TIP3    H125502   2.909   2.537   3.700 -0.9518 -0.1006 -0.7291
 1337TIP3    H225503   2.848   2.629   3.805 -1.8596 -1.2650 -0.2129
 1338TIP3   OH225504   0.666   4.058   0.458 -0.1807  0.1626  0.0307
 1338TIP3    H125505   0.597   4.105   0.506 -0.9501 -1.5479  0.6693
 1338TIP3    H225506   0.695   3.990   0.518  0.1588 -0.8545 -1.2484
 1339TIP3   OH225507   5.666   4.093   1.012 -0.6510  0.0804 -1.1056
 1339TIP3    H125508   5.684   4.147   0.935 -1.3055 -0.0062 -1.3330
 1339TIP3    H225509   5.704   4.142   1.085 -1.1804  0.8380 -1.3145
 1340TIP3   OH225510   0.175   0.527   2.134 -0.5933  0.0428 -0.0037
 1340TIP3    H125511   0.227   0.549   2.057 -0.8802 -0.6110 -0.4022
 1340TIP3    H225512   0.156   0.611   2.176 -0.0962  0.3707 -0.4212
 1341TIP3   OH225513   5.054   1.877  10.870 -0.5132 -0.2762  0.1192
 1341TIP3    H125514   5.038   1.934  10.794  1.4870  0.6623  0.3250
 1341TIP3    H225515   4.969   1.841  10.892 -1.3013  0.1743 -1.9966
 1342TIP3   OH225516   0.512   5.926  15.808 -0.4228 -0.2178  0.3693
 1342TIP3    H125517   0.575   5.907  15.739 -1.8101  0.5612 -1.1796
 1342TIP3    H225518   0.555   5.992  15.863 -0.0445  0.6923 -0.9677
 1343TIP3   OH225519   5.788   2.847   6.426  0.5227 -0.1572  0.8743
 1343TIP3    H125520   5.746   2.907   6.487  0.7188  0.9760 -0.0520
 1343TIP3    H225521   5.856   2.900   6.383  1.5314 -1.3785  0.8814
 1344TIP3   OH225522   3.885   5.643   6.438 -0.1885 -0.0479  0.4977
 1344TIP3    H125523   3.823   5.675   6.373  0.0519  1.5623  1.0138
 1344TIP3    H225524   3.835   5.580   6.491 -0.5584 -0.8804 -0.8139
 1345TIP3   OH225525   2.733   3.536   2.820  0.7196  0.0964 -0.6606
 1345TIP3    H125526   2.705   3.543   2.729  0.0969 -0.7738 -0.5589
 1345TIP3    H225527   2.753   3.443   2.831  0.0585  0.0527  0.2814
 1346TIP3   OH225528   5.184   1.688  13.691  0.4220 -0.2829  0.0804
 1346TIP3    H125529   5.240   1.701  13.614 -0.6096  1.6226 -0.4096
 1346TIP3    H225530   5.111   1.636  13.658 -0.1904  0.8169 -0.3584
 1347TIP3   OH225531   3.929   5.708   4.788 -0.7199 -0.0431 -0.2494
 1347TIP3    H125532   3.902   5.724   4.878  0.5318 -0.9834  0.3090
 1347TIP3    H225533   3.951   5.795   4.754 -0.2498  0.2140  0.6714
 1348TIP3   OH225534   4.950   5.139   6.011 -0.1935  0.4515  0.5974
 1348TIP3    H125535   4.875   5.197   6.025  1.1469  2.0043  1.7607
 1348TIP3    H225536   5.000   5.145   6.092  1.6780  0.2394 -0.4852
 1349TIP3   OH225537   3.806   5.815  15.600  0.0932  0.5423  0.0731
 1349TIP3    H125538   3.737   5.798  15.537  0.6228  0.6181 -0.5438
 1349TIP3    H225539   3.879   5.848  15.547  0.1771  1.6713  0.8474
 1350TIP3   OH225540   6.812   2.085  13.625 -0.0320 -0.0762  0.7935
 1350TIP3    H125541   6.832   2.029  13.550 -1.1958  0.1004  0.3245
 1350TIP3    H225542   6.892   2.135  13.640 -0.5238  1.7618 -2.0146
 1351TIP3   OH225543   2.933   1.093  11.354 -0.1431 -0.3601  0.1836
 1351TIP3    H125544   2.950   1.113  11.262  0.3589 -0.8992  0.1468
 1351TIP3    H225545   2.892   1.006  11.352 -0.4444 -0.2254  0.4490
 1352TIP3   OH225546   2.248   2.869   2.218 -0.0149  0.5126  0.2028
 1352TIP3    H125547   2.180   2.804   2.199  0.7996 -0.2801 -0.0815
 1352TIP3    H225548   2.240   2.885   2.312 -0.0229 -0.2526  0.3388
 1353TIP3   OH225549   2.927   3.997   5.825  0.3231  0.2260  0.2746
 1353TIP3    H125550   2.951   3.924   5.882  0.4927  0.4395  0.4744
 1353TIP3    H225551   2.869   3.958   5.759  0.1573 -0.0255  0.5689
 1354TIP3   OH225552   3.953   0.687   2.075  0.2323 -0.2000  0.5265
 1354TIP3    H125553   3.885   0.729   2.023  1.2779  0.2670 -0.5288
 1354TIP3    H225554   3.999   0.760   2.117  1.3971 -0.3289 -0.4736
 1355TIP3   OH225555   6.253   3.607   5.431 -0.1106  0.1054 -0.5168
 1355TIP3    H125556   6.298   3.523   5.434 -1.2965 -0.5333  0.4833
 1355TIP3    H225557   6.160   3.584   5.442 -0.4551  1.5455 -0.2562
 1356TIP3   OH225558   4.447   6.591   4.929 -0.5137 -0.5612  0.4740
 1356TIP3    H125559   4.509   6.658   4.960  0.1783 -0.1986 -1.5852
 1356TIP3    H225560   4.362   6.634   4.931 -0.2928 -0.1211  0.5748
 1357TIP3   OH225561   1.626   6.715   0.207  0.0439  0.4757  0.2035
 1357TIP3    H125562   1.597   6.711   0.116 -2.3399  0.9295  0.8552
 1357TIP3    H225563   1.612   6.626   0.241 -0.1712  0.5869  0.4109
 1358TIP3   OH225564   6.470   4.083   0.652  0.0557 -0.0151  0.4649
 1358TIP3    H125565   6.433   4.076   0.740 -0.6819  3.4137  0.5546
 1358TIP3    H225566   6.560   4.113   0.666  0.8335 -1.9938  0.0457
 1359TIP3   OH225567   3.187   3.439  12.637 -0.0131  0.3623 -0.0881
 1359TIP3    H125568   3.166   3.376  12.567 -1.8536 -0.0910  0.8076
 1359TIP3    H225569   3.220   3.384  12.709  2.7425  0.9029 -0.8202
 1360TIP3   OH225570   2.442   0.514   4.069 -0.3996 -0.3553 -0.6101
 1360TIP3    H125571   2.416   0.435   4.021  1.0828 -0.5859 -1.0906
 1360TIP3    H225572   2.498   0.482   4.139  0.8345  0.3023 -1.2575
 1361TIP3   OH225573   5.719   0.563   0.649 -0.2354 -0.2349 -0.4414
 1361TIP3    H125574   5.727   0.522   0.735  0.1628  0.9064  0.0905
 1361TIP3    H225575   5.644   0.621   0.656  0.2195  0.3937 -0.6288
 1362TIP3   OH225576   2.564   1.991  14.209 -0.1055 -0.3291 -0.3620
 1362TIP3    H125577   2.576   2.086  14.217 -2.1404 -0.0621  0.2056
 1362TIP3    H225578   2.527   1.979  14.122 -1.6996 -0.3199  0.2664
 1363TIP3   OH225579   3.711   3.272  10.822  0.5024 -0.1389  0.6904
 1363TIP3    H125580   3.744   3.277  10.912  2.0360  1.4369  0.1172
 1363TIP3    H225581   3.782   3.229  10.774 -1.0761 -2.6976  0.4975
 1364TIP3   OH225582   2.250   2.295  13.172 -0.7441 -0.8634 -0.3061
 1364TIP3    H125583   2.343   2.274  13.174 -0.6155 -0.2248  1.1202
 1364TIP3    H225584   2.244   2.369  13.112  0.1712  1.2397  2.0506
 1365TIP3   OH225585   6.625   4.201   0.924  0.3317  0.1457  0.1412
 1365TIP3    H125586   6.664   4.131   0.976  0.3037  0.1158  0.1225
 1365TIP3    H225587   6.598   4.267   0.988  0.7126  0.3152  0.1298
 1366TIP3   OH225588   6.542   1.718   5.260  0.4434  0.0752 -0.3318
 1366TIP3    H125589   6.557   1.649   5.195 -0.2262  0.3477 -0.7949
 1366TIP3    H225590   6.463   1.690   5.306  0.4524  0.2930 -0.1837
 1367TIP3   OH225591   5.019   5.407   2.377  0.7101  0.8961  0.1206
 1367TIP3    H125592   5.009   5.503   2.380  0.7653  1.0149 -1.9194
 1367TIP3    H225593   5.078   5.392   2.304  1.4733 -0.6878  1.0321
 1368TIP3   OH225594   4.979   3.764   5.600 -0.2557 -0.1632 -0.0378
 1368TIP3    H125595   4.981   3.789   5.507  0.0145  1.2334  0.3247
 1368TIP3    H225596   4.977   3.848   5.647  0.8131 -0.8389  1.2549
 1369TIP3   OH225597   2.817   1.647   4.619  0.6159  0.4346  0.2521
 1369TIP3    H125598   2.888   1.653   4.556  0.7617 -1.5539  0.1779
 1369TIP3    H225599   2.737   1.660   4.567  0.7769 -0.4180 -0.2266
 1370TIP3   OH225600   1.039   3.724   3.090 -0.1032  0.2009  0.1940
 1370TIP3    H125601   1.093   3.730   3.011  0.9019  0.6226  0.8949
 1370TIP3    H225602   0.978   3.652   3.072  0.8370 -0.4395 -0.5347
 1371TIP3   OH225603   4.323   4.954   1.059  0.6835  0.0669 -0.1659
 1371TIP3    H125604   4.296   4.885   1.120 -0.2240 -0.9122 -1.6319
 1371TIP3    H225605   4.401   4.919   1.016 -0.6637 -0.8045 -2.0490
 1372TIP3   OH225606   1.010   3.759  15.193  0.0995  0.3468 -0.2069
 1372TIP3    H125607   1.100   3.739  15.220  0.2284 -0.1833 -1.0007
 1372TIP3    H225608   1.001   3.853  15.206  0.8295  0.4350 -0.3018
 1373TIP3   OH225609   3.174   1.733  15.207  0.0859  0.2627  0.9587
 1373TIP3    H125610   3.269   1.727  15.192 -0.0166 -1.1152  0.7344
 1373TIP3    H225611   3.136   1.678  15.138 -0.8492  0.3498  1.3950
 1374TIP3   OH225612   2.316   6.654  15.802 -0.0385 -0.0425  1.1265
 1374TIP3    H125613   2.325   6.558  15.800 -1.0624 -0.1617 -0.8218
 1374TIP3    H225614   2.232   6.670  15.758  0.9573  1.8231 -0.1987
 1375TIP3   OH225615   5.004   0.666   1.367 -0.0224  0.2392 -0.1084
 1375TIP3    H125616   4.987   0.700   1.279 -0.2734  1.9782  0.5652
 1375TIP3    H225617   4.920   0.631   1.396  0.1070 -0.5135 -0.6122
 1376TIP3   OH225618   1.284   3.589  11.578  0.3988 -0.3113  0.7548
 1376TIP3    H125619   1.311   3.499  11.596  0.4209 -0.5269 -0.3034
 1376TIP3    H225620   1.206   3.580  11.522  0.3041  0.3248  0.7764
 1377TIP3   OH225621   0.210   6.480   3.525 -0.6388  0.0407 -0.3728
 1377TIP3    H125622   0.175   6.455   3.439 -1.8599  2.1395 -0.5567
 1377TIP3    H225623   0.134   6.481   3.583 -0.1603  0.5410  0.2612
 1378TIP3   OH225624   3.469   4.933  10.494  0.1419  0.2365  0.0411
 1378TIP3    H125625   3.485   4.848  10.453 -0.9016  0.2810 -0.4851
 1378TIP3    H225626   3.467   4.914  10.588  0.9389 -0.1432 -0.0162
 1379TIP3   OH225627   1.533   3.124   4.107  0.2307 -0.0359 -0.3239
 1379TIP3    H125628   1.465   3.151   4.168  1.7534  0.8795  1.0323
 1379TIP3    H225629   1.496   3.141   4.020 -1.5498 -0.3483  0.3369
 1380TIP3   OH225630   5.830   2.256   1.455 -0.5531  0.2061  0.9714
 1380TIP3    H125631   5.882   2.336   1.447 -0.5840  0.1141 -0.4474
 1380TIP3    H225632   5.839   2.213   1.370 -1.3295 -0.8146  1.3802
 1381TIP3   OH225633   4.448   2.401  13.949 -0.7249 -0.2936 -0.2342
 1381TIP3    H125634   4.381   2.379  13.884 -0.1758 -1.1160 -0.5463
 1381TIP3    H225635   4.475   2.316  13.986 -0.2045  0.0622  0.2298
 1382TIP3   OH225636   2.005   5.698  11.916 -0.2452  0.2726 -0.2073
 1382TIP3    H125637   2.004   5.656  12.002 -1.0395  1.7734  0.5574
 1382TIP3    H225638   2.098   5.713  11.898  0.0890 -1.9300 -0.6172
 1383TIP3   OH225639   6.246   5.384   3.257  0.0096  0.1360 -0.3629
 1383TIP3    H125640   6.156   5.403   3.281  0.6651  3.7340 -0.2068
 1383TIP3    H225641   6.298   5.425   3.326  1.7746  0.8028 -1.9982
 1384TIP3   OH225642   2.757   2.018   4.991 -0.9573  0.5345 -0.2231
 1384TIP3    H125643   2.750   2.019   5.087 -1.8561  0.2089 -0.2727
 1384TIP3    H225644   2.808   2.096   4.970 -1.9225  1.3735  0.4507
 1385TIP3   OH225645   5.920   5.355   1.967  0.1859 -0.1210 -0.2878
 1385TIP3    H125646   5.856   5.411   1.922 -0.5377 -0.1933  0.6143
 1385TIP3    H225647   5.896   5.362   2.060  2.5683  1.2465  0.3050
 1386TIP3   OH225648   2.817   2.134   2.619  0.5451  0.5276 -0.2689
 1386TIP3    H125649   2.898   2.135   2.671  0.6926  0.7096 -0.5047
 1386TIP3    H225650   2.747   2.124   2.684  0.8028 -0.3446 -0.1185
 1387TIP3   OH225651   2.883   5.170   2.017 -0.0334  0.0349 -0.1149
 1387TIP3    H125652   2.847   5.084   2.038 -1.4680  0.2039 -1.7050
 1387TIP3    H225653   2.865   5.183   1.924  2.4085  1.0172 -0.5555
 1388TIP3   OH225654   2.809   4.225  15.868  0.4711 -0.1019  0.5180
 1388TIP3    H125655   2.839   4.271  15.946  0.3338  0.2932  0.3381
 1388TIP3    H225656   2.885   4.174  15.840  0.6348  0.0424  0.6933
 1389TIP3   OH225657   5.527   3.759  14.229 -0.8237 -0.1197 -0.3482
 1389TIP3    H125658   5.581   3.773  14.307 -3.2832 -1.9265  1.8638
 1389TIP3    H225659   5.581   3.707  14.171  1.4793  2.1813 -0.4517
 1390TIP3   OH225660   4.586   5.815   1.333  0.0969 -0.0107  0.0858
 1390TIP3    H125661   4.672   5.793   1.296  0.9382 -0.3033  2.0580
 1390TIP3    H225662   4.602   5.895   1.384 -0.3543 -0.9807  1.8374
 1391TIP3   OH225663   5.228   6.334   2.345  0.0751  0.4205 -0.1845
 1391TIP3    H125664   5.174   6.385   2.406  0.3907  0.0463  0.4170
 1391TIP3    H225665   5.275   6.273   2.401  0.6603  0.3279 -0.7733
 1392TIP3   OH225666   5.021   3.197  15.939  0.4540 -0.3156 -0.4971
 1392TIP3    H125667   5.005   3.192  15.844  0.2139  1.4501 -0.5799
 1392TIP3    H225668   5.023   3.106  15.967  2.3718 -0.9683 -2.4889
 1393TIP3   OH225669   1.031   2.955  11.743 -0.2850  0.1457  0.0831
 1393TIP3    H125670   1.053   3.047  11.730  0.0731  0.3580  1.9935
 1393TIP3    H225671   1.047   2.939  11.836 -1.8476 -1.4424  0.1270
 1394TIP3   OH225672   6.516   5.932   2.743  0.1861  0.0549  0.5081
 1394TIP3    H125673   6.451   5.862   2.743  2.6506 -2.4606 -0.5040
 1394TIP3    H225674   6.505   5.975   2.659 -1.5586  1.1824  1.2620
 1395TIP3   OH225675   2.879   0.770   1.327 -0.1571  0.6192  0.3928
 1395TIP3    H125676   2.853   0.823   1.251  0.0853  0.0706 -0.0774
 1395TIP3    H225677   2.932   0.700   1.290  0.0391  0.3999  1.0866
 1396TIP3   OH225678   0.416   5.609  11.807  0.0360  0.4256  0.0737
 1396TIP3    H125679   0.504   5.621  11.842 -0.1460  0.0534  0.6710
 1396TIP3    H225680   0.362   5.670  11.857 -0.6827 -1.8702  2.2995
 1397TIP3   OH225681   4.130   5.058   0.362  0.0782 -0.6301  0.0937
 1397TIP3    H125682   4.215   5.026   0.330 -0.0989 -1.2021  0.1952
 1397TIP3    H225683   4.139   5.056   0.457 -0.2091 -1.1302  0.1126
 1398TIP3   OH225684   5.589   0.738  12.252  1.1363  0.1375  0.0362
 1398TIP3    H125685   5.660   0.742  12.316  0.2468  0.8857  1.0162
 1398TIP3    H225686   5.619   0.677  12.186  2.8096  0.6527  0.2866
 1399TIP3   OH225687   5.053   0.491   0.918  0.6019  0.1155 -0.0050
 1399TIP3    H125688   5.047   0.568   0.862 -0.2386  1.1625  1.4754
 1399TIP3    H225689   4.968   0.486   0.962  1.1124 -0.8746  0.9180
 1400TIP3   OH225690   2.605   6.664   1.816 -0.3029  0.8678 -0.1208
 1400TIP3    H125691   2.549   6.632   1.887  0.2676 -0.8643 -0.4186
 1400TIP3    H225692   2.616   6.757   1.836 -1.3997  0.7581  1.2052
 1401TIP3   OH225693   6.208   5.419   1.751 -0.1953  0.4208  0.3412
 1401TIP3    H125694   6.279   5.447   1.694 -0.6711  0.3009 -0.3108
 1401TIP3    H225695   6.253   5.388   1.831  0.5327 -0.2491 -0.3066
 1402TIP3   OH225696   3.681   1.308   5.652  0.4428  0.0366  0.4227
 1402TIP3    H125697   3.689   1.291   5.746 -0.5584  1.9316  0.9007
 1402TIP3    H225698   3.632   1.389   5.646 -1.5295 -1.1762 -1.7915
 1403TIP3   OH225699   5.099   5.387  12.384 -0.0667  0.5652  0.3862
 1403TIP3    H125700   5.190   5.366  12.404  0.1415  0.6571 -0.4304
 1403TIP3    H225701   5.075   5.452  12.450  0.1251 -0.2193  1.2493
 1404TIP3   OH225702   0.338   5.786   1.043  0.1516  0.1424 -1.2069
 1404TIP3    H125703   0.246   5.798   1.020  0.4526 -0.6161 -2.9448
 1404TIP3    H225704   0.343   5.698   1.079  0.1830  0.2381 -0.9731
 1405TIP3   OH225705   2.894   4.211  13.975  0.4995  0.2293  0.6353
 1405TIP3    H125706   2.979   4.249  13.951  1.7347 -3.1081 -0.8584
 1405TIP3    H225707   2.850   4.196  13.892  0.5239 -2.3147  0.9862
 1406TIP3   OH225708   3.175   2.409   2.510 -0.5576  0.3227  0.0720
 1406TIP3    H125709   3.175   2.390   2.416 -0.3270  2.9568 -0.5384
 1406TIP3    H225710   3.228   2.339   2.549 -0.7849 -0.9092 -1.7198
 1407TIP3   OH225711   6.089   5.335  10.490  0.0904 -0.2004  0.0479
 1407TIP3    H125712   6.163   5.370  10.541  0.6779  1.7082 -1.9340
 1407TIP3    H225713   6.090   5.241  10.507  1.7031  0.0567  1.6811
 1408TIP3   OH225714   0.872   0.924  12.054 -0.2522  1.1230  0.0438
 1408TIP3    H125715   0.947   0.972  12.020 -0.2155 -0.3113 -2.0670
 1408TIP3    H225716   0.807   0.993  12.074  1.7227  2.4334  2.4935
 1409TIP3   OH225717   3.131   4.522   1.030 -0.0308  0.1321  0.2885
 1409TIP3    H125718   3.215   4.569   1.029 -0.0436  0.1566 -1.4963
 1409TIP3    H225719   3.099   4.534   1.120  2.1706 -0.4561  1.2206
 1410TIP3   OH225720   2.152   6.620  10.276 -0.6943  0.5486 -0.1794
 1410TIP3    H125721   2.099   6.594  10.352  1.5131  3.9094  2.8100
 1410TIP3    H225722   2.207   6.544  10.258 -1.1915 -0.3064  1.7054
 1411TIP3   OH225723   3.669   6.092   5.917  0.3631 -0.1996 -0.3999
 1411TIP3    H125724   3.682   6.024   5.851  2.9653 -1.6105  1.4132
 1411TIP3    H225725   3.611   6.052   5.982 -0.9938  0.6633 -1.0298
 1412TIP3   OH225726   5.692   5.194   6.255 -0.0103  0.3297  0.2754
 1412TIP3    H125727   5.649   5.182   6.339 -1.2382 -1.2409 -0.5159
 1412TIP3    H225728   5.747   5.116   6.244  0.6639  0.8394 -0.0915
 1413TIP3   OH225729   1.899   4.786   3.220 -0.3750  0.0886  0.2236
 1413TIP3    H125730   1.845   4.707   3.215  1.6666 -1.4432  1.0829
 1413TIP3    H225731   1.934   4.785   3.309  1.2607  0.8604 -0.3776
 1414TIP3   OH225732   5.240   4.583  12.785  0.2992 -0.5000  0.0466
 1414TIP3    H125733   5.280   4.664  12.818 -1.9171  0.3313  0.9166
 1414TIP3    H225734   5.205   4.540  12.863 -0.1110 -1.4015 -0.6091
 1415TIP3   OH225735   0.213   1.401   1.871  0.2430 -0.2448 -0.2955
 1415TIP3    H125736   0.137   1.363   1.827  0.5007 -0.2940 -0.7017
 1415TIP3    H225737   0.185   1.490   1.894  0.1498 -0.1746 -0.6750
 1416TIP3   OH225738   6.508   6.535   3.703  0.3463 -0.1022  0.4251
 1416TIP3    H125739   6.450   6.473   3.661 -0.2549  0.1690  0.8375
 1416TIP3    H225740   6.461   6.619   3.699  1.7634  0.6637 -1.4229
 1417TIP3   OH225741   5.837   5.586   2.264  0.2334 -0.2392  0.4476
 1417TIP3    H125742   5.903   5.524   2.296 -0.2954 -0.8058  0.4498
 1417TIP3    H225743   5.762   5.573   2.321  0.2283  0.6461  0.6560
 1418TIP3   OH225744   3.193   5.384  12.391 -0.6894 -0.6663  0.7805
 1418TIP3    H125745   3.273   5.421  12.430 -0.5067  1.1932 -1.1791
 1418TIP3    H225746   3.123   5.415  12.449 -0.1951 -0.3399  1.2223
 1419TIP3   OH225747   0.247   0.364   1.303  0.5208  0.0391 -0.2003
 1419TIP3    H125748   0.337   0.362   1.269  0.7210  0.3862  0.2811
 1419TIP3    H225749   0.212   0.448   1.272  1.1305  0.9645  1.4289
 1420TIP3   OH225750   0.016   5.706  12.112  0.3140 -0.2513  0.1604
 1420TIP3    H125751   0.071   5.664  12.178 -0.7578 -1.5324  0.2811
 1420TIP3    H225752  -0.004   5.636  12.050 -0.3520  0.4347 -0.4103
 1421TIP3   OH225753   4.133   3.710   3.863  0.9290  0.1854 -0.4578
 1421TIP3    H125754   4.150   3.796   3.824  1.4768  0.6253  0.7151
 1421TIP3    H225755   4.158   3.719   3.955 -1.1897 -0.5550  0.2558
 1422TIP3   OH225756   0.718   3.679  10.877 -0.6828  0.1017 -0.2168
 1422TIP3    H125757   0.694   3.590  10.851  0.0712  0.0755 -0.8576
 1422TIP3    H225758   0.686   3.735  10.806  2.1322 -0.0534 -1.7657
 1423TIP3   OH225759   2.974   3.582   3.793 -0.3608 -0.1557  0.1123
 1423TIP3    H125760   2.912   3.639   3.837  0.2501  0.9160 -0.3809
 1423TIP3    H225761   2.920   3.523   3.740 -1.0123 -0.3580  0.9897
 1424TIP3   OH225762   0.563   0.668   5.228 -0.9266  0.0217  0.4746
 1424TIP3    H125763   0.477   0.662   5.270 -0.1835  1.2215  2.2720
 1424TIP3    H225764   0.613   0.725   5.285  1.8853 -2.5887  0.8733
 1425TIP3   OH225765   5.307   5.019   5.550 -0.3560 -0.5497 -0.2731
 1425TIP3    H125766   5.354   5.084   5.602  0.7631  0.0087 -1.8997
 1425TIP3    H225767   5.348   5.023   5.464 -2.3788 -1.1659 -1.3317
 1426TIP3   OH225768   2.848   5.592   3.462  0.4225  0.2085 -0.1277
 1426TIP3    H125769   2.791   5.659   3.500 -0.7188  0.5460 -2.3231
 1426TIP3    H225770   2.804   5.509   3.483  0.0165  0.3651 -0.3475
 1427TIP3   OH225771   6.014   5.628   2.608 -0.6303 -0.1924 -0.9086
 1427TIP3    H125772   6.060   5.544   2.602 -0.2813 -0.0800  0.0190
 1427TIP3    H225773   6.061   5.685   2.547 -0.6441 -0.5665 -1.2756
 1428TIP3   OH225774   1.038   0.627  11.555  0.1942  0.1381  0.3315
 1428TIP3    H125775   1.127   0.658  11.540  0.1760 -0.2334 -0.6513
 1428TIP3    H225776   1.035   0.605  11.648  1.0766  0.3035  0.4067
 1429TIP3   OH225777   6.671   2.204  12.848  0.4610  0.1192  0.9550
 1429TIP3    H125778   6.589   2.251  12.857 -0.4467 -0.6927 -1.9383
 1429TIP3    H225779   6.646   2.112  12.842  1.1668  0.0039 -2.5394
 1430TIP3   OH225780   4.454   0.690  15.461  0.3974 -0.3424 -0.4600
 1430TIP3    H125781   4.518   0.641  15.409 -0.4059  0.0922 -1.9085
 1430TIP3    H225782   4.392   0.725  15.397  0.6483  2.1739  0.5586
 1431TIP3   OH225783   0.176   3.269   3.923  0.3490  0.0872  0.2336
 1431TIP3    H125784   0.081   3.281   3.926  0.4666  2.1224 -1.7302
 1431TIP3    H225785   0.194   3.245   3.832  1.9567  2.8871 -0.2835
 1432TIP3   OH225786   4.787   0.561  12.265  0.3003  0.0387  0.4605
 1432TIP3    H125787   4.798   0.647  12.225 -1.0557  0.1186  0.2263
 1432TIP3    H225788   4.720   0.574  12.332 -0.6378 -1.0189 -0.2301
 1433TIP3   OH225789   1.072   6.466   4.569  0.5388 -0.4382 -0.3478
 1433TIP3    H125790   1.007   6.536   4.566  2.5761  1.7740  2.0004
 1433TIP3    H225791   1.136   6.490   4.503  0.7837 -0.5981 -0.1688
 1434TIP3   OH225792   4.762   3.770   0.258 -0.3270 -0.3414  0.4691
 1434TIP3    H125793   4.767   3.827   0.335  0.0927  1.2723 -0.6945
 1434TIP3    H225794   4.850   3.776   0.219 -1.1872  0.8074 -1.4159
 1435TIP3   OH225795   5.177   0.526   5.123  0.1759 -0.1817 -0.4583
 1435TIP3    H125796   5.193   0.555   5.033 -1.2421 -0.3713 -0.7967
 1435TIP3    H225797   5.172   0.430   5.117  4.1911 -0.6381  0.5464
 1436TIP3   OH225798   3.153   1.322   5.045 -0.1484 -0.2560 -0.1002
 1436TIP3    H125799   3.141   1.315   4.950 -0.7136  0.4072 -0.0870
 1436TIP3    H225800   3.126   1.237   5.079  0.2882 -0.5862 -0.5451
 1437TIP3   OH225801   4.535   0.421  14.830  0.6154  0.0556 -0.0715
 1437TIP3    H125802   4.504   0.356  14.893 -0.0627 -0.8502 -1.3148
 1437TIP3    H225803   4.578   0.488  14.884 -2.2443  0.6766  1.6675
 1438TIP3   OH225804   0.330   5.505  15.787 -0.2904  0.0643  0.6772
 1438TIP3    H125805   0.393   5.434  15.782  0.4092  0.7186 -0.2517
 1438TIP3    H225806   0.376   5.574  15.835  0.0944  0.9034 -0.8382
 1439TIP3   OH225807   1.501   6.156   4.472 -1.0371  0.6886 -0.3369
 1439TIP3    H125808   1.470   6.240   4.439 -0.2571  0.8362 -0.7054
 1439TIP3    H225809   1.593   6.170   4.491 -1.5045  0.6769  2.1822
 1440TIP3   OH225810   1.599   1.090  11.944 -0.5453 -0.5158 -0.5740
 1440TIP3    H125811   1.657   1.016  11.959  0.1710  0.1601  0.0820
 1440TIP3    H225812   1.653   1.167  11.960 -1.5700  0.1327 -0.0850
 1441TIP3   OH225813   3.298   0.667  17.051  0.5647 -0.3213  0.5457
 1441TIP3    H125814   3.323   0.654  17.143  0.6030 -0.9906  0.4474
 1441TIP3    H225815   3.213   0.625  17.044  0.3373  0.1664  0.3891
 1442TIP3   OH225816   0.788   4.096  11.473  0.2091 -0.0014  0.3768
 1442TIP3    H125817   0.781   4.173  11.529 -0.5225 -0.1471  0.5013
 1442TIP3    H225818   0.698   4.081  11.442  0.6120  0.1452 -0.9147
 1443TIP3   OH225819   0.389   1.057   5.594  0.0645  0.5953 -0.2931
 1443TIP3    H125820   0.370   1.150   5.609 -2.1150 -0.0645  1.7042
 1443TIP3    H225821   0.307   1.013   5.616  1.1894 -1.8530 -0.7532
 1444TIP3   OH225822   4.972   5.068   6.751  0.2392  0.1994 -0.2879
 1444TIP3    H125823   4.999   5.102   6.666 -0.1862  1.7964  0.1806
 1444TIP3    H225824   4.931   5.143   6.795 -0.4182 -0.8452  0.9491
 1445TIP3   OH225825   4.665   3.088   5.497 -0.1306 -0.0621  0.0564
 1445TIP3    H125826   4.711   3.047   5.569 -2.9513  0.3464  2.2743
 1445TIP3    H225827   4.631   3.016   5.445  1.2858 -0.3627 -0.4994
 1446TIP3   OH225828   0.990   1.891   1.227 -0.0055 -0.5930 -0.5140
 1446TIP3    H125829   1.069   1.944   1.214 -0.2759  0.0858  0.4687
 1446TIP3    H225830   0.919   1.948   1.198 -0.2564 -0.6222  0.0361
 1447TIP3   OH225831   3.463   5.382   4.582 -0.4091  0.0372 -0.6394
 1447TIP3    H125832   3.494   5.361   4.494  0.5713 -0.8379 -0.1097
 1447TIP3    H225833   3.427   5.470   4.575 -0.7778 -0.2111 -2.0146
 1448TIP3   OH225834   6.124   4.699  13.313 -0.0942  0.0303  0.1330
 1448TIP3    H125835   6.165   4.698  13.400 -0.8259 -0.8677  0.4932
 1448TIP3    H225836   6.048   4.756  13.323  0.0987  0.3239 -0.0593
 1449TIP3   OH225837   2.472   4.869  11.196  0.6220 -0.6820 -0.0183
 1449TIP3    H125838   2.566   4.856  11.209  0.8992  0.7844 -0.3435
 1449TIP3    H225839   2.455   4.837  11.108  1.3438  1.2701 -0.9334
 1450TIP3   OH225840   1.800   4.644  17.077 -0.2028  0.5243  0.3382
 1450TIP3    H125841   1.757   4.723  17.108  0.4855  1.4629 -0.9977
 1450TIP3    H225842   1.894   4.665  17.077  0.1864 -0.9852  1.8514
 1451TIP3   OH225843   5.035   6.169  11.690  0.4242  0.0315  0.0704
 1451TIP3    H125844   5.089   6.138  11.617  0.5352  0.7740 -0.1780
 1451TIP3    H225845   5.096   6.174  11.763  0.5674  0.3349 -0.0677
 1452TIP3   OH225846   4.865   0.813  17.107 -0.1684  0.4271  0.1761
 1452TIP3    H125847   4.780   0.835  17.147 -1.3132 -0.4365 -1.6515
 1452TIP3    H225848   4.920   0.787  17.181 -0.7991  2.9471  1.6510
 1453TIP3   OH225849   4.501   5.694  10.900  0.7126 -0.2812 -0.2440
 1453TIP3    H125850   4.581   5.746  10.899  1.2308 -0.9075  1.8334
 1453TIP3    H225851   4.440   5.746  10.953  0.7242 -1.0565  0.5568
 1454TIP3   OH225852   3.147   0.440  13.984  0.0527 -0.1878  0.2299
 1454TIP3    H125853   3.097   0.450  13.903  0.5618 -0.5117 -0.1290
 1454TIP3    H225854   3.123   0.353  14.016 -0.7943  0.2697  0.8823
 1455TIP3   OH225855   1.892   4.901   1.339  0.3616  0.4856  0.1744
 1455TIP3    H125856   1.951   4.917   1.412 -0.2030  1.3556  0.4590
 1455TIP3    H225857   1.816   4.956   1.358 -0.7361 -0.9104  0.0443
 1456TIP3   OH225858   5.203   0.307  11.251  0.0666 -0.7447 -0.3589
 1456TIP3    H125859   5.197   0.323  11.157 -1.0806  2.4826  0.1482
 1456TIP3    H225860   5.116   0.279  11.277  0.0209 -0.3486 -0.0746
 1457TIP3   OH225861   4.657   3.322  14.292  0.3425 -0.7869 -0.1338
 1457TIP3    H125862   4.621   3.234  14.306  0.5519 -1.0082 -0.9442
 1457TIP3    H225863   4.684   3.323  14.201  2.0783 -0.5037  0.3556
 1458TIP3   OH225864   2.432   0.364  16.870  0.1603  0.4916 -0.1626
 1458TIP3    H125865   2.343   0.349  16.900  0.9882  0.9292  2.7905
 1458TIP3    H225866   2.452   0.288  16.815 -1.8101  0.1519 -0.5066
 1459TIP3   OH225867   5.302   2.097   5.148  0.1193 -0.0702 -0.0368
 1459TIP3    H125868   5.325   2.116   5.239  1.9405 -0.4062 -0.3719
 1459TIP3    H225869   5.244   2.021   5.153 -0.7357  0.6126  0.8749
 1460TIP3   OH225870   1.588   0.590  11.958 -0.3665 -0.0229  0.1457
 1460TIP3    H125871   1.570   0.677  11.994 -0.0304 -0.8508  2.4714
 1460TIP3    H225872   1.502   0.547  11.955 -0.2716 -0.3039  1.0316
 1461TIP3   OH225873   1.544   0.235  11.433 -0.5699 -0.1346 -0.0234
 1461TIP3    H125874   1.461   0.277  11.456 -0.6697 -0.6251  0.5413
 1461TIP3    H225875   1.537   0.217  11.340 -1.0073  0.0361 -0.0271
 1462TIP3   OH225876   0.220   3.965  10.746 -0.0571  0.0242  0.5466
 1462TIP3    H125877   0.297   3.999  10.792 -0.2169 -0.0158  0.8479
 1462TIP3    H225878   0.176   4.042  10.711  0.4899 -0.0012 -0.2244
 1463TIP3   OH225879   5.765   2.641   0.696  0.4049 -0.6033  0.3545
 1463TIP3    H125880   5.757   2.547   0.680 -0.7049 -0.4191 -0.2802
 1463TIP3    H225881   5.768   2.680   0.608 -2.6409  0.2027  0.4885
 1464TIP3   OH225882   3.934   6.772  13.712  0.3801 -0.0766 -0.5159
 1464TIP3    H125883   3.935   6.775  13.616 -0.6915  2.7920 -0.5324
 1464TIP3    H225884   3.916   6.863  13.739 -2.4974 -1.2908  2.3333
 1465TIP3   OH225885   3.420   3.947   2.247 -0.0018  0.0164 -0.2242
 1465TIP3    H125886   3.404   3.853   2.249 -1.3292  0.2254  1.0835
 1465TIP3    H225887   3.478   3.963   2.322 -1.1662  0.4245  0.6211
 1466TIP3   OH225888   1.266   5.529  16.886  0.0107 -0.1088 -0.1647
 1466TIP3    H125889   1.230   5.560  16.969 -0.6822 -1.9391  0.2588
 1466TIP3    H225890   1.319   5.453  16.909  1.9415  0.8713 -1.1316
 1467TIP3   OH225891   3.633   2.752  16.838 -0.3710  0.7561  0.2882
 1467TIP3    H125892   3.549   2.796  16.847 -0.1744  1.1222  0.3287
 1467TIP3    H225893   3.615   2.677  16.781 -0.6710  0.9644  0.1083
 1468TIP3   OH225894   1.737   1.209   4.916 -0.3674 -0.1452 -0.1530
 1468TIP3    H125895   1.717   1.291   4.961  1.8699  0.4219 -0.0716
 1468TIP3    H225896   1.653   1.165   4.908 -1.3746  1.3839  1.3259
 1469TIP3   OH225897   6.215   2.568   1.530 -0.6825 -0.0993  0.2806
 1469TIP3    H125898   6.272   2.641   1.552 -1.1821 -0.5956  3.6468
 1469TIP3    H225899   6.269   2.491   1.540 -0.6945 -0.3535 -1.3289
 1470TIP3   OH225900   6.426   6.309   2.930  0.2023  0.3123  0.8278
 1470TIP3    H125901   6.481   6.385   2.944 -0.7357  0.7910  2.0583
 1470TIP3    H225902   6.482   6.234   2.949  0.0162  0.8265  3.8511
 1471TIP3   OH225903   5.971   1.308   1.184 -0.0227 -0.4142  0.1475
 1471TIP3    H125904   6.006   1.337   1.268 -1.3285  2.3499 -0.1417
 1471TIP3    H225905   6.042   1.324   1.121 -0.1887  0.8518  0.2477
 1472TIP3   OH225906   5.910   6.323  15.503 -0.0674 -0.5390 -0.4255
 1472TIP3    H125907   5.928   6.412  15.472 -1.0675  0.1571  0.8681
 1472TIP3    H225908   5.828   6.331  15.552  0.2823 -2.0041  0.4575
 1473TIP3   OH225909   4.456   1.240  14.306  0.6942  0.1346  0.3261
 1473TIP3    H125910   4.532   1.285  14.268  0.4661 -0.7461 -1.2536
 1473TIP3    H225911   4.387   1.250  14.241 -0.4597  0.6073  1.5835
 1474TIP3   OH225912   4.593   3.240   5.877  0.2400  0.1663 -0.6061
 1474TIP3    H125913   4.628   3.242   5.967 -1.7788  0.7184  0.2188
 1474TIP3    H225914   4.666   3.270   5.822  2.0636 -1.7079  0.6220
 1475TIP3   OH225915   3.825   6.670  12.503  0.0112 -0.1059  0.4420
 1475TIP3    H125916   3.799   6.598  12.559  1.3426 -0.7906  0.2190
 1475TIP3    H225917   3.864   6.628  12.427 -0.5909  0.8360 -0.4163
 1476TIP3   OH225918   1.695   5.886   4.997 -0.4495 -0.2597 -0.2333
 1476TIP3    H125919   1.602   5.907   4.991 -0.7703 -1.1107  1.2024
 1476TIP3    H225920   1.723   5.924   5.080  0.9843  1.6192 -1.4850
 1477TIP3   OH225921   1.829   5.936  10.774  0.2362  0.7828 -0.2332
 1477TIP3    H125922   1.780   5.865  10.815 -0.2262 -0.0374 -2.1179
 1477TIP3    H225923   1.835   6.004  10.842  1.2588 -1.2767  1.8488
 1478TIP3   OH225924   1.051   6.147  11.187  0.3338  0.3704 -0.2526
 1478TIP3    H125925   1.044   6.064  11.235 -0.7913  1.4186  1.5052
 1478TIP3    H225926   1.122   6.132  11.124  0.6576 -1.6692  0.5105
 1479TIP3   OH225927   5.298   0.947   2.074 -0.0202  0.4671  0.5374
 1479TIP3    H125928   5.350   0.912   2.002 -0.7949  2.0119 -0.8385
 1479TIP3    H225929   5.359   0.999   2.126  0.8881 -1.8605  1.9695
 1480TIP3   OH225930   0.001   3.032  17.181 -0.6574 -0.4819 -0.0308
 1480TIP3    H125931   0.042   3.009  17.265 -0.3395 -2.2261 -0.6110
 1480TIP3    H225932  -0.054   3.107  17.201  2.0725  1.4032  1.0021
 1481TIP3   OH225933   4.475   3.890   5.504  0.3098 -0.3568 -0.2617
 1481TIP3    H125934   4.504   3.981   5.494 -0.2738 -0.1328  0.0436
 1481TIP3    H225935   4.535   3.840   5.448  2.1397 -0.0792  1.3433
 1482TIP3   OH225936   2.310   1.800   3.531 -0.4865  0.4806  0.0122
 1482TIP3    H125937   2.319   1.813   3.437  1.4421  1.0284  0.2312
 1482TIP3    H225938   2.400   1.791   3.563 -1.1337 -0.6713  1.6810
 1483TIP3   OH225939   5.959   2.124  13.269  0.4043  0.2874  0.1966
 1483TIP3    H125940   6.020   2.058  13.303  1.8266  1.5270  0.1260
 1483TIP3    H225941   5.987   2.206  13.309 -0.5143  1.0722 -0.7163
 1484TIP3   OH225942   0.211   2.935   1.322  0.5059 -0.5215  0.0228
 1484TIP3    H125943   0.231   2.876   1.395  1.4708 -0.3162 -0.0521
 1484TIP3    H225944   0.296   2.973   1.299 -0.1889  1.5818  0.6634
 1485TIP3   OH225945   4.499   0.608   3.542 -0.3797 -0.0386  0.7169
 1485TIP3    H125946   4.574   0.556   3.571  0.3702  0.4172 -0.3424
 1485TIP3    H225947   4.424   0.549   3.552  0.1920 -0.7097  1.2171
 1486TIP3   OH225948   0.825   6.037   1.746  0.2849  0.3510 -0.5562
 1486TIP3    H125949   0.796   5.953   1.780 -2.7776  1.5078  0.0461
 1486TIP3    H225950   0.843   6.020   1.654 -0.5344 -0.9281 -0.5116
 1487TIP3   OH225951   6.317   4.754  13.783 -0.2794 -0.4218  0.2956
 1487TIP3    H125952   6.358   4.699  13.850  0.1094  0.0075  0.4129
 1487TIP3    H225953   6.389   4.781  13.726 -0.2257  1.0515  1.0068
 1488TIP3   OH225954   4.008   1.135   1.006 -0.1798  0.5831  0.3679
 1488TIP3    H125955   4.003   1.082   0.926  1.9912  1.6112 -0.5248
 1488TIP3    H225956   4.057   1.213   0.980  1.8582  0.3145  3.0291
 1489TIP3   OH225957   1.502   2.914  11.504 -0.0139  0.3090  0.3174
 1489TIP3    H125958   1.532   2.894  11.416  1.9394  2.6679  0.3490
 1489TIP3    H225959   1.547   2.849  11.559  0.1121 -0.0953 -0.2503
 1490TIP3   OH225960   3.478   4.779   4.368  0.3527 -0.0906  0.4563
 1490TIP3    H125961   3.486   4.737   4.454  0.0631 -0.3771  0.3487
 1490TIP3    H225962   3.512   4.714   4.307 -0.1523 -0.1971  0.2817
 1491TIP3   OH225963   1.726   1.391   5.123  0.3828 -0.3530 -0.0952
 1491TIP3    H125964   1.648   1.386   5.179 -0.5487 -4.8293 -1.3669
 1491TIP3    H225965   1.796   1.419   5.181 -1.5156  0.6338  1.8760
 1492TIP3   OH225966   2.869   1.076   0.949 -0.2180 -0.0438  0.0301
 1492TIP3    H125967   2.832   1.115   0.870  0.0253 -0.2451 -0.1847
 1492TIP3    H225968   2.943   1.132   0.971 -0.2687 -0.0040  0.0995
 1493TIP3   OH225969   3.544   6.555  15.549 -0.0010  0.2844 -0.2705
 1493TIP3    H125970   3.529   6.602  15.631  0.4960 -0.1339  0.0607
 1493TIP3    H225971   3.460   6.559  15.504  0.0920  1.7599 -0.3922
 1494TIP3   OH225972   3.854   3.893   1.781 -0.1128 -0.3713  0.6852
 1494TIP3    H125973   3.909   3.943   1.841 -0.4570 -1.1976  1.7214
 1494TIP3    H225974   3.888   3.914   1.694  1.2856 -0.1929  1.2463
 1495TIP3   OH225975   6.617   6.590  15.956 -0.9886 -0.2596 -0.0344
 1495TIP3    H125976   6.642   6.506  15.916 -1.6280 -0.6902  0.4466
 1495TIP3    H225977   6.523   6.582  15.971 -1.0278  0.4918  0.1571
 1496TIP3   OH225978   2.525   3.365   2.960 -0.2346 -0.2380  0.7593
 1496TIP3    H125979   2.526   3.323   2.874  2.8899  0.4335  0.3489
 1496TIP3    H225980   2.447   3.329   3.003 -0.1682 -3.0219 -1.1581
 1497TIP3   OH225981   1.031   6.734  14.459 -0.2277  0.7658  0.4259
 1497TIP3    H125982   0.975   6.662  14.429 -2.6887  1.9243  1.9481
 1497TIP3    H225983   1.099   6.691  14.512 -1.6463 -0.4844  1.3078
 1498TIP3   OH225984   1.253   3.100  15.720 -0.3447  0.0630 -0.3245
 1498TIP3    H125985   1.200   3.024  15.746 -1.6992  0.8534 -0.7003
 1498TIP3    H225986   1.319   3.063  15.661 -1.0350 -0.8302 -0.5742
 1499TIP3   OH225987   2.955   2.312   3.337 -0.1575 -0.2554  0.1889
 1499TIP3    H125988   2.996   2.226   3.327 -0.0875 -0.2542  0.4561
 1499TIP3    H225989   2.980   2.340   3.425  0.0404  0.1572  0.0023
 1500TIP3   OH225990   4.899   4.161  16.645 -0.3127  1.0590 -0.6121
 1500TIP3    H125991   4.986   4.176  16.683 -0.2562  0.7676 -0.6255
 1500TIP3    H225992   4.900   4.212  16.564  0.0360  0.6469 -0.8752
 1501TIP3   OH225993   4.957   1.376  12.567  0.6482  0.0651  0.1407
 1501TIP3    H125994   4.985   1.467  12.556 -2.1852  1.2490  1.7393
 1501TIP3    H225995   4.864   1.377  12.546  0.2073 -2.1371  1.6609
 1502TIP3   OH225996   3.422   3.039   2.425 -0.0192 -0.1793 -0.1337
 1502TIP3    H125997   3.336   3.027   2.466  1.9322  0.8965  5.1061
 1502TIP3    H225998   3.476   2.969   2.462  2.1839  1.3857 -0.1893
 1503TIP3   OH225999   6.302   0.732   4.732 -0.4937 -0.1990 -0.1260
 1503TIP3    H126000   6.382   0.784   4.726 -0.6292  0.3763  2.0102
 1503TIP3    H226001   6.231   0.797   4.727 -0.8032 -0.5930 -0.9757
 1504TIP3   OH226002   0.221   0.053  12.802  0.2148  0.0480 -0.5919
 1504TIP3    H126003   0.187  -0.031  12.836  0.1481  0.5880  0.7320
 1504TIP3    H226004   0.188   0.057  12.712  1.9203 -2.2890 -1.4193
 1505TIP3   OH226005   0.154   4.773  12.398 -0.0403 -0.1456 -0.2577
 1505TIP3    H126006   0.153   4.685  12.360 -3.5249  0.4508 -2.0187
 1505TIP3    H226007   0.191   4.828  12.330  1.3993 -0.1035  0.5334
 1506TIP3   OH226008   2.016   2.297   5.384 -0.1006  0.2858 -0.1002
 1506TIP3    H126009   2.002   2.392   5.380  0.6834  0.3999 -0.3259
 1506TIP3    H226010   2.070   2.278   5.307 -0.1743 -0.3348 -0.0038
 1507TIP3   OH226011   6.429   3.873  14.359 -0.3758  0.7682  0.0739
 1507TIP3    H126012   6.457   3.786  14.333 -0.5219 -0.1006  2.5633
 1507TIP3    H226013   6.457   3.930  14.288  2.2966 -0.8901 -0.3159
 1508TIP3   OH226014   5.490   0.211  15.256  0.4821  0.1536 -0.0309
 1508TIP3    H126015   5.431   0.277  15.290 -0.1343 -0.5304  0.2616
 1508TIP3    H226016   5.484   0.219  15.161  0.6437  0.7112  0.0062
 1509TIP3   OH226017   6.536   2.812   1.174  0.2397 -0.2192 -0.3371
 1509TIP3    H126018   6.616   2.787   1.221 -0.8495 -0.4675  1.4511
 1509TIP3    H226019   6.535   2.908   1.179  1.1902 -0.0983 -1.7454
 1510TIP3   OH226020   1.768   4.927   2.636 -0.2775 -0.7916  0.2753
 1510TIP3    H126021   1.700   4.984   2.672 -0.3852  0.1774 -1.3497
 1510TIP3    H226022   1.747   4.920   2.543  2.0250 -0.1290 -0.3710
 1511TIP3   OH226023   6.752   0.000   0.455 -0.3735  0.0898  0.0358
 1511TIP3    H126024   6.780  -0.058   0.526 -0.1931 -0.9364 -0.8637
 1511TIP3    H226025   6.664  -0.031   0.433  0.1392 -0.5660 -1.1739
 1512TIP3   OH226026   5.851   2.978   2.121  0.5181  0.1964 -0.8015
 1512TIP3    H126027   5.807   3.030   2.187  1.2820 -1.1966  0.9185
 1512TIP3    H226028   5.800   2.897   2.115  1.1275 -0.1892 -1.0105
 1513TIP3   OH226029   2.443   3.685   5.575 -0.0991 -0.2776  0.5948
 1513TIP3    H126030   2.420   3.604   5.620 -1.5878 -0.0292  0.3562
 1513TIP3    H226031   2.418   3.670   5.484  2.7480 -0.7260 -0.1875
 1514TIP3   OH226032   5.769   1.183   2.269  0.4292  0.4637 -0.1432
 1514TIP3    H126033   5.753   1.182   2.174  0.3613 -1.4368 -0.1561
 1514TIP3    H226034   5.816   1.101   2.286 -0.6178  0.1751  1.6311
 1515TIP3   OH226035   3.210   2.192  10.456  0.4938  0.4379 -0.3620
 1515TIP3    H126036   3.189   2.102  10.433 -0.4932  0.4251  0.4763
 1515TIP3    H226037   3.164   2.245  10.391 -1.3556  0.3758  0.8038
 1516TIP3   OH226038   1.295   4.947  11.736  0.3363  0.7346 -0.2883
 1516TIP3    H126039   1.300   5.033  11.779  1.9209  0.4054  0.2637
 1516TIP3    H226040   1.374   4.901  11.765  0.2495 -0.3943 -1.7136
 1517TIP3   OH226041   1.959   3.721  15.756  0.2379  0.5017 -0.4591
 1517TIP3    H126042   2.044   3.676  15.759 -0.9826 -2.0434 -1.4385
 1517TIP3    H226043   1.956   3.761  15.670 -0.5923 -1.7393 -1.5366
 1518TIP3   OH226044   6.055   0.762  15.695 -0.5141 -0.1628 -0.2492
 1518TIP3    H126045   6.015   0.692  15.747  3.2558 -1.7614  0.8032
 1518TIP3    H226046   6.017   0.842  15.732 -1.9253 -1.4647  1.3183
 1519TIP3   OH226047   5.492   4.029  16.000  0.7690  0.2090  0.0327
 1519TIP3    H126048   5.541   3.990  15.928  1.4501 -0.0826  0.6452
 1519TIP3    H226049   5.401   4.006  15.982  0.9510  0.0012 -0.6482
 1520TIP3   OH226050   3.976   5.087  15.194 -0.0416  0.3190  0.1290
 1520TIP3    H126051   3.899   5.145  15.198  0.2608  0.7087  0.3879
 1520TIP3    H226052   3.940   5.001  15.174 -0.7374  0.1278  1.9947
 1521TIP3   OH226053   3.492   6.339  13.183 -0.2612 -0.4945  0.4407
 1521TIP3    H126054   3.477   6.244  13.184 -0.2012 -0.5707 -1.3383
 1521TIP3    H226055   3.583   6.349  13.156 -0.5192  0.0592 -0.2726
 1522TIP3   OH226056   1.586   1.344   4.708  0.4874 -0.1908  0.4556
 1522TIP3    H126057   1.677   1.360   4.734 -0.2199  1.3367  2.2187
 1522TIP3    H226058   1.554   1.430   4.681 -0.7233 -0.4928  0.8917
 1523TIP3   OH226059   0.995   1.252  15.209 -0.2408  0.5232 -0.5627
 1523TIP3    H126060   0.913   1.301  15.212 -0.7906 -0.3610 -0.7985
 1523TIP3    H226061   1.007   1.230  15.117 -1.4929 -2.1796 -0.1911
 1524TIP3   OH226062   6.700   4.254  14.437  0.3830 -0.0358  0.1037
 1524TIP3    H126063   6.742   4.214  14.512 -0.5806 -1.0327  0.1350
 1524TIP3    H226064   6.771   4.271  14.375  1.3112  1.5675  1.5376
 1525TIP3   OH226065   0.086   1.838  12.995  0.2980 -0.0640  0.0066
 1525TIP3    H126066   0.055   1.923  13.027 -1.1788  0.1072 -1.7097
 1525TIP3    H226067   0.061   1.776  13.063  0.2984  0.7147  0.7335
 1526TIP3   OH226068   3.068   3.974  10.524  0.0452  0.0559  0.4994
 1526TIP3    H126069   3.087   3.999  10.614 -0.1563  0.4005  0.4469
 1526TIP3    H226070   3.136   4.016  10.472  1.1657 -1.5083  0.6444
 1527TIP3   OH226071   2.080   4.048   0.906 -0.5482  0.2300 -0.6128
 1527TIP3    H126072   2.137   3.982   0.944  1.5879  0.5289 -2.9990
 1527TIP3    H226073   2.040   4.092   0.981 -0.6258 -2.5011  1.0647
 1528TIP3   OH226074   3.362   6.255   3.349 -0.4689 -0.1259  0.0801
 1528TIP3    H126075   3.408   6.174   3.373 -0.0142  0.3554  0.8628
 1528TIP3    H226076   3.281   6.252   3.399 -0.5765 -0.2244 -0.0992
 1529TIP3   OH226077   1.225   3.048  14.861 -0.3321  0.2617  0.0403
 1529TIP3    H126078   1.198   3.119  14.920  0.9930  0.8298 -0.0175
 1529TIP3    H226079   1.320   3.043  14.870 -0.4366 -2.0170  0.5937
 1530TIP3   OH226080   5.375   6.166  11.336  0.5563  0.4244 -0.6316
 1530TIP3    H126081   5.361   6.193  11.426 -2.3512 -0.5830 -0.6839
 1530TIP3    H226082   5.459   6.120  11.338  0.9651  1.1496  1.3564
 1531TIP3   OH226083   1.289   1.771  16.740  0.4940 -0.3151  0.5559
 1531TIP3    H126084   1.296   1.747  16.832  0.1135  2.8757  1.5180
 1531TIP3    H226085   1.375   1.749  16.703  0.1806 -3.0046  1.1998
 1532TIP3   OH226086   5.744   0.610   5.105  0.3632 -0.0461  0.7212
 1532TIP3    H126087   5.687   0.629   5.031  0.5979 -1.1112  0.2519
 1532TIP3    H226088   5.701   0.651   5.180 -0.9134 -0.6440  0.3413
 1533TIP3   OH226089   6.407   4.580   5.729  0.1588 -0.3562  0.4913
 1533TIP3    H126090   6.355   4.628   5.664 -1.2155  0.4820  2.1360
 1533TIP3    H226091   6.418   4.641   5.801  0.7472 -1.6045  1.5008
 1534TIP3   OH226092   0.462   5.794  12.604 -0.1053  0.2008 -0.3485
 1534TIP3    H126093   0.478   5.842  12.522  0.4039  0.5424 -0.0582
 1534TIP3    H226094   0.531   5.728  12.606 -1.4256 -1.2650 -1.2567
 1535TIP3   OH226095   4.190   5.319  16.910 -0.7127 -0.1903  0.5492
 1535TIP3    H126096   4.196   5.414  16.923  1.8896 -0.2232  0.2276
 1535TIP3    H226097   4.238   5.281  16.983 -1.6657 -1.2782  0.6368
 1536TIP3   OH226098   6.087   5.193  13.373  0.2048 -0.1019 -0.1995
 1536TIP3    H126099   6.087   5.143  13.291  0.4334  1.1748 -1.0164
 1536TIP3    H226100   6.177   5.222  13.384  0.1642 -0.2172  0.4800
 1537TIP3   OH226101   4.960   4.340  12.871  0.4410  0.3606 -0.2608
 1537TIP3    H126102   4.971   4.356  12.777  1.1310 -0.1046 -0.2691
 1537TIP3    H226103   4.996   4.419  12.912 -0.8255  1.0336 -0.3944
 1538TIP3   OH226104   5.743   3.480   0.434 -0.0991  0.0596  0.3002
 1538TIP3    H126105   5.691   3.560   0.422  0.1864 -0.0074 -1.7010
 1538TIP3    H226106   5.828   3.501   0.394 -0.1226 -1.3310 -0.5421
 1539TIP3   OH226107   2.430   6.484   4.081  0.0036 -0.1972  0.8377
 1539TIP3    H126108   2.386   6.546   4.022  1.7458  1.0114  0.7422
 1539TIP3    H226109   2.433   6.402   4.032 -0.9533  0.0579  0.3329
 1540TIP3   OH226110   4.217   1.238   0.429  0.2277 -0.2366  0.3050
 1540TIP3    H126111   4.278   1.285   0.372 -0.6520 -1.1361 -1.4278
 1540TIP3    H226112   4.273   1.202   0.499  1.6483 -0.7237 -1.0276
 1541TIP3   OH226113   2.933   5.067  12.589 -0.1684 -0.2805 -0.4244
 1541TIP3    H126114   2.887   5.150  12.606 -0.1436 -0.5577  1.2022
 1541TIP3    H226115   2.936   5.024  12.675  3.8142  0.0720 -0.2077
 1542TIP3   OH226116   2.059   6.653   2.144 -0.0485  0.2177  0.0057
 1542TIP3    H126117   2.147   6.643   2.181  0.4419  0.4274 -1.0653
 1542TIP3    H226118   2.002   6.606   2.204  0.7716  0.2558  0.8295
 1543TIP3   OH226119   6.139   5.814   4.647  0.5407  0.0650 -0.2668
 1543TIP3    H126120   6.106   5.768   4.724 -1.8667  0.3887 -1.0091
 1543TIP3    H226121   6.095   5.772   4.573 -1.5371  3.1586 -1.0151
 1544TIP3   OH226122   3.961   6.790  16.407  0.2917 -0.7178 -0.7708
 1544TIP3    H126123   4.039   6.832  16.442 -0.0638  0.1682 -1.0196
 1544TIP3    H226124   3.994   6.723  16.347  0.8898  1.3691 -2.9096
 1545TIP3   OH226125   0.302   5.810  11.975 -0.4199 -0.1628 -0.0769
 1545TIP3    H126126   0.309   5.750  12.049  1.0478  0.6920  0.5251
 1545TIP3    H226127   0.208   5.817  11.959 -0.9829  0.9412  2.8719
 1546TIP3   OH226128   0.043   0.620  14.450  0.4011 -0.0748 -0.1170
 1546TIP3    H126129   0.046   0.525  14.444  1.0998 -0.1369  1.0318
 1546TIP3    H226130  -0.050   0.641  14.457  0.3356 -0.8180  1.5840
 1547TIP3   OH226131   3.635   1.595   3.639 -0.0362 -0.7076  1.1158
 1547TIP3    H126132   3.629   1.600   3.735 -1.6438 -1.3145  1.0781
 1547TIP3    H226133   3.547   1.616   3.609  0.7331  0.6383 -0.3149
 1548TIP3   OH226134   6.268   4.786   5.542  0.5043  0.1935  0.1255
 1548TIP3    H126135   6.239   4.810   5.631 -0.2795  0.7675 -0.2719
 1548TIP3    H226136   6.244   4.861   5.488 -0.4467 -0.7790 -0.8497
 1549TIP3   OH226137   2.946   0.420   4.985  0.1382  0.2952 -0.0835
 1549TIP3    H126138   2.971   0.421   4.893 -1.0488 -1.2947 -0.4599
 1549TIP3    H226139   2.902   0.336   4.998 -0.9313  1.0480  1.6124
 1550TIP3   OH226140   3.818   2.545  15.397 -0.0647 -0.5969  0.2436
 1550TIP3    H126141   3.762   2.496  15.457 -2.5595  0.7020 -0.8305
 1550TIP3    H226142   3.854   2.616  15.450 -0.2437 -0.8847  0.7539
 1551TIP3   OH226143   0.842   4.990   1.177  0.2114 -0.1930 -0.6475
 1551TIP3    H126144   0.886   4.918   1.132  0.7510 -0.9177  0.9589
 1551TIP3    H226145   0.903   5.063   1.170 -0.0025 -0.0877 -1.6244
 1552TIP3   OH226146   6.292   3.349  11.701  0.1703  0.1671 -0.5467
 1552TIP3    H126147   6.241   3.359  11.621  2.3498 -0.1425 -2.0847
 1552TIP3    H226148   6.319   3.257  11.701  0.6780  0.3078  0.2137
 1553TIP3   OH226149   5.266   6.571  11.025 -0.5718 -1.0664 -0.4959
 1553TIP3    H126150   5.354   6.587  10.991 -0.7141 -0.6827 -0.6960
 1553TIP3    H226151   5.271   6.484  11.066 -0.2783 -1.3328 -1.0910
 1554TIP3   OH226152   4.126   5.167  11.008 -0.4872 -0.3078  0.0267
 1554TIP3    H126153   4.073   5.129  10.938 -2.1826 -0.0664  1.1121
 1554TIP3    H226154   4.063   5.183  11.079  0.9431  0.6201  1.1332
 1555TIP3   OH226155   6.385   6.267  15.247 -0.0625  0.0156 -0.3024
 1555TIP3    H126156   6.439   6.189  15.234  1.4870  1.1567 -1.1485
 1555TIP3    H226157   6.399   6.291  15.339 -0.9951 -0.9889  0.1191
 1556TIP3   OH226158   2.079   0.861   4.898 -0.7479 -0.4416 -0.1407
 1556TIP3    H126159   2.066   0.956   4.905 -1.5942 -0.5517 -0.1160
 1556TIP3    H226160   2.027   0.835   4.822 -0.6126 -0.9075 -0.0793
 1557TIP3   OH226161   4.724   0.707   2.669 -0.5396  0.1734  0.1350
 1557TIP3    H126162   4.784   0.648   2.623 -1.0773 -0.3783  0.1303
 1557TIP3    H226163   4.640   0.661   2.668 -1.3088  1.5288 -1.0519
 1558TIP3   OH226164   0.227   5.494   2.185 -0.4015 -0.0651  0.0000
 1558TIP3    H126165   0.229   5.400   2.166  0.2144 -0.0233 -0.1548
 1558TIP3    H226166   0.202   5.500   2.277  0.4134 -0.4128  0.2485
 1559TIP3   OH226167   0.990   6.702   3.213  0.4298  0.3058 -0.0328
 1559TIP3    H126168   1.039   6.699   3.296  0.7961  0.7589 -0.2300
 1559TIP3    H226169   1.000   6.792   3.182  0.0861  0.2050 -0.4493
 1560TIP3   OH226170   1.069   2.038   3.691  0.1523 -0.5783  0.1279
 1560TIP3    H126171   1.017   1.977   3.742 -1.1491 -0.7060 -1.2634
 1560TIP3    H226172   1.024   2.122   3.700  0.6792 -0.3109  0.2822
 1561TIP3   OH226173   0.789   2.397   5.536  0.3728 -0.1017  0.0042
 1561TIP3    H126174   0.876   2.426   5.564  1.7983 -2.2469 -1.8480
 1561TIP3    H226175   0.778   2.435   5.449  0.6894 -2.0196 -0.9089
 1562TIP3   OH226176   5.978   4.531  11.972 -0.0290 -0.3906  0.1175
 1562TIP3    H126177   5.981   4.624  11.994  1.9500 -0.5945  0.9303
 1562TIP3    H226178   5.890   4.503  11.997 -0.0209  0.8505  1.6952
 1563TIP3   OH226179   5.548   0.356   5.144 -0.0101 -0.4743  0.5131
 1563TIP3    H126180   5.520   0.394   5.061  1.6464 -0.1525  0.0550
 1563TIP3    H226181   5.503   0.408   5.211 -0.9458 -0.3906 -0.1651
 1564TIP3   OH226182   6.512   3.945   1.930  0.1182 -0.4822  0.3953
 1564TIP3    H126183   6.421   3.939   1.962 -0.1004  1.0419  0.1531
 1564TIP3    H226184   6.555   3.868   1.967 -1.2155 -1.1263  0.7000
 1565TIP3   OH226185   2.755   0.811  14.229 -0.0665 -0.4744  0.0881
 1565TIP3    H126186   2.787   0.803  14.318 -1.4325  0.6684  0.7342
 1565TIP3    H226187   2.670   0.767  14.229 -0.1045 -0.4257 -0.6253
 1566TIP3   OH226188   0.655   0.397   3.345 -0.7912 -0.1403 -0.8204
 1566TIP3    H126189   0.701   0.316   3.367 -3.2036 -1.4142 -0.0562
 1566TIP3    H226190   0.719   0.466   3.362  1.2591 -1.8381 -1.1881
 1567TIP3   OH226191   5.627   1.401  13.967  0.1660  0.4182  0.0876
 1567TIP3    H126192   5.653   1.411  13.875 -0.2230  1.1761  0.0490
 1567TIP3    H226193   5.706   1.371  14.011  0.3318 -0.0472 -0.5094
 1568TIP3   OH226194   2.594   0.015  11.635  0.1528 -0.1506 -0.2815
 1568TIP3    H126195   2.614  -0.048  11.565 -0.0890  0.7067 -1.1371
 1568TIP3    H226196   2.510  -0.014  11.670  0.5539 -0.9294  0.0589
 1569TIP3   OH226197   0.660   3.961   2.233  0.5352  0.0329  0.8197
 1569TIP3    H126198   0.745   4.003   2.227 -0.6054  3.1090  3.2619
 1569TIP3    H226199   0.651   3.935   2.324 -1.1641 -0.1387  0.6535
 1570TIP3   OH226200   6.314   6.349   3.613 -0.9413 -0.3749  0.3890
 1570TIP3    H126201   6.312   6.293   3.535 -0.7160  0.4114 -0.1917
 1570TIP3    H226202   6.252   6.307   3.674 -2.9251  0.2555 -1.0889
 1571TIP3   OH226203   2.346   0.258   3.292 -0.1610  0.2078 -0.1875
 1571TIP3    H126204   2.319   0.171   3.262 -2.3758  0.8804 -0.3104
 1571TIP3    H226205   2.357   0.309   3.212 -2.4561  0.9875 -0.0760
 1572TIP3   OH226206   5.071   2.843  14.481 -0.1499  0.5950 -0.8110
 1572TIP3    H126207   5.041   2.862  14.570  1.1937  0.9090 -0.3919
 1572TIP3    H226208   5.126   2.765  14.491  1.3290  1.5665 -1.0611
 1573TIP3   OH226209   4.223   3.946  10.589 -0.3397  0.2003  0.0879
 1573TIP3    H126210   4.250   3.891  10.662 -1.7528 -0.4513  0.1677
 1573TIP3    H226211   4.127   3.938  10.588 -0.3941  0.7209 -1.4275
 1574TIP3   OH226212   2.747   4.898  15.561  0.1125  0.2026  0.2414
 1574TIP3    H126213   2.757   4.826  15.500  0.3372 -1.3167  1.9705
 1574TIP3    H226214   2.836   4.921  15.586 -0.0113 -0.0067  0.8925
 1575TIP3   OH226215   4.753   6.168  13.278 -0.3390 -0.1333  0.2768
 1575TIP3    H126216   4.659   6.157  13.290 -0.4845 -0.2185 -0.8394
 1575TIP3    H226217   4.761   6.234  13.208  0.3615 -1.8702 -1.3734
 1576TIP3   OH226218   0.504   3.719   4.749  0.1780  0.2886 -0.1761
 1576TIP3    H126219   0.484   3.763   4.831 -1.4777  0.0259 -0.4135
 1576TIP3    H226220   0.600   3.717   4.746  0.2685  0.8967  1.4088
 1577TIP3   OH226221   4.927   1.615  16.678 -0.3372 -0.0893  0.6632
 1577TIP3    H126222   5.021   1.626  16.689 -0.4690  0.3376  1.4535
 1577TIP3    H226223   4.917   1.526  16.644  0.3724  0.0476  0.0763
 1578TIP3   OH226224   3.747   4.947   0.354  0.1976 -0.0199  0.5789
 1578TIP3    H126225   3.717   4.892   0.426  1.2136 -0.9947  0.2896
 1578TIP3    H226226   3.721   5.036   0.378  0.5348 -0.3319  2.1485
 1579TIP3   OH226227   4.234   3.146  11.399  0.0975 -0.3688  0.0961
 1579TIP3    H126228   4.288   3.097  11.337  0.5867  0.7337 -0.3700
 1579TIP3    H226229   4.228   3.234  11.361 -4.0434 -0.9735 -1.2061
 1580TIP3   OH226230   4.093   5.831   4.557 -0.3280 -0.2087 -0.3550
 1580TIP3    H126231   4.078   5.738   4.577 -2.2586  0.1312  0.0173
 1580TIP3    H226232   4.032   5.850   4.486 -0.8412  1.0598  0.4006
 1581TIP3   OH226233   1.736   1.073   2.375 -0.0218  0.2238 -0.1870
 1581TIP3    H126234   1.804   1.014   2.342  0.5158  0.1993  0.9063
 1581TIP3    H226235   1.659   1.018   2.385  0.3209 -0.1831  0.2946
 1582TIP3   OH226236   3.123   3.610  15.742 -0.6349 -0.5065 -0.1118
 1582TIP3    H126237   3.082   3.660  15.813 -1.8527 -2.0261  0.3177
 1582TIP3    H226238   3.200   3.569  15.783 -1.1807 -1.1587  0.2854
 1583TIP3   OH226239   3.035   0.179  13.008 -0.0709 -0.4784 -0.1434
 1583TIP3    H126240   2.970   0.111  12.990 -0.5226 -0.3892  1.0773
 1583TIP3    H226241   3.118   0.132  13.009 -0.1582 -0.6856 -1.1785
 1584TIP3   OH226242   2.797   5.524  16.079  0.2972  0.2753  0.3327
 1584TIP3    H126243   2.761   5.611  16.064 -0.8593 -0.1909  0.3380
 1584TIP3    H226244   2.875   5.521  16.023  0.6663  1.5039  0.7575
 1585TIP3   OH226245   1.589   2.225   4.338 -0.2957  0.1281  0.5525
 1585TIP3    H126246   1.627   2.241   4.251 -0.8386 -1.0199  0.0923
 1585TIP3    H226247   1.635   2.286   4.395 -0.1475  1.1343 -0.5920
 1586TIP3   OH226248   6.722   6.502   6.340 -0.2480 -0.5265  0.1895
 1586TIP3    H126249   6.695   6.529   6.428  2.7240  2.0315  0.4915
 1586TIP3    H226250   6.797   6.444   6.354  2.8197  2.8901 -0.3920
 1587TIP3   OH226251   3.383   4.091  13.108  0.3116  0.0474  0.0187
 1587TIP3    H126252   3.289   4.080  13.117  0.3981 -0.8100  0.0540
 1587TIP3    H226253   3.410   4.015  13.055  1.1960 -0.6345  1.3835
 1588TIP3   OH226254   1.407   6.430  12.802  0.1683  0.5255  0.2771
 1588TIP3    H126255   1.325   6.479  12.805 -0.4147 -0.3795 -0.4328
 1588TIP3    H226256   1.421   6.399  12.891 -1.0231 -0.5305  0.1165
 1589TIP3   OH226257   4.766   0.704   0.866  0.1647  0.4200 -0.0795
 1589TIP3    H126258   4.852   0.733   0.837  0.2119 -1.1719 -1.7493
 1589TIP3    H226259   4.707   0.731   0.796 -0.0620 -1.7114 -0.7832
 1590TIP3   OH226260   3.926   1.543   6.178  0.1146  0.1181  0.1953
 1590TIP3    H126261   4.005   1.502   6.212  2.0009  2.5799 -0.8629
 1590TIP3    H226262   3.941   1.637   6.189 -1.2975  0.8198 -2.7895
 1591TIP3   OH226263   5.656   1.743  14.068  0.3484 -0.6806 -0.0973
 1591TIP3    H126264   5.683   1.809  14.004  0.5897  1.2118  1.8081
 1591TIP3    H226265   5.736   1.696  14.090  0.2200 -1.5000 -1.2988
 1592TIP3   OH226266   2.250   5.185   6.609 -0.4084  0.5498  0.7314
 1592TIP3    H126267   2.270   5.264   6.660  0.5538  0.2835  0.8029
 1592TIP3    H226268   2.290   5.114   6.660 -0.5854  0.1170  0.2739
 1593TIP3   OH226269   1.831   6.497  15.998 -0.6069  0.2209  0.3353
 1593TIP3    H126270   1.765   6.472  16.062 -0.2166 -0.9877  0.2979
 1593TIP3    H226271   1.880   6.567  16.039 -1.7875  1.0187  0.4329
 1594TIP3   OH226272   3.371   3.331   2.404  0.1498 -0.6365 -0.1856
 1594TIP3    H126273   3.413   3.301   2.324  0.6483 -2.3502  0.6761
 1594TIP3    H226274   3.279   3.306   2.394  0.2841 -1.1887 -0.0853
 1595TIP3   OH226275   6.255   2.793   4.739 -0.2353  0.2190 -0.9585
 1595TIP3    H126276   6.187   2.861   4.743 -0.2980  0.1468 -0.7699
 1595TIP3    H226277   6.226   2.735   4.669 -1.2233 -0.7050  0.1743
 1596TIP3   OH226278   4.240   3.479   2.480 -0.2335  0.1024  0.0728
 1596TIP3    H126279   4.278   3.500   2.395 -1.3126 -0.0075 -0.4538
 1596TIP3    H226280   4.230   3.564   2.523  0.0554  0.1863 -0.0276
 1597TIP3   OH226281   0.551   6.192  15.248  0.2709  0.0455  0.0896
 1597TIP3    H126282   0.457   6.209  15.257 -0.0831 -0.8076 -1.5051
 1597TIP3    H226283   0.559   6.151  15.162  2.1711  0.4726  0.0255
 1598TIP3   OH226284   6.507   5.674  12.987  0.1701 -0.0794  0.8283
 1598TIP3    H126285   6.564   5.748  12.966 -0.6163  0.6038  1.0306
 1598TIP3    H226286   6.565   5.598  12.987  0.8825  0.4414 -0.0229
 1599TIP3   OH226287   0.844   4.688   5.392  0.0790 -0.5681  0.0144
 1599TIP3    H126288   0.919   4.677   5.334 -1.0481 -3.9331 -1.0268
 1599TIP3    H226289   0.791   4.757   5.352  1.9142  1.0043  0.1309
 1600TIP3   OH226290   0.122   0.653   4.994 -0.3690  0.2107 -0.0087
 1600TIP3    H126291   0.044   0.605   4.967 -0.8983  1.6247 -1.0985
 1600TIP3    H226292   0.142   0.710   4.920  1.8201 -0.2247  0.1726
 1601TIP3   OH226293   3.253   1.377  11.397 -0.6778  0.1685  0.5276
 1601TIP3    H126294   3.345   1.352  11.403 -1.0016 -1.1785  0.2844
 1601TIP3    H226295   3.237   1.427  11.477  0.6343  1.8158 -0.1747
 1602TIP3   OH226296   2.396   0.940   5.494  0.3972  0.2381 -0.3080
 1602TIP3    H126297   2.436   0.854   5.513  0.2532 -0.2371 -1.9945
 1602TIP3    H226298   2.450   1.002   5.543  0.0676 -0.8549  1.5361
 1603TIP3   OH226299   4.754   4.793  12.655 -0.0815  0.2247  0.2309
 1603TIP3    H126300   4.729   4.885  12.656  0.1393  0.2780  1.0807
 1603TIP3    H226301   4.750   4.765  12.747 -0.7006 -0.7627 -0.0754
 1604TIP3   OH226302   6.016   1.240   1.883  0.2512  0.0231  0.0319
 1604TIP3    H126303   5.997   1.297   1.808  0.6605 -1.6250 -1.4009
 1604TIP3    H226304   6.111   1.228   1.879  0.0127 -1.9743 -0.6779
 1605TIP3   OH226305   4.972   0.058  12.307 -0.1952 -0.4363  0.0492
 1605TIP3    H126306   4.963  -0.032  12.335  2.1323 -1.9812 -3.4311
 1605TIP3    H226307   5.047   0.092  12.355 -1.4103 -0.0424  1.7762
 1606TIP3   OH226308   3.166   6.639   0.331 -0.0782 -0.1616  0.0337
 1606TIP3    H126309   3.241   6.694   0.351  0.0620 -0.1965 -0.3888
 1606TIP3    H226310   3.202   6.552   0.314 -0.3067 -0.4057  0.7752
 1607TIP3   OH226311   4.046   1.398  11.726 -0.2239  0.7185 -0.2418
 1607TIP3    H126312   4.068   1.488  11.748 -1.0764  0.5700  1.3800
 1607TIP3    H226313   4.096   1.379  11.647  0.3712  2.4342 -0.3080
 1608TIP3   OH226314   1.359   6.269  15.586 -0.3986 -0.2628  0.4346
 1608TIP3    H126315   1.355   6.209  15.511  1.1439  0.8204 -0.5926
 1608TIP3    H226316   1.452   6.291  15.593 -0.6350  0.2983  2.1827
 1609TIP3   OH226317   6.500   6.724   3.353 -0.0381  0.2071 -0.1523
 1609TIP3    H126318   6.578   6.755   3.398 -0.0801 -0.7892  0.6514
 1609TIP3    H226319   6.515   6.630   3.340 -0.0914  0.4258 -2.1366
 1610TIP3   OH226320   3.555   1.370  16.905  1.0131 -0.8116 -0.4586
 1610TIP3    H126321   3.616   1.439  16.928  0.1260  0.2933 -1.3101
 1610TIP3    H226322   3.495   1.410  16.842 -0.6338 -1.8070  0.3903
 1611TIP3   OH226323   1.789   0.751   1.975  0.3525  0.2943  0.6511
 1611TIP3    H126324   1.844   0.798   2.038  3.2877  0.3196 -1.7037
 1611TIP3    H226325   1.757   0.818   1.916 -2.1732  0.2349  1.8280
 1612TIP3   OH226326   0.209   1.867  15.108  0.5852 -0.9534  0.2299
 1612TIP3    H126327   0.220   1.825  15.023  2.7301 -1.7575  0.8463
 1612TIP3    H226328   0.283   1.928  15.114  0.0187 -0.3438  1.2133
 1613TIP3   OH226329   6.239   4.168   1.962  0.0492  0.2445 -0.0922
 1613TIP3    H126330   6.245   4.106   2.034 -0.3979  0.8328  0.4698
 1613TIP3    H226331   6.247   4.115   1.883  2.9926 -0.1558  0.3661
 1614TIP3   OH226332   6.362   6.804  13.298 -0.3861  0.8262 -0.0685
 1614TIP3    H126333   6.445   6.847  13.319 -0.4668  0.6382  0.6770
 1614TIP3    H226334   6.313   6.871  13.250 -1.3722  2.4684  2.9382
 1615TIP3   OH226335   4.887   2.962   1.605 -0.0228  0.9562  0.1898
 1615TIP3    H126336   4.974   2.990   1.578 -0.9388  1.6088 -2.4759
 1615TIP3    H226337   4.882   2.870   1.578 -0.3414  1.0966 -0.2456
 1616TIP3   OH226338   2.179   3.294   5.354 -0.1655 -0.7131 -0.2498
 1616TIP3    H126339   2.243   3.238   5.398  1.1632 -0.7059 -2.0605
 1616TIP3    H226340   2.208   3.296   5.263 -2.2772  0.0058 -0.9603
 1617TIP3   OH226341   3.901   3.136   5.574  0.1626 -0.1214  0.1750
 1617TIP3    H126342   3.860   3.086   5.503  0.4508  1.1869 -0.9451
 1617TIP3    H226343   3.864   3.098   5.654  0.0464 -1.8252 -0.6413
 1618TIP3   OH226344   0.468   5.153   0.633 -0.1777 -0.2994  0.5447
 1618TIP3    H126345   0.404   5.163   0.562 -1.0755  2.2491  1.5860
 1618TIP3    H226346   0.425   5.096   0.696  0.1202 -1.5779 -0.3880
 1619TIP3   OH226347   3.083   1.029  16.833 -0.1706 -0.5174  0.3585
 1619TIP3    H126348   3.046   1.110  16.868 -1.9320 -0.8200 -0.6643
 1619TIP3    H226349   3.168   1.021  16.876 -0.3917  1.3281  1.2557
 1620TIP3   OH226350   2.682   3.636   0.117 -0.5004 -0.2240  0.2246
 1620TIP3    H126351   2.606   3.587   0.087 -0.3691 -2.1388  2.7374
 1620TIP3    H226352   2.680   3.628   0.212  0.7863  2.8750  0.6497
 1621TIP3   OH226353   3.659   3.515   3.907  0.2524 -0.4288 -0.3836
 1621TIP3    H126354   3.749   3.486   3.921  0.5769 -0.0169 -1.5322
 1621TIP3    H226355   3.664   3.611   3.909 -0.3246 -0.3977  0.4390
 1622TIP3   OH226356   1.158   4.158  15.004 -0.1413  0.6437 -0.4995
 1622TIP3    H126357   1.138   4.125  14.917  0.4369 -1.2292  0.0226
 1622TIP3    H226358   1.250   4.135  15.019 -0.3995  0.3645  0.8290
 1623TIP3   OH226359   2.310   2.828  12.280  0.2664  0.4607  0.3523
 1623TIP3    H126360   2.310   2.916  12.242  0.6453  1.2727  2.1175
 1623TIP3    H226361   2.262   2.838  12.363 -1.6741 -1.5190 -0.4524
 1624TIP3   OH226362   1.650   3.246  13.273 -0.2062 -0.2621  0.4888
 1624TIP3    H126363   1.675   3.266  13.363  2.2365 -1.9842  0.3292
 1624TIP3    H226364   1.585   3.176  13.281  1.0494 -1.4348  0.9948
 1625TIP3   OH226365   0.785   4.081   4.546  0.1647  0.1181 -0.5915
 1625TIP3    H126366   0.713   4.017   4.541  0.4754 -0.6531  2.5480
 1625TIP3    H226367   0.864   4.028   4.550  0.7496  0.8845 -1.5088
 1626TIP3   OH226368   2.879   4.745  13.546 -0.2923  0.1058  0.1914
 1626TIP3    H126369   2.951   4.689  13.575  0.4829  0.6572 -0.6241
 1626TIP3    H226370   2.802   4.688  13.548  0.4683 -0.9809 -0.5664
 1627TIP3   OH226371   4.670   0.992   5.077 -0.6459 -0.0402 -0.1411
 1627TIP3    H126372   4.733   0.922   5.062 -1.3346 -0.6207 -0.4111
 1627TIP3    H226373   4.676   1.010   5.170  0.4292  0.4203 -0.2883
 1628TIP3   OH226374   2.705   2.355   3.217 -0.3178  0.1780 -0.0825
 1628TIP3    H126375   2.793   2.355   3.252  0.8474  0.5024 -2.7550
 1628TIP3    H226376   2.668   2.271   3.246  0.4580  0.4686  1.8861
 1629TIP3   OH226377   1.399   0.813   1.429  0.5062  0.8099 -0.5536
 1629TIP3    H126378   1.338   0.741   1.414  1.0878  0.1152  0.3687
 1629TIP3    H226379   1.463   0.804   1.358  0.9306  0.0312 -0.0809
 1630TIP3   OH226380   6.470   1.208  15.172 -0.4712 -0.0726 -0.4280
 1630TIP3    H126381   6.395   1.186  15.228 -0.5534  0.4459 -0.3345
 1630TIP3    H226382   6.546   1.203  15.230 -0.2082 -2.2052 -0.8739
 1631TIP3   OH226383   6.403   1.150   1.625  0.4229 -0.1096 -0.3858
 1631TIP3    H126384   6.478   1.119   1.677 -0.9036 -0.0613  1.6489
 1631TIP3    H226385   6.384   1.237   1.660  0.5850  0.7115 -2.2212
 1632TIP3   OH226386   3.793   1.992   6.447  0.2336  0.4204  0.1858
 1632TIP3    H126387   3.834   2.077   6.460  0.2288  0.3072  0.9956
 1632TIP3    H226388   3.865   1.929   6.445  0.0913  0.0620  2.9309
 1633TIP3   OH226389   4.693   2.836   4.430 -0.3013 -0.3541  0.2126
 1633TIP3    H126390   4.626   2.847   4.498 -0.5011 -0.6943  0.0731
 1633TIP3    H226391   4.707   2.741   4.425  0.4750 -0.2600  0.5128
 1634TIP3   OH226392   1.128   3.148  15.396  0.4835  0.0131 -0.5160
 1634TIP3    H126393   1.079   3.188  15.468 -0.2800 -0.5228 -0.7377
 1634TIP3    H226394   1.161   3.066  15.431 -1.9482 -1.4626 -1.4707
 1635TIP3   OH226395   3.223   5.769  11.855  0.5947  0.4385 -0.6302
 1635TIP3    H126396   3.214   5.810  11.769 -1.4945 -1.0402 -1.2026
 1635TIP3    H226397   3.135   5.740  11.877  1.3562 -0.5624  1.3399
 1636TIP3   OH226398   3.247   5.401   2.720 -0.7553 -0.1369 -0.0177
 1636TIP3    H126399   3.213   5.489   2.703  0.7529  0.7802  1.4297
 1636TIP3    H226400   3.209   5.377   2.805  0.7975  0.2107  0.8086
 1637TIP3   OH226401   4.989   2.100   4.480  0.1047 -0.7140 -0.9914
 1637TIP3    H126402   4.963   2.056   4.400 -0.2317 -0.3936 -1.0591
 1637TIP3    H226403   5.083   2.079   4.489 -0.2726 -2.3280 -0.4513
 1638TIP3   OH226404   1.069   0.985   1.161  0.2098 -0.1696 -0.2335
 1638TIP3    H126405   1.034   0.951   1.078  0.2128 -0.2019 -0.2216
 1638TIP3    H226406   1.164   0.982   1.150  0.2104  1.0082 -0.7103
 1639TIP3   OH226407   2.803   3.310   5.291  0.2709 -0.6518 -0.0320
 1639TIP3    H126408   2.743   3.373   5.250  0.2153  0.4058  1.6037
 1639TIP3    H226409   2.871   3.296   5.225 -1.2924 -1.2771 -1.6318
 1640TIP3   OH226410   4.563   5.460   5.071  0.0992  0.0036  0.2390
 1640TIP3    H126411   4.607   5.386   5.030 -0.1142 -0.1563  0.2983
 1640TIP3    H226412   4.472   5.455   5.040 -0.4354 -0.9710  1.8664
 1641TIP3   OH226413   1.716   0.915  12.895 -0.3418 -0.1623 -0.2128
 1641TIP3    H126414   1.811   0.925  12.901 -0.1321 -1.9140  0.0907
 1641TIP3    H226415   1.688   0.985  12.836  1.3253 -0.4241 -1.3976
 1642TIP3   OH226416   0.588   1.947   0.219  0.0067 -0.1355  0.1704
 1642TIP3    H126417   0.545   1.865   0.195  1.3202 -0.9135  0.3786
 1642TIP3    H226418   0.601   1.992   0.136 -0.2441 -0.3815 -0.0059
 1643TIP3   OH226419   0.154   0.336  12.906  0.3332 -0.0072 -0.2402
 1643TIP3    H126420   0.173   0.325  12.812 -0.1981 -0.2754 -0.3200
 1643TIP3    H226421   0.239   0.324  12.948  0.5129 -0.2672 -0.6624
 1644TIP3   OH226422   4.302   6.448   0.595  0.3567  0.2196 -0.1234
 1644TIP3    H126423   4.354   6.426   0.672 -0.0147 -0.6822 -0.1211
 1644TIP3    H226424   4.361   6.433   0.521  0.5644  0.6319 -0.0440
 1645TIP3   OH226425   0.259   1.936   3.740  0.3905  0.1298 -0.0673
 1645TIP3    H126426   0.207   1.881   3.681  0.3509 -0.0535  0.1341
 1645TIP3    H226427   0.198   1.959   3.810  0.7347 -0.5532  0.4621
 1646TIP3   OH226428   1.637   4.822   2.395 -0.4495  0.1452 -0.0601
 1646TIP3    H126429   1.551   4.863   2.390 -0.3507  0.1907 -2.3197
 1646TIP3    H226430   1.623   4.732   2.365  0.2266  0.0753 -0.1935
 1647TIP3   OH226431   3.489   6.029   3.906 -0.4919 -0.4131 -0.2740
 1647TIP3    H126432   3.511   6.122   3.910 -1.2255 -0.0919 -2.3116
 1647TIP3    H226433   3.569   5.984   3.933 -0.0068  0.7954  0.3862
 1648TIP3   OH226434   2.743   6.541  12.501  0.3396 -0.9133 -0.4905
 1648TIP3    H126435   2.731   6.494  12.418  0.2581 -0.7239 -0.5854
 1648TIP3    H226436   2.744   6.633  12.476 -1.5471 -0.7353 -0.0814
 1649TIP3   OH226437   5.932   0.759   0.806 -0.5721  0.2473 -0.0916
 1649TIP3    H126438   5.883   0.681   0.830 -1.1605  0.8735  0.7804
 1649TIP3    H226439   5.974   0.788   0.887  1.0807 -0.1384 -0.7646
 1650TIP3   OH226440   1.274   3.268  12.638 -0.0333  0.6514  0.2973
 1650TIP3    H126441   1.208   3.216  12.685  0.3314  0.7152  0.8807
 1650TIP3    H226442   1.233   3.353  12.625  0.1267  0.8520  1.1092
 1651TIP3   OH226443   4.545   1.572  13.918  0.0922 -0.0073 -0.0951
 1651TIP3    H126444   4.476   1.545  13.858 -1.2361  0.4883  1.1435
 1651TIP3    H226445   4.617   1.600  13.862  0.0465 -2.3512 -1.4356
 1652TIP3   OH226446   0.379   0.531   0.450 -0.9266 -0.1354  0.1977
 1652TIP3    H126447   0.430   0.599   0.495 -1.1448 -0.5383  1.0649
 1652TIP3    H226448   0.445   0.472   0.414 -0.7366  0.4877 -0.5131
 1653TIP3   OH226449   1.060   3.806   2.212 -0.1181  0.2423 -0.2350
 1653TIP3    H126450   1.009   3.775   2.287 -0.1172 -0.4193 -0.4939
 1653TIP3    H226451   0.995   3.826   2.145 -0.0993  0.4405 -0.1921
 1654TIP3   OH226452   3.601   4.151  16.585  0.1699 -0.4557 -0.3029
 1654TIP3    H126453   3.626   4.063  16.614 -2.2099 -0.9940  0.3382
 1654TIP3    H226454   3.609   4.147  16.489 -0.6759 -1.6576 -0.3515
 1655TIP3   OH226455   5.511   4.418  10.757 -0.1967  0.0328 -0.4507
 1655TIP3    H126456   5.557   4.501  10.746  1.0846 -0.4596  0.8467
 1655TIP3    H226457   5.476   4.399  10.670 -1.4677  2.4264 -0.5628
 1656TIP3   OH226458   2.967   0.359   4.226 -0.1864 -0.1384  0.4833
 1656TIP3    H126459   3.051   0.355   4.272 -0.2550 -0.2899  0.5998
 1656TIP3    H226460   2.953   0.452   4.209  0.1736 -0.1451  0.1467
 1657TIP3   OH226461   2.075   2.262   1.009  0.3911  0.3312  0.3547
 1657TIP3    H126462   2.165   2.245   0.983  0.2671  1.1028 -0.6211
 1657TIP3    H226463   2.033   2.297   0.930 -0.5860  0.6135  0.9830
 1658TIP3   OH226464   3.236   3.056   6.514 -0.3612 -0.0300  0.4206
 1658TIP3    H126465   3.167   3.102   6.563 -0.4310 -1.5210  1.8002
 1658TIP3    H226466   3.232   2.966   6.546  0.5831 -0.7286 -1.3187
 1659TIP3   OH226467   1.969   4.713  13.428 -0.4721 -0.2947  0.1051
 1659TIP3    H126468   1.949   4.806  13.420 -0.7719 -0.3719 -0.0327
 1659TIP3    H226469   1.999   4.703  13.519  0.2613  0.0639 -0.0875
 1660TIP3   OH226470   3.857   0.904   0.977  0.3328 -0.8037  0.2660
 1660TIP3    H126471   3.906   0.976   1.015 -0.1634 -0.5049  0.3517
 1660TIP3    H226472   3.765   0.927   0.992  0.1003 -0.4596 -1.4949
 1661TIP3   OH226473   4.632   4.309   1.879 -0.1219 -0.1018  0.4151
 1661TIP3    H126474   4.703   4.247   1.865  1.3239  1.5935 -0.1191
 1661TIP3    H226475   4.627   4.318   1.975  0.3276 -0.2735  0.4576
 1662TIP3   OH226476   2.260   4.600  14.495 -0.0305  0.2184  0.3514
 1662TIP3    H126477   2.239   4.550  14.574 -0.0874  0.9239  0.7958
 1662TIP3    H226478   2.258   4.692  14.524 -1.0603  0.5548 -0.6866
 1663TIP3   OH226479   0.300   3.264  13.037  0.1164 -0.7741 -0.0628
 1663TIP3    H126480   0.338   3.185  13.077 -1.0871 -0.0532  2.7816
 1663TIP3    H226481   0.223   3.231  12.990  1.5227 -1.6451 -1.8819
 1664TIP3   OH226482   5.710   3.334  12.293 -0.3694 -0.5423  0.2623
 1664TIP3    H126483   5.761   3.415  12.290  1.8848 -1.6942  2.5315
 1664TIP3    H226484   5.619   3.362  12.295  0.3557  2.0016  1.5962
 1665TIP3   OH226485   4.842   0.205  14.519 -0.4965 -0.0439 -0.0182
 1665TIP3    H126486   4.872   0.275  14.577  0.2136 -0.1951 -0.1865
 1665TIP3    H226487   4.759   0.177  14.556  1.1456 -1.9885  2.5948
 1666TIP3   OH226488   6.784   3.777  16.898  0.2291  0.2169 -0.1085
 1666TIP3    H126489   6.748   3.764  16.810 -0.9573  0.7266  0.2874
 1666TIP3    H226490   6.847   3.849  16.886 -0.7607  1.0745 -0.3475
 1667TIP3   OH226491   5.225   1.354  16.384  0.8287 -0.1265 -0.4953
 1667TIP3    H126492   5.185   1.440  16.398 -0.9134 -0.8864 -0.6124
 1667TIP3    H226493   5.293   1.369  16.318  1.0572  1.2786  0.0276
 1668TIP3   OH226494   3.666   6.038   4.271  0.2781 -0.0179  0.4439
 1668TIP3    H126495   3.707   6.031   4.357 -0.9431  0.5195  1.0868
 1668TIP3    H226496   3.572   6.035   4.289  0.0160 -0.6560 -0.9433
 1669TIP3   OH226497   5.882   2.444   2.827 -0.4959  0.3125  0.1411
 1669TIP3    H126498   5.923   2.517   2.874  1.3943  1.0849 -2.4677
 1669TIP3    H226499   5.802   2.481   2.791 -0.7305  0.3930  0.7236
 1670TIP3   OH226500   0.581   0.470  15.296 -0.4203  0.1903 -0.7568
 1670TIP3    H126501   0.638   0.398  15.269 -0.0892 -0.0845  0.5637
 1670TIP3    H226502   0.640   0.536  15.331 -0.8770 -0.3123  1.1007
 1671TIP3   OH226503   1.055   1.813  14.141 -0.1213  0.3793  0.4870
 1671TIP3    H126504   1.017   1.865  14.070  1.8252 -0.1485 -1.0376
 1671TIP3    H226505   1.148   1.806  14.119  0.3238 -0.8723  2.4587
 1672TIP3   OH226506   3.643   1.779  11.452 -0.0868 -0.0763 -0.6858
 1672TIP3    H126507   3.589   1.840  11.502  0.6822 -0.5483  0.7682
 1672TIP3    H226508   3.585   1.748  11.382 -1.4008  0.1522  0.2671
 1673TIP3   OH226509   3.865   1.879   3.131 -0.4894  0.2100 -0.4595
 1673TIP3    H126510   3.778   1.855   3.099  0.0369 -1.7360 -0.5083
 1673TIP3    H226511   3.924   1.863   3.058  0.5606 -3.2010  0.9586
 1674TIP3   OH226512   2.110   5.247  15.508  0.2747  0.1043 -0.4079
 1674TIP3    H126513   2.182   5.304  15.536  0.6995 -1.0834  1.0353
 1674TIP3    H226514   2.045   5.307  15.472  0.6145  1.5609  1.2580
 1675TIP3   OH226515   1.954   5.336   5.850 -0.0559  0.2621  0.9184
 1675TIP3    H126516   1.924   5.263   5.794 -3.2432  0.5862  2.0064
 1675TIP3    H226517   2.038   5.361   5.812 -0.8267 -1.2017 -2.1540
 1676TIP3   OH226518   5.673   6.730   0.472 -0.1872 -0.7935  0.9278
 1676TIP3    H126519   5.581   6.724   0.445 -0.1914  0.3166  0.6312
 1676TIP3    H226520   5.670   6.758   0.563 -0.1640  0.8584  0.4564
 1677TIP3   OH226521   6.821   3.272   1.790 -0.0160  0.1071  0.0052
 1677TIP3    H126522   6.914   3.253   1.803  0.0496  0.5610  0.2065
 1677TIP3    H226523   6.792   3.306   1.875 -0.3652 -0.0318 -0.0579
 1678TIP3   OH226524   3.726   5.762  16.501  0.4446  1.0118  0.2216
 1678TIP3    H126525   3.674   5.807  16.568  1.5118  0.4653  1.4566
 1678TIP3    H226526   3.816   5.782  16.523  0.8532  0.0970 -0.5538
 1679TIP3   OH226527   6.734   5.422  16.762 -0.9656 -0.0244 -0.9016
 1679TIP3    H126528   6.759   5.488  16.697 -1.7176 -1.0542 -2.2976
 1679TIP3    H226529   6.657   5.458  16.805 -1.6425 -0.1697 -1.9708
 1680TIP3   OH226530   0.722   1.319   1.696 -0.0803 -0.4723  0.0539
 1680TIP3    H126531   0.655   1.386   1.714 -0.4220 -0.3930 -1.3938
 1680TIP3    H226532   0.778   1.320   1.774 -1.7504 -0.5487  1.3247
 1681TIP3   OH226533   1.112   0.314  15.723  0.1238 -0.3317  0.1675
 1681TIP3    H126534   1.103   0.237  15.779  0.1889  1.1749  2.3727
 1681TIP3    H226535   1.071   0.385  15.773  1.6216  1.4336 -0.9726
 1682TIP3   OH226536   2.517   5.885  16.511  0.6193  0.1936 -0.6982
 1682TIP3    H126537   2.451   5.911  16.447 -1.5455 -3.9824 -0.4456
 1682TIP3    H226538   2.468   5.854  16.587  2.9831 -0.0451  0.8507
 1683TIP3   OH226539   5.046   2.930  13.977  0.5037 -0.3273 -0.4754
 1683TIP3    H126540   5.060   3.002  14.037  0.4115 -1.5749  1.1111
 1683TIP3    H226541   5.118   2.869  13.995  1.7598  0.2159 -3.1920
 1684TIP3   OH226542   4.384   5.825   3.671  0.0501 -0.6903 -0.3382
 1684TIP3    H126543   4.358   5.877   3.747 -2.8700 -0.3554 -1.4465
 1684TIP3    H226544   4.425   5.889   3.613  0.8725 -0.6355  0.2850
 1685TIP3   OH226545   5.613   0.355  15.548  0.6028  0.0413  0.1107
 1685TIP3    H126546   5.552   0.426  15.524 -0.8893 -0.4028  2.2737
 1685TIP3    H226547   5.678   0.398  15.603 -0.2913 -0.2143  1.4068
 1686TIP3   OH226548   3.203   6.490  10.895 -1.1050  0.1271 -0.6906
 1686TIP3    H126549   3.291   6.520  10.872 -1.7539  3.1975  0.3379
 1686TIP3    H226550   3.207   6.470  10.988 -1.2790 -0.5986 -0.8383
 1687TIP3   OH226551   2.588   2.826  16.631 -0.2075  0.0653 -0.3789
 1687TIP3    H126552   2.653   2.810  16.563 -1.1147 -2.3047 -0.7935
 1687TIP3    H226553   2.639   2.850  16.708  1.0544 -0.3613 -1.0562
 1688TIP3   OH226554   5.343   0.555  11.401 -0.4943 -0.0800  0.2662
 1688TIP3    H126555   5.391   0.593  11.327 -2.5358  3.4097  0.4723
 1688TIP3    H226556   5.302   0.476  11.365 -1.2002  1.3416 -2.3482
 1689TIP3   OH226557   6.824   5.818   2.427  0.1830  0.3125 -0.3265
 1689TIP3    H126558   6.876   5.742   2.453 -1.9409 -1.4862 -0.9585
 1689TIP3    H226559   6.842   5.828   2.334 -0.9682 -0.7050 -0.6894
 1690TIP3   OH226560   1.087   0.155  14.357 -0.2568  0.0026 -0.2497
 1690TIP3    H126561   1.181   0.172  14.364 -0.0798 -0.7388 -0.7552
 1690TIP3    H226562   1.080   0.060  14.354 -1.2494 -0.1447  2.8271
 1691TIP3   OH226563   4.793   1.452   5.378 -0.4978 -0.0840  0.3675
 1691TIP3    H126564   4.833   1.375   5.418  0.3480  0.7480  1.1753
 1691TIP3    H226565   4.785   1.430   5.285  0.1532 -0.9608  0.5113
 1692TIP3   OH226566   3.034   5.679   4.320 -0.3335 -0.3270 -0.2756
 1692TIP3    H126567   3.057   5.616   4.388 -0.3687  1.0603  1.0792
 1692TIP3    H226568   3.029   5.627   4.240 -1.5403 -2.2528  0.9642
 1693TIP3   OH226569   6.167   6.006   2.043  0.4055 -0.3560  0.3329
 1693TIP3    H126570   6.129   5.983   1.959  0.7192 -0.5968  0.2544
 1693TIP3    H226571   6.171   6.101   2.043  4.2818 -0.3203 -1.7191
 1694TIP3   OH226572   2.028   0.634   0.835 -0.0070  0.3012  0.1679
 1694TIP3    H126573   2.119   0.654   0.853  1.2557 -2.5691 -2.2052
 1694TIP3    H226574   2.000   0.581   0.910  0.4436  0.7178  0.6350
 1695TIP3   OH226575   4.031   1.239   5.596  0.1637 -0.1662  0.9250
 1695TIP3    H126576   3.979   1.313   5.563  1.0910  0.5354  0.9836
 1695TIP3    H226577   3.966   1.176   5.627 -0.7041 -0.3388 -1.1146
 1696TIP3   OH226578   0.887   2.948   1.010  0.3596 -0.1806 -0.4474
 1696TIP3    H126579   0.925   2.954   1.098 -0.1879  1.6696 -0.2930
 1696TIP3    H226580   0.962   2.943   0.951  0.8690  1.8818 -0.0472
 1697TIP3   OH226581   4.942   2.787   2.492 -0.3080 -0.0173 -0.1258
 1697TIP3    H126582   4.858   2.743   2.500  0.2454 -0.9313  1.0473
 1697TIP3    H226583   5.004   2.717   2.471  0.3000  0.4877 -0.0660
 1698TIP3   OH226584   6.067   2.147  15.570  0.2499 -0.4105 -0.3003
 1698TIP3    H126585   6.068   2.135  15.476  0.0377 -1.9349 -0.1259
 1698TIP3    H226586   6.011   2.077  15.603 -0.3764  0.6009  0.9000
 1699TIP3   OH226587   0.018   0.155   5.503  0.4082  0.2136 -0.6410
 1699TIP3    H126588   0.083   0.219   5.475  1.2441 -0.6097 -0.6478
 1699TIP3    H226589   0.055   0.070   5.478 -0.5906 -0.2926 -0.4900
 1700TIP3   OH226590   4.870   6.576   4.297  0.1866  0.4002 -0.2673
 1700TIP3    H126591   4.822   6.640   4.350 -0.5157 -0.0164 -0.3884
 1700TIP3    H226592   4.913   6.519   4.361 -0.9954 -0.3563 -0.1236
 1701TIP3   OH226593   3.172   4.164   2.522  0.8471 -0.1177  0.1238
 1701TIP3    H126594   3.212   4.247   2.498 -2.1272  1.7182  0.9521
 1701TIP3    H226595   3.219   4.135   2.600  1.9534  0.7639 -0.2038
 1702TIP3   OH226596   6.250   1.260   1.311  0.5116  0.5297  0.0456
 1702TIP3    H126597   6.269   1.291   1.222 -2.2287  0.7077 -0.5735
 1702TIP3    H226598   6.317   1.301   1.365  2.4236  0.2074 -1.9440
 1703TIP3   OH226599   3.985   5.609   2.455 -0.4532  0.0700  0.5388
 1703TIP3    H126600   3.945   5.524   2.434  0.1829  0.1220 -0.9485
 1703TIP3    H226601   3.938   5.672   2.400 -1.0107  0.7442  1.7233
 1704TIP3   OH226602   2.767   0.166  15.942 -0.1996 -0.2016  0.2264
 1704TIP3    H126603   2.726   0.099  15.997 -0.4418  0.3267  0.6960
 1704TIP3    H226604   2.800   0.117  15.866 -0.4964 -0.8310  0.4925
 1705TIP3   OH226605   5.598   6.083   4.750  0.3093 -0.0852  0.3546
 1705TIP3    H126606   5.509   6.053   4.772  0.5713 -1.3528 -0.2390
 1705TIP3    H226607   5.651   6.055   4.825  0.6100 -1.4153 -0.3400
 1706TIP3   OH226608   2.227   2.642   5.386  0.7400 -0.5175  0.1150
 1706TIP3    H126609   2.152   2.596   5.348  0.5306  0.0115 -0.1183
 1706TIP3    H226610   2.220   2.731   5.352  1.5739 -0.5072 -0.0503
 1707TIP3   OH226611   3.483   3.442  13.090 -0.2126 -0.8714  0.4066
 1707TIP3    H126612   3.527   3.457  13.174 -0.0938  0.5556  0.1154
 1707TIP3    H226613   3.487   3.348  13.078 -1.9741 -1.4035  2.9558
 1708TIP3   OH226614   5.827   0.370  13.779 -0.1977  0.7247  0.0462
 1708TIP3    H126615   5.836   0.357  13.874  2.1116 -0.9863 -0.3082
 1708TIP3    H226616   5.904   0.422  13.755 -0.0590  0.0572 -1.0356
 1709TIP3   OH226617   2.568   5.113  13.640 -0.7203  0.2616 -0.7407
 1709TIP3    H126618   2.642   5.056  13.661 -0.8347  0.2047 -0.4814
 1709TIP3    H226619   2.603   5.177  13.578 -1.0268 -1.1680 -2.4796
 1710TIP3   OH226620   4.271   6.817   5.930  0.1612  0.0304  0.0070
 1710TIP3    H126621   4.264   6.745   5.992  0.0758  1.3964  1.6732
 1710TIP3    H226622   4.253   6.895   5.982 -0.0944  1.2460 -1.7954
 1711TIP3   OH226623   3.061   6.209  13.770 -0.2314  0.2189 -0.2233
 1711TIP3    H126624   2.986   6.213  13.711 -0.9570 -2.2654  0.4193
 1711TIP3    H226625   3.040   6.139  13.831  2.5290 -0.4505  0.0934
 1712TIP3   OH226626   2.815   0.626   0.667 -0.1327 -0.3636  0.2587
 1712TIP3    H126627   2.757   0.550   0.662 -0.9631  0.2548  0.1934
 1712TIP3    H226628   2.789   0.680   0.593  0.7519 -0.2145  0.0455
 1713TIP3   OH226629   4.828   1.275  12.888 -0.3658  0.7216 -0.1692
 1713TIP3    H126630   4.910   1.277  12.936 -0.9246  0.4393  0.8303
 1713TIP3    H226631   4.818   1.365  12.855 -0.6050  1.3038  1.3806
 1714TIP3   OH226632   6.668   6.232   1.522 -0.3563 -0.1698  0.3791
 1714TIP3    H126633   6.749   6.245   1.473 -0.7782  0.8634 -0.0784
 1714TIP3    H226634   6.687   6.265   1.610 -0.6446  1.3037 -0.0786
 1715TIP3   OH226635   1.978   2.739  11.627  0.0105  0.3135  0.0693
 1715TIP3    H126636   1.918   2.725  11.554 -1.0320  0.2635  0.9184
 1715TIP3    H226637   1.958   2.670  11.689  2.5617 -1.1676 -0.5993
 1716TIP3   OH226638   6.734   3.110  14.422  0.9171  0.2166  0.4005
 1716TIP3    H126639   6.670   3.158  14.473  2.3208  2.1023  0.4933
 1716TIP3    H226640   6.802   3.175  14.401  2.6342 -1.5881  0.0474
 1717TIP3   OH226641   5.204   5.090   1.301 -0.5325 -0.1217 -0.0771
 1717TIP3    H126642   5.126   5.102   1.247 -0.2968 -1.5115 -0.7723
 1717TIP3    H226643   5.254   5.022   1.256  1.0414  0.6712  0.4190
 1718TIP3   OH226644   6.704   1.808   1.929  0.6436 -0.1594 -0.0216
 1718TIP3    H126645   6.757   1.752   1.871 -0.0647 -1.0233  0.1496
 1718TIP3    H226646   6.627   1.755   1.949  0.1365  0.7482  0.4510
 1719TIP3   OH226647   0.286   3.863   3.391 -0.5019  0.6238  0.1110
 1719TIP3    H126648   0.248   3.852   3.478  0.5529  0.8786  0.6261
 1719TIP3    H226649   0.368   3.909   3.407 -0.7706  1.5740 -1.1342
 1720TIP3   OH226650   1.067   4.563  12.372  0.2539  0.3252 -0.3401
 1720TIP3    H126651   1.156   4.537  12.396 -0.1532  0.3062  1.2296
 1720TIP3    H226652   1.014   4.484  12.384 -0.4090  0.9718  1.2508
 1721TIP3   OH226653   1.022   6.322   0.401 -0.0869 -0.0249 -0.1828
 1721TIP3    H126654   0.975   6.337   0.319 -0.8946 -0.8157  0.1128
 1721TIP3    H226655   0.976   6.247   0.441  2.4517 -1.9624 -0.6516
 1722TIP3   OH226656   1.551   5.828  15.475 -0.2422 -0.4235 -0.2366
 1722TIP3    H126657   1.623   5.856  15.417  0.9389 -2.1157  0.3501
 1722TIP3    H226658   1.509   5.910  15.502  0.3904  0.5072 -1.9391
 1723TIP3   OH226659   2.700   4.067  12.805 -0.3624 -0.5347  0.8404
 1723TIP3    H126660   2.622   4.109  12.769 -0.3854  1.2463  2.8149
 1723TIP3    H226661   2.727   4.006  12.736 -0.5523  2.3747 -2.0884
 1724TIP3   OH226662   3.407   2.073   1.140 -0.1217 -0.3144 -0.3704
 1724TIP3    H126663   3.361   2.095   1.059 -0.3002 -1.0949 -0.4912
 1724TIP3    H226664   3.498   2.096   1.124 -0.3894  0.8724 -0.2732
 1725TIP3   OH226665   5.975   2.874  12.144  0.2889 -0.5815  0.0998
 1725TIP3    H126666   5.953   2.842  12.057 -0.6827  1.0583 -0.2976
 1725TIP3    H226667   5.906   2.840  12.201 -0.7819  0.7841 -0.3333
 1726TIP3   OH226668   2.743   0.594   5.132  0.2223  0.5537  0.2067
 1726TIP3    H126669   2.787   0.678   5.144 -1.4672  1.6917 -1.0385
 1726TIP3    H226670   2.780   0.559   5.051 -0.1414  0.8243 -0.0776
 1727TIP3   OH226671   3.458   4.617   5.413 -0.0936  0.0100 -0.1875
 1727TIP3    H126672   3.484   4.693   5.465 -0.7192 -0.8262  1.4105
 1727TIP3    H226673   3.362   4.614   5.421 -0.2199 -0.0620 -1.5208
 1728TIP3   OH226674   6.301   4.816  14.774 -0.0639  0.0846 -0.4569
 1728TIP3    H126675   6.270   4.774  14.855  0.6688 -0.4349 -0.4413
 1728TIP3    H226676   6.372   4.874  14.802 -0.3011  0.4694 -0.6382
 1729TIP3   OH226677   3.505   2.034  13.108 -0.3483  0.4501 -0.5228
 1729TIP3    H126678   3.518   1.944  13.080  0.4302  0.5372 -0.4845
 1729TIP3    H226679   3.415   2.055  13.084 -0.4762 -0.2766 -0.6916
 1730TIP3   OH226680   0.575   3.594  17.138 -0.5511  0.2365  0.5455
 1730TIP3    H126681   0.500   3.641  17.172 -0.9566  0.2983 -0.3988
 1730TIP3    H226682   0.540   3.541  17.066  0.1982 -0.2072  0.4906
 1731TIP3   OH226683   5.879   4.852   4.306 -0.8315  0.2103 -0.1541
 1731TIP3    H126684   5.847   4.887   4.389 -1.1551 -2.4140  0.9251
 1731TIP3    H226685   5.812   4.789   4.279  0.7263 -1.2861 -0.7547
 1732TIP3   OH226686   5.820   4.070  13.656  0.9944  0.2008  0.4133
 1732TIP3    H126687   5.758   4.116  13.600  1.6809 -2.4151 -2.7791
 1732TIP3    H226688   5.906   4.103  13.630  1.2334  0.4798  1.5063
 1733TIP3   OH226689   5.436   4.509  16.861 -0.1474 -0.6915  0.0080
 1733TIP3    H126690   5.370   4.565  16.902 -0.3076 -0.4567 -0.5554
 1733TIP3    H226691   5.384   4.444  16.813 -0.0079  0.2970 -1.5465
 1734TIP3   OH226692   5.935   2.416  16.099 -0.0421  0.0012 -0.1694
 1734TIP3    H126693   6.002   2.470  16.140 -0.9046  0.0156  1.2771
 1734TIP3    H226694   5.916   2.348  16.164  0.2236 -1.4025 -1.4938
 1735TIP3   OH226695   3.333   1.906  14.502 -0.3124 -0.6067  0.0525
 1735TIP3    H126696   3.326   1.962  14.579 -0.5048 -1.1760  0.4543
 1735TIP3    H226697   3.343   1.818  14.537 -3.4434 -1.3117 -0.5173
 1736TIP3   OH226698   6.549   6.436  16.869 -0.3793  0.1464 -0.1025
 1736TIP3    H126699   6.481   6.371  16.851  0.4626 -1.0818  0.9753
 1736TIP3    H226700   6.502   6.510  16.905 -1.2605 -0.2708 -0.3612
 1737TIP3   OH226701   1.404   1.250   0.163  0.0377  0.3815 -0.0217
 1737TIP3    H126702   1.437   1.306   0.093  0.4249 -0.6745 -0.7167
 1737TIP3    H226703   1.313   1.232   0.139 -0.2910  1.2263  0.5497
 1738TIP3   OH226704   4.515   1.174  11.897  0.0643 -0.0381 -0.1930
 1738TIP3    H126705   4.451   1.241  11.875  0.2614 -0.1682 -1.1935
 1738TIP3    H226706   4.514   1.171  11.993 -0.2466  1.0933 -0.1437
 1739TIP3   OH226707   3.998   1.052   0.498  0.5858 -0.2803 -1.3224
 1739TIP3    H126708   4.028   0.984   0.437  0.9771  0.5535 -2.0873
 1739TIP3    H226709   4.051   1.129   0.476  1.6764 -0.3032  0.9651
 1740TIP3   OH226710   5.015   3.389   0.166  0.0189  0.5711  0.2964
 1740TIP3    H126711   4.921   3.383   0.182  0.3026 -1.0519  1.5226
 1740TIP3    H226712   5.027   3.477   0.129 -1.8391  1.1559  0.9734
 1741TIP3   OH226713   1.868   4.133   4.334  0.4205 -0.1410 -0.0421
 1741TIP3    H126714   1.963   4.138   4.348  0.8210 -0.0954 -2.3519
 1741TIP3    H226715   1.841   4.224   4.324  0.2183 -0.1827  0.1337
 1742TIP3   OH226716   0.934   6.067  11.528 -0.0531 -0.0428 -0.5214
 1742TIP3    H126717   1.000   6.048  11.595  0.1163  3.1602  0.3864
 1742TIP3    H226718   0.972   6.034  11.447  2.1315  0.5707  0.1721
 1743TIP3   OH226719   5.978   3.889   6.368  0.5608 -0.0813  0.7037
 1743TIP3    H126720   5.908   3.836   6.330 -0.9881  1.8593  0.6888
 1743TIP3    H226721   6.031   3.915   6.293 -1.0590  1.6996  0.1031
 1744TIP3   OH226722   1.262   4.570  14.771  0.2634 -0.0327  0.2141
 1744TIP3    H126723   1.318   4.544  14.698 -1.3097  0.0376 -1.0747
 1744TIP3    H226724   1.255   4.491  14.824  0.4367 -0.4503 -0.3715
 1745TIP3   OH226725   2.909   2.143   4.183 -0.7022  0.1566  0.0441
 1745TIP3    H126726   2.968   2.207   4.224  1.0954 -1.7126  0.5231
 1745TIP3    H226727   2.956   2.114   4.105 -1.3082 -0.8492  0.0391
 1746TIP3   OH226728   3.950   5.345  12.084  0.5027 -0.3523  0.1195
 1746TIP3    H126729   3.898   5.422  12.062 -2.6533 -1.5477  2.5238
 1746TIP3    H226730   3.893   5.271  12.062  1.8397 -1.8366  1.3748
 1747TIP3   OH226731   4.452   1.669   4.255 -0.0541 -0.3549 -0.0875
 1747TIP3    H126732   4.509   1.597   4.228  1.8799  1.0748 -0.0588
 1747TIP3    H226733   4.480   1.688   4.345 -0.1696  0.7592 -0.2784
 1748TIP3   OH226734   2.521   6.386  11.342  0.1997  0.0755 -0.0788
 1748TIP3    H126735   2.518   6.366  11.248  0.7209  0.9365 -0.2885
 1748TIP3    H226736   2.528   6.301  11.384 -1.8395 -0.4717 -0.7190
 1749TIP3   OH226737   0.226   6.085   4.033  0.0613 -0.3745  0.7537
 1749TIP3    H126738   0.148   6.042   4.066  0.7561 -0.3071  2.5771
 1749TIP3    H226739   0.274   6.113   4.111 -0.3290  3.7624 -0.2346
 1750TIP3   OH226740   0.180   0.783  14.747 -0.0649  0.0045  0.1979
 1750TIP3    H126741   0.102   0.753  14.794 -1.6383 -0.9611 -2.7601
 1750TIP3    H226742   0.215   0.704  14.706  2.3447  0.4981  1.1543
 1751TIP3   OH226743   5.814   2.393  13.551  0.3613  0.9829 -0.0141
 1751TIP3    H126744   5.847   2.481  13.565  0.4512  0.8499  0.6142
 1751TIP3    H226745   5.869   2.359  13.480 -0.4644  1.8465 -1.0930
 1752TIP3   OH226746   4.164   2.844   6.200  0.2404 -0.1607  0.0521
 1752TIP3    H126747   4.156   2.913   6.135  0.6149  0.9474  1.1522
 1752TIP3    H226748   4.254   2.850   6.231  0.8210 -2.2370 -0.9821
 1753TIP3   OH226749   2.462   6.302   3.853  0.5123  0.0561  0.2726
 1753TIP3    H126750   2.539   6.359   3.863 -1.1850  2.5367  0.0834
 1753TIP3    H226751   2.420   6.333   3.772  0.2202 -2.4498 -0.6130
 1754TIP3   OH226752   1.266   6.462   2.677 -0.0383 -0.4452  0.6117
 1754TIP3    H126753   1.344   6.414   2.704  0.0549 -1.0940 -0.7595
 1754TIP3    H226754   1.256   6.530   2.744  0.3385 -1.7930  2.1053
 1755TIP3   OH226755   5.689   2.295  11.470  0.4160 -0.3941 -0.4762
 1755TIP3    H126756   5.617   2.300  11.407  0.5054 -2.0326 -0.7627
 1755TIP3    H226757   5.730   2.381  11.467  1.0147 -0.6911 -3.3871
 1756TIP3   OH226758   1.979   4.396   5.891 -0.1047 -0.0161 -0.3769
 1756TIP3    H126759   1.897   4.354   5.866 -0.4306 -0.7198  1.7215
 1756TIP3    H226760   2.036   4.384   5.814 -2.4516  2.1071 -2.6617
 1757TIP3   OH226761   0.017   4.379  16.635  0.1635 -0.1798  0.0194
 1757TIP3    H126762   0.106   4.344  16.635 -0.0007 -0.6190 -0.4841
 1757TIP3    H226763  -0.039   4.303  16.616 -0.2138  0.3077 -0.8814
 1758TIP3   OH226764   5.039   4.928  11.624  0.3928  0.3688  0.5218
 1758TIP3    H126765   5.001   5.015  11.610 -1.9186 -0.4746  1.1879
 1758TIP3    H226766   5.002   4.873  11.556  0.1132 -0.5734  1.4047
 1759TIP3   OH226767   0.600   0.606   2.582  0.2986  0.6006 -0.2496
 1759TIP3    H126768   0.648   0.539   2.631  1.3838  2.4573  1.3772
 1759TIP3    H226769   0.668   0.653   2.534 -0.3999  0.8093 -1.0520
 1760TIP3   OH226770   1.248   0.781  16.246  0.1770  0.6356  0.0156
 1760TIP3    H126771   1.196   0.799  16.324 -0.2967  2.9415 -0.7485
 1760TIP3    H226772   1.317   0.848  16.247 -0.2005  1.1091 -1.8024
 1761TIP3   OH226773   1.137   2.744   3.266  0.1165 -0.0647  0.2044
 1761TIP3    H126774   1.145   2.695   3.348  0.1421  0.8070  0.7318
 1761TIP3    H226775   1.082   2.690   3.211 -0.4734 -0.3411  1.0498
 1762TIP3   OH226776   3.483   0.546  15.233  0.4515  0.4340 -0.1704
 1762TIP3    H126777   3.452   0.585  15.151 -1.2635 -0.8502 -0.1730
 1762TIP3    H226778   3.547   0.481  15.205 -1.8011 -1.6489 -0.7474
 1763TIP3   OH226779   3.534   1.391  14.475  0.2311  0.5574  0.1551
 1763TIP3    H126780   3.479   1.318  14.446  0.4890  0.9915 -1.5280
 1763TIP3    H226781   3.614   1.383  14.422  1.4183  0.4911  1.8879
 1764TIP3   OH226782   4.006   4.933  13.944  0.0143 -0.3682 -0.0404
 1764TIP3    H126783   4.047   4.950  14.029 -0.4576 -2.3162  0.6303
 1764TIP3    H226784   3.936   4.872  13.963 -2.2120  1.5947 -1.4143
 1765TIP3   OH226785   3.327   4.229   0.665 -0.0369  0.6362  0.5436
 1765TIP3    H126786   3.250   4.263   0.618  0.6075 -0.4285 -1.3672
 1765TIP3    H226787   3.390   4.301   0.660  0.3678  0.2117 -1.1354
 1766TIP3   OH226788   0.254   6.724  13.959  0.7774 -0.4321 -0.7130
 1766TIP3    H126789   0.348   6.714  13.974  0.6628 -1.1288 -0.4301
 1766TIP3    H226790   0.246   6.733  13.864  1.2483  1.0920 -0.6367
 1767TIP3   OH226791   5.756   4.016   1.916  0.1944 -0.1406  0.5053
 1767TIP3    H126792   5.763   4.037   1.823 -1.7579 -0.0252  0.3427
 1767TIP3    H226793   5.691   4.078   1.950  0.2992 -0.6915  1.7701
 1768TIP3   OH226794   0.684   2.047   2.366 -0.5429 -0.4072 -0.2693
 1768TIP3    H126795   0.643   2.085   2.444 -0.4036 -1.2879  0.2512
 1768TIP3    H226796   0.673   1.953   2.377 -0.2987 -0.5536 -1.2015
 1769TIP3   OH226797   5.994   1.316   4.521  0.1362  0.3888 -0.2213
 1769TIP3    H126798   5.940   1.337   4.597 -0.2682  0.9226 -0.6441
 1769TIP3    H226799   6.080   1.297   4.558  0.4762  2.5527  0.2596
 1770TIP3   OH226800   5.315   2.623   3.489 -0.2353 -0.1487  0.0718
 1770TIP3    H126801   5.270   2.707   3.486  1.0759  0.6222  0.9550
 1770TIP3    H226802   5.408   2.645   3.499  0.0745 -1.6952  0.9998
 1771TIP3   OH226803   4.352   3.076  14.057 -0.1168 -0.5816  0.2042
 1771TIP3    H126804   4.304   3.087  14.139  0.7746 -1.0961  0.8297
 1771TIP3    H226805   4.309   3.003  14.013 -1.7412  0.8596 -0.6813
 1772TIP3   OH226806   3.648   5.606  12.535 -0.3092 -0.0148 -0.6646
 1772TIP3    H126807   3.677   5.534  12.592 -1.1876  0.2574  0.1715
 1772TIP3    H226808   3.674   5.685  12.582  0.4564  0.2258 -1.4781
 1773TIP3   OH226809   6.269   2.437  16.407  0.1770 -0.0779 -0.0938
 1773TIP3    H126810   6.318   2.379  16.465 -0.5222  1.0563  1.7053
 1773TIP3    H226811   6.334   2.471  16.346  1.3506  0.2471  1.3026
 1774TIP3   OH226812   0.468   0.870   6.437 -0.0725 -0.3953  0.2011
 1774TIP3    H126813   0.512   0.954   6.421 -0.5812 -0.1479  0.0509
 1774TIP3    H226814   0.535   0.804   6.420 -0.0662 -0.0714 -1.2090
 1775TIP3   OH226815   2.788   1.546   6.651  0.5336  0.1870  0.8376
 1775TIP3    H126816   2.840   1.537   6.571 -1.1672  2.1628 -0.5972
 1775TIP3    H226817   2.708   1.496   6.634 -0.3485  1.5637  0.7728
 1776TIP3   OH226818   2.103   5.453  12.129 -0.5437 -0.5940  0.0325
 1776TIP3    H126819   2.085   5.412  12.214 -0.6313 -1.6232 -0.4696
 1776TIP3    H226820   2.040   5.412  12.069  1.4500 -2.0720 -1.1501
 1777TIP3   OH226821   1.743   1.247  13.245  0.6461 -0.1470  0.4580
 1777TIP3    H126822   1.702   1.194  13.313 -1.3234  0.1964 -0.3871
 1777TIP3    H226823   1.712   1.336  13.263 -1.2665 -0.2863 -1.7666
 1778TIP3   OH226824   4.692   2.230  16.772  0.0256 -0.0999  0.8366
 1778TIP3    H126825   4.637   2.302  16.803 -0.2140 -0.4240  1.1702
 1778TIP3    H226826   4.654   2.206  16.687  1.3598  1.5301 -0.2782
 1779TIP3   OH226827   4.592   4.765   5.799 -0.0231  0.0172  0.3924
 1779TIP3    H126828   4.665   4.749   5.738  0.6040  1.0950  0.8354
 1779TIP3    H226829   4.634   4.802   5.877 -0.9921  0.1640  0.8545
 1780TIP3   OH226830   5.398   0.520   5.802 -0.4027 -0.6722 -0.0504
 1780TIP3    H126831   5.323   0.482   5.848  0.8208 -1.8292  1.0547
 1780TIP3    H226832   5.464   0.532   5.869  0.6259 -0.2506 -1.1064
 1781TIP3   OH226833   5.721   4.127  15.006  0.5319  0.2114 -1.1195
 1781TIP3    H126834   5.780   4.109  14.933 -2.6098 -0.5049 -3.6705
 1781TIP3    H226835   5.709   4.042  15.048  0.3238  0.0911 -1.4180
 1782TIP3   OH226836   4.089   6.531  11.338  0.5111  0.0649  0.2166
 1782TIP3    H126837   4.086   6.508  11.245  0.2146 -0.1393  0.2739
 1782TIP3    H226838   4.161   6.479  11.373  1.4766  1.1142 -0.1522
 1783TIP3   OH226839   6.439   3.829   0.564 -0.3003  0.0816  0.2522
 1783TIP3    H126840   6.518   3.782   0.589 -0.4020 -0.0652  0.3040
 1783TIP3    H226841   6.459   3.921   0.579  0.1074  0.1056 -0.4206
 1784TIP3   OH226842   3.342   1.222  10.504  0.3556 -0.1159  0.4939
 1784TIP3    H126843   3.424   1.270  10.496  0.3770 -0.3693 -1.2020
 1784TIP3    H226844   3.281   1.285  10.544  0.7685  0.8660 -0.3632
 1785TIP3   OH226845   1.706   5.053   2.000  0.1740  0.5467  0.5826
 1785TIP3    H126846   1.667   4.967   1.985  0.1640  0.2820  2.0225
 1785TIP3    H226847   1.680   5.105   1.923 -0.0048 -0.6571 -0.1899
 1786TIP3   OH226848   6.641   1.187  12.495 -0.4886 -0.5346 -0.3829
 1786TIP3    H126849   6.702   1.131  12.447  0.2382  0.4136 -0.6048
 1786TIP3    H226850   6.558   1.140  12.492  0.0092 -1.4102 -0.8939
 1787TIP3   OH226851   2.642   1.293   4.985 -0.6244  0.5965  0.1603
 1787TIP3    H126852   2.719   1.246   5.016  0.1451  0.2172 -2.1054
 1787TIP3    H226853   2.677   1.365   4.932 -1.7913  0.6415 -0.6002
 1788TIP3   OH226854   4.930   1.613   3.588  0.0273 -0.2262 -0.0517
 1788TIP3    H126855   4.959   1.569   3.508  0.0757 -0.4136  0.0677
 1788TIP3    H226856   4.984   1.692   3.593 -0.6805  0.3245 -0.7529
 1789TIP3   OH226857   6.118   2.042   3.487  0.2692  0.3141  0.3163
 1789TIP3    H126858   6.120   2.111   3.420  2.4537  1.3620  1.3532
 1789TIP3    H226859   6.164   1.968   3.447 -0.5541  0.0603 -0.1795
 1790TIP3   OH226860   1.042   4.235   4.838 -0.0038 -0.3315 -0.8409
 1790TIP3    H126861   0.974   4.295   4.805  1.1787  0.6583 -1.5515
 1790TIP3    H226862   1.113   4.243   4.775  0.7161 -1.4895 -0.1977
 1791TIP3   OH226863   4.093   2.657   3.221 -0.1535  0.3740 -0.2356
 1791TIP3    H126864   4.088   2.689   3.131 -1.6839  1.5541  0.2223
 1791TIP3    H226865   4.132   2.729   3.271 -1.2402  0.5664  0.3744
 1792TIP3   OH226866   2.643   0.241  14.506  0.0483 -0.3625  0.5394
 1792TIP3    H126867   2.693   0.222  14.427  1.5995 -1.7934  1.8104
 1792TIP3    H226868   2.657   0.334  14.521 -4.7569  1.5921 -3.8015
 1793TIP3   OH226869   6.072   2.263   4.568  0.1894 -0.4315 -0.1828
 1793TIP3    H126870   5.999   2.299   4.517  0.5696  1.8388  0.7424
 1793TIP3    H226871   6.150   2.305   4.532  0.4350  1.5250  2.3835
 1794TIP3   OH226872   3.018   4.439   5.104 -0.4299  0.2354 -0.1288
 1794TIP3    H126873   3.051   4.484   5.026  1.9116 -0.9039  0.0936
 1794TIP3    H226874   3.083   4.460   5.172  1.0099 -3.5496 -0.0933
 1795TIP3   OH226875   4.728   1.228   0.340  0.6727 -0.1278  0.4492
 1795TIP3    H126876   4.802   1.171   0.361  1.6866  1.5411  1.6208
 1795TIP3    H226877   4.704   1.268   0.424 -0.6080  0.5041 -0.1836
 1796TIP3   OH226878   0.982   4.461   3.449  0.1910 -0.6749  0.0904
 1796TIP3    H126879   0.949   4.471   3.539 -1.3632 -0.5188 -0.4725
 1796TIP3    H226880   0.941   4.532   3.400  1.2090 -0.6215 -0.7040
 1797TIP3   OH226881   3.955   3.883   2.700 -0.7881  1.0770 -0.4712
 1797TIP3    H126882   3.952   3.976   2.678 -2.7559  0.9113 -1.0798
 1797TIP3    H226883   3.959   3.838   2.616 -0.6719  0.5921 -0.2130
 1798TIP3   OH226884   0.265   1.137   6.268  0.1448  0.0840 -0.1189
 1798TIP3    H126885   0.254   1.222   6.312 -1.3730  0.3631 -0.9482
 1798TIP3    H226886   0.179   1.095   6.277  0.5694 -0.9160 -0.6406
 1799TIP3   OH226887   1.133   0.527   3.892  0.2587 -0.2548 -0.1555
 1799TIP3    H126888   1.083   0.489   3.965  0.9444  0.1310  0.5223
 1799TIP3    H226889   1.202   0.578   3.934  0.4233  0.3005 -1.0780
 1800TIP3   OH226890   5.894   6.759   5.354  0.5428 -0.0083 -0.5221
 1800TIP3    H126891   5.948   6.749   5.433 -0.6269 -1.2280  0.1598
 1800TIP3    H226892   5.943   6.821   5.300  1.5179  0.6582  1.0309
 1801TIP3   OH226893   4.395   4.428   0.001 -0.4671 -0.1609 -0.3008
 1801TIP3    H126894   4.460   4.465   0.060 -0.5529  0.6546 -0.6975
 1801TIP3    H226895   4.338   4.502  -0.021 -1.0588 -0.6901 -0.5687
 1802TIP3   OH226896   6.532   5.726   5.277 -0.4723 -0.0802 -0.0760
 1802TIP3    H126897   6.609   5.676   5.304 -1.0216  0.3468  2.6024
 1802TIP3    H226898   6.567   5.798   5.226  0.4467 -2.3346 -2.9335
 1803TIP3   OH226899   4.434   1.993   5.997  0.0095  0.7278 -0.3749
 1803TIP3    H126900   4.526   2.007   5.972 -0.2261  0.0483 -1.6968
 1803TIP3    H226901   4.438   1.924   6.063  0.3401 -0.8697 -1.9677
 1804TIP3   OH226902   5.793   6.702  15.531 -0.7130 -0.2410  0.0979
 1804TIP3    H126903   5.726   6.751  15.484 -1.5262 -1.6134 -0.2556
 1804TIP3    H226904   5.754   6.684  15.617 -0.6078 -0.6149  0.0717
 1805TIP3   OH226905   2.141   1.044   4.209  0.9005 -0.0929 -0.3697
 1805TIP3    H126906   2.180   1.017   4.126 -0.8066  2.3565 -2.0887
 1805TIP3    H226907   2.209   1.096   4.251  0.8360  1.0500 -1.6176
 1806TIP3   OH226908   2.850   3.284   1.460  0.2775  0.4811 -0.3657
 1806TIP3    H126909   2.892   3.267   1.376 -0.3544  1.2110 -0.8460
 1806TIP3    H226910   2.831   3.378   1.459  2.7264  1.1453  1.7378
 1807TIP3   OH226911   1.903   4.744   0.567  0.0073 -0.1640 -0.6754
 1807TIP3    H126912   1.922   4.825   0.519  0.2191  0.1123 -0.1360
 1807TIP3    H226913   1.890   4.773   0.657 -2.7711 -0.3482 -0.9272
 1808TIP3   OH226914   3.375   0.104  14.138  0.2936  0.3078  0.3374
 1808TIP3    H126915   3.439   0.045  14.178 -0.2915  0.4734  1.5710
 1808TIP3    H226916   3.316   0.127  14.210 -0.2735  1.3368 -0.4332
 1809TIP3   OH226917   3.166   2.108  11.640  0.1210 -0.0063  0.1792
 1809TIP3    H126918   3.203   2.069  11.561 -4.3097 -0.1983 -2.1322
 1809TIP3    H226919   3.157   2.035  11.701  0.1263 -0.6682 -0.6005
 1810TIP3   OH226920   2.066   5.718   0.681  0.2833  0.7973  0.0405
 1810TIP3    H126921   1.977   5.682   0.684  0.4765  0.3148  0.0397
 1810TIP3    H226922   2.122   5.644   0.702  0.8483  0.5722 -2.0608
 1811TIP3   OH226923   5.369   1.089  15.795  0.1376 -0.1922 -0.5275
 1811TIP3    H126924   5.418   1.145  15.734  1.5199  0.9236  1.5135
 1811TIP3    H226925   5.291   1.141  15.816 -0.4536 -0.6711 -1.4396
 1812TIP3   OH226926   6.289   3.901  12.645 -0.1976  0.1426 -0.0782
 1812TIP3    H126927   6.378   3.924  12.669 -0.6138  1.5922  0.1385
 1812TIP3    H226928   6.297   3.860  12.559  0.7423 -0.4672  0.2819
 1813TIP3   OH226929   6.385   6.166  10.970  0.3318  0.4440  0.0008
 1813TIP3    H126930   6.420   6.233  10.910 -0.2079  4.2276  3.4379
 1813TIP3    H226931   6.292   6.161  10.949  0.6158 -0.3135 -1.1541
 1814TIP3   OH226932   5.442   3.131  15.279  0.0230  0.0886  0.1307
 1814TIP3    H126933   5.468   3.058  15.334 -0.6637  0.1283  0.5171
 1814TIP3    H226934   5.394   3.190  15.337 -2.2599 -0.7111 -0.8398
 1815TIP3   OH226935   4.608   3.846  10.183 -0.8525 -0.3006 -0.4381
 1815TIP3    H126936   4.659   3.799  10.249 -1.1321  0.0049  0.0115
 1815TIP3    H226937   4.523   3.861  10.226 -0.4219  1.5316 -0.1424
 1816TIP3   OH226938   1.768   5.499  13.419 -0.9569 -0.0570 -0.8197
 1816TIP3    H126939   1.726   5.484  13.504  0.9709  1.1617  0.4304
 1816TIP3    H226940   1.714   5.451  13.357 -2.1805 -1.3794  1.1513
 1817TIP3   OH226941   5.361   4.800   1.589  0.3731 -0.0221  0.3257
 1817TIP3    H126942   5.351   4.787   1.683  2.7819 -1.3877  0.4826
 1817TIP3    H226943   5.417   4.878   1.582 -1.3652  1.2490 -0.1033
 1818TIP3   OH226944   3.183   6.051   6.185  0.6145  0.2399 -0.0462
 1818TIP3    H126945   3.144   6.005   6.260 -0.2914  1.4989  0.3048
 1818TIP3    H226946   3.240   6.117   6.225 -2.6262  3.4257 -0.1512
 1819TIP3   OH226947   4.825   4.003   3.179 -0.3054  0.5329 -0.4867
 1819TIP3    H126948   4.799   3.949   3.105 -0.0376  0.5373 -0.5879
 1819TIP3    H226949   4.872   4.077   3.139 -0.9968  1.0390 -0.3789
 1820TIP3   OH226950   4.620   6.078   3.790 -0.7151 -0.0765  0.2990
 1820TIP3    H126951   4.673   6.089   3.869 -0.1837  0.8231 -0.1574
 1820TIP3    H226952   4.641   6.155   3.737 -1.9621 -0.0639 -0.2067
 1821TIP3   OH226953   2.736   5.305   2.978  0.1341 -0.2082 -0.3736
 1821TIP3    H126954   2.706   5.287   2.889  1.3110  1.8425 -1.2441
 1821TIP3    H226955   2.794   5.232   2.999 -1.7975 -1.8278 -0.4147
 1822TIP3   OH226956   1.259   0.592  14.397  0.1973 -0.3129  0.1353
 1822TIP3    H126957   1.287   0.500  14.395 -1.0565 -0.7015 -1.2830
 1822TIP3    H226958   1.339   0.641  14.378  0.6076 -1.1895 -0.4692
 1823TIP3   OH226959   0.632   1.153  13.570  0.0392 -0.2823 -0.0058
 1823TIP3    H126960   0.551   1.199  13.592  0.3009 -0.4283  1.3299
 1823TIP3    H226961   0.670   1.206  13.500 -0.7186  0.3505  0.0397
 1824TIP3   OH226962   2.301   0.747   2.735 -0.3721  0.2128  0.5333
 1824TIP3    H126963   2.361   0.811   2.774  1.6189 -1.0801 -0.3303
 1824TIP3    H226964   2.217   0.765   2.779  0.7169  1.7327  2.1446
 1825TIP3   OH226965   2.987   3.980   5.410  0.1386 -0.5011 -0.5424
 1825TIP3    H126966   3.005   4.034   5.334  0.0644  0.4569  0.0936
 1825TIP3    H226967   3.063   3.992   5.467 -1.0255  1.1549  0.8021
 1826TIP3   OH226968   1.925   5.327  11.814  0.4124  0.0083 -0.3051
 1826TIP3    H126969   1.855   5.286  11.763  0.6294  0.6904 -1.1732
 1826TIP3    H226970   1.892   5.326  11.904  0.3280 -1.8774 -0.3039
 1827TIP3   OH226971   1.718   1.400   4.027 -0.0255  0.1367  0.1889
 1827TIP3    H126972   1.668   1.318   4.036  0.5823 -0.0155  3.0731
 1827TIP3    H226973   1.806   1.372   4.004 -0.6016  0.2712 -2.4763
 1828TIP3   OH226974   4.293   5.765   0.610  0.0123  0.5838 -0.2450
 1828TIP3    H126975   4.268   5.732   0.696  2.3976 -1.4546 -0.2482
 1828TIP3    H226976   4.277   5.692   0.551 -1.1838  1.8178 -1.5366
 1829TIP3   OH226977   3.505   1.071  15.280 -0.2380 -0.2861 -0.4122
 1829TIP3    H126978   3.547   1.001  15.230 -0.5417 -0.6146 -0.2095
 1829TIP3    H226979   3.490   1.034  15.367  1.7389  0.7903  0.4546
 1830TIP3   OH226980   3.399   2.948  13.674  0.4018 -0.6495  0.3131
 1830TIP3    H126981   3.305   2.958  13.660 -0.0610 -1.5382  2.3966
 1830TIP3    H226982   3.413   2.854  13.680  0.8704 -0.4954  2.8974
 1831TIP3   OH226983   6.348   5.178  13.441  0.4189  0.5626  0.7450
 1831TIP3    H126984   6.331   5.174  13.535 -2.4068  0.3397  0.3100
 1831TIP3    H226985   6.383   5.092  13.419  0.7975  0.5116  1.5251
 1832TIP3   OH226986   0.371   5.737  10.822 -0.2381  0.0238 -0.0166
 1832TIP3    H126987   0.431   5.735  10.897  1.2969 -0.6818 -1.2087
 1832TIP3    H226988   0.427   5.756  10.747 -1.8492  1.4272 -0.9271
 1833TIP3   OH226989   3.646   3.243   5.076 -0.1088  0.2045 -0.2710
 1833TIP3    H126990   3.620   3.245   4.984  0.1455  0.3796 -0.3389
 1833TIP3    H226991   3.665   3.151   5.094 -3.7385 -0.5216  0.6144
 1834TIP3   OH226992   4.396   4.955  14.616 -0.1463  0.2777 -0.2742
 1834TIP3    H126993   4.370   4.928  14.528  0.8626 -1.1356 -0.1846
 1834TIP3    H226994   4.315   4.981  14.658 -1.2489 -2.3709 -0.5215
 1835TIP3   OH226995   5.233   0.329  16.191 -0.3353 -0.0034 -0.1541
 1835TIP3    H126996   5.283   0.373  16.260 -0.6662  1.2726 -0.6971
 1835TIP3    H226997   5.215   0.398  16.127 -2.2130 -0.5893 -0.3021
 1836TIP3   OH226998   6.178   3.357   0.534  0.1427  0.1389  0.3406
 1836TIP3    H126999   6.147   3.399   0.614  0.0439 -1.2169  1.0449
 1836TIP3    H227000   6.264   3.321   0.557 -0.0029 -0.4981 -0.0741
 1837TIP3   OH227001   2.756   1.698  12.982  0.3149  0.0141 -0.1248
 1837TIP3    H127002   2.737   1.671  13.072  1.8699 -0.7332  0.0205
 1837TIP3    H227003   2.746   1.793  12.982  2.1036  0.2606  1.3534
 1838TIP3   OH227004   1.222   6.730  11.402 -0.4069  0.0593  0.2936
 1838TIP3    H127005   1.305   6.684  11.390 -0.7362 -0.1116 -1.8154
 1838TIP3    H227006   1.162   6.664  11.436 -0.2116 -0.3895 -0.2206
 1839TIP3   OH227007   0.956   1.786  13.715  0.5551 -0.2526 -0.5727
 1839TIP3    H127008   0.949   1.852  13.784  0.0488  0.8651 -1.6665
 1839TIP3    H227009   1.037   1.809  13.668  1.1618 -1.3010 -0.0736
 1840TIP3   OH227010   1.519   4.915  15.651 -0.2752  0.5224 -0.3952
 1840TIP3    H127011   1.496   4.992  15.598  0.2178 -0.4382 -2.0681
 1840TIP3    H227012   1.606   4.936  15.687 -0.6219  1.1920  0.0682
 1841TIP3   OH227013   2.046   2.760  16.500  0.4386  0.2987  0.1741
 1841TIP3    H127014   2.058   2.754  16.594  0.5129  1.8006  0.2696
 1841TIP3    H227015   2.133   2.746  16.463  0.5871  0.6879  0.3774
 1842TIP3   OH227016   2.301   3.862   0.899 -0.2079  0.1622 -0.4879
 1842TIP3    H127017   2.328   3.951   0.874  1.2561 -0.6457 -1.9340
 1842TIP3    H227018   2.323   3.808   0.824 -0.8662 -1.4888  0.4559
 1843TIP3   OH227019   5.887   5.717   0.907 -0.0545  0.0562  0.2137
 1843TIP3    H127020   5.915   5.634   0.869  2.3758  0.5873  0.6919
 1843TIP3    H227021   5.901   5.781   0.837  0.1766  0.3745  0.5458
 1844TIP3   OH227022   2.850   1.727   3.538 -0.3858  0.1545  0.2690
 1844TIP3    H127023   2.758   1.745   3.559 -0.3643 -1.4694  1.9230
 1844TIP3    H227024   2.854   1.633   3.522  1.3920 -0.3021  2.7802
 1845TIP3   OH227025   5.079   2.454  12.619 -0.0883 -0.2379  0.7678
 1845TIP3    H127026   5.162   2.459  12.571  1.3794  0.0558  3.1733
 1845TIP3    H227027   5.024   2.396  12.566  2.0224 -1.3149 -0.3551
 1846TIP3   OH227028   0.744   3.493   5.480 -0.1902 -0.2033 -0.5623
 1846TIP3    H127029   0.767   3.401   5.496  3.8304  0.4670 -1.3900
 1846TIP3    H227030   0.737   3.531   5.568  1.6103 -0.6701 -0.1569
 1847TIP3   OH227031   2.230   1.041   5.217  0.6173 -0.1799  0.0546
 1847TIP3    H127032   2.271   1.048   5.303 -0.2948 -0.7988  0.5596
 1847TIP3    H227033   2.296   0.997   5.163  1.0017 -0.2464  0.5655
 1848TIP3   OH227034   4.032   4.819   5.445 -0.4971 -0.2052 -0.3021
 1848TIP3    H127035   4.072   4.835   5.359 -0.8499  1.9455 -0.1342
 1848TIP3    H227036   3.940   4.843   5.433 -0.6030 -0.1404  0.5901
 1849TIP3   OH227037   4.416   6.699   3.312 -0.3897  0.0921 -0.2565
 1849TIP3    H127038   4.387   6.785   3.343  0.3172 -0.3075  1.6394
 1849TIP3    H227039   4.342   6.667   3.260 -1.4465  1.0658  0.5785
 1850TIP3   OH227040   0.763   0.060  11.552  0.3758  0.0792  0.8123
 1850TIP3    H127041   0.770  -0.017  11.609  1.6381  0.4019  1.1315
 1850TIP3    H227042   0.807   0.034  11.472  0.9199  0.4982  0.9679
 1851TIP3   OH227043   3.572   5.207  14.853  0.4218 -0.0949  0.2437
 1851TIP3    H127044   3.498   5.171  14.805  0.2720 -0.0269  0.4226
 1851TIP3    H227045   3.584   5.294  14.816 -0.4026  0.3980  1.0802
 1852TIP3   OH227046   5.775   1.751   4.083  0.1292  0.1354  0.4381
 1852TIP3    H127047   5.855   1.778   4.127  1.8145  1.1610 -2.8672
 1852TIP3    H227048   5.795   1.663   4.049 -0.3672  0.1269  0.1509
 1853TIP3   OH227049   4.664   0.059  12.246 -0.2185  0.3023 -0.6291
 1853TIP3    H127050   4.629   0.130  12.192  0.9249  1.4190  0.0429
 1853TIP3    H227051   4.727   0.102  12.304  0.4289 -1.2556 -0.1328
 1854TIP3   OH227052   2.762   1.465   0.218 -0.0908 -0.0714  0.2133
 1854TIP3    H127053   2.846   1.418   0.217 -0.7653 -1.3047 -1.0953
 1854TIP3    H227054   2.748   1.485   0.311  2.3591  1.5144  0.3502
 1855TIP3   OH227055   4.038   0.735  11.925  0.0880 -0.2458  0.3668
 1855TIP3    H127056   3.959   0.783  11.902 -0.4583 -0.7886  1.0821
 1855TIP3    H227057   4.046   0.745  12.020  1.4740  0.6901  0.1957
 1856TIP3   OH227058   2.013   0.514   1.493  0.2538 -0.2912 -0.3949
 1856TIP3    H127059   2.099   0.529   1.453  0.6614  0.0956  0.5900
 1856TIP3    H227060   2.018   0.558   1.578 -0.5992 -1.0734  0.0783
 1857TIP3   OH227061   3.824   1.395   4.504 -0.4334  0.0246  0.2737
 1857TIP3    H127062   3.874   1.349   4.437 -0.0853  0.4883  0.2129
 1857TIP3    H227063   3.778   1.464   4.456  1.4372  1.7037  0.7704
 1858TIP3   OH227064   1.185   5.099  13.375  0.2857 -0.3886  0.1090
 1858TIP3    H127065   1.227   5.088  13.289 -0.9325 -1.9905 -0.3479
 1858TIP3    H227066   1.256   5.087  13.438  1.4972  2.2613 -0.6127
 1859TIP3   OH227067   1.993   4.547  16.419 -0.4476 -0.1413  0.3574
 1859TIP3    H127068   2.029   4.469  16.378  0.8129  0.6161 -0.0390
 1859TIP3    H227069   2.030   4.547  16.507  2.4211  1.7470 -0.7037
 1860TIP3   OH227070   3.859   5.282   5.614 -0.6208 -0.3706 -0.2481
 1860TIP3    H127071   3.841   5.212   5.676 -2.7245  1.3005  1.1424
 1860TIP3    H227072   3.881   5.236   5.533 -0.0886 -2.6150  1.0741
 1861TIP3   OH227073   3.765   0.419  11.449 -0.5865  0.0110  0.3964
 1861TIP3    H127074   3.838   0.374  11.407 -0.3358 -1.8576  2.6503
 1861TIP3    H227075   3.688   0.394  11.399 -0.0142 -0.0412 -0.4774
 1862TIP3   OH227076   2.636   5.784  16.046  0.1677  0.0801 -0.2357
 1862TIP3    H127077   2.596   5.836  16.116 -1.1768  0.1427 -1.0133
 1862TIP3    H227078   2.619   5.834  15.967  1.4290 -0.1304 -0.6491
 1863TIP3   OH227079   2.515   4.896   5.907  0.0257  0.1044  0.3072
 1863TIP3    H127080   2.502   4.861   5.995  0.2298 -0.6773  0.0425
 1863TIP3    H227081   2.456   4.970   5.901 -1.7507 -1.2525  0.3100
 1864TIP3   OH227082   4.690   4.397   5.489  0.4465  0.0036  0.7201
 1864TIP3    H127083   4.759   4.457   5.518 -0.3935  0.5340  1.6930
 1864TIP3    H227084   4.678   4.418   5.397  1.0787  0.4198  0.7243
 1865TIP3   OH227085   3.394   0.040  15.066 -0.1974  0.2219 -0.1124
 1865TIP3    H127086   3.353   0.012  15.148  0.3041  0.9358  0.3921
 1865TIP3    H227087   3.407  -0.041  15.017  0.4437 -0.3340  0.9496
 1866TIP3   OH227088   1.396   5.641  13.254  0.3119  0.0015 -0.7199
 1866TIP3    H127089   1.464   5.607  13.196 -0.3518 -3.4358  0.2796
 1866TIP3    H227090   1.315   5.604  13.219 -0.3781 -0.2126  1.0239
 1867TIP3   OH227091   6.110   2.203  11.635  0.0730 -0.3198 -0.4153
 1867TIP3    H127092   6.080   2.155  11.712  0.0164  1.0057  0.4434
 1867TIP3    H227093   6.068   2.160  11.561 -0.5287 -1.1246  0.3715
 1868TIP3   OH227094   5.494   4.743   3.375 -0.7222 -0.0571 -0.5935
 1868TIP3    H127095   5.579   4.733   3.332  0.0640 -0.1190  0.9119
 1868TIP3    H227096   5.515   4.774   3.463 -2.2450 -0.4289 -0.0688
 1869TIP3   OH227097   4.919   0.224   5.635 -0.2518 -0.1890 -0.0725
 1869TIP3    H127098   4.841   0.191   5.678  0.3070 -3.1641 -1.1404
 1869TIP3    H227099   4.992   0.186   5.683  0.3915 -2.9099 -2.8374
 1870TIP3   OH227100   0.393   0.601   3.324  0.4087  0.1060 -0.1717
 1870TIP3    H127101   0.473   0.643   3.294 -0.1312  0.7643 -0.7093
 1870TIP3    H227102   0.363   0.549   3.250  0.3678 -0.1882  0.0470
 1871TIP3   OH227103   4.695   4.853   6.503  0.1809  0.4813  0.1437
 1871TIP3    H127104   4.618   4.892   6.545 -0.1341 -0.8720  0.8793
 1871TIP3    H227105   4.660   4.805   6.428  0.2622 -0.3963  0.6630
 1872TIP3   OH227106   6.208   5.191   4.411 -0.0215 -0.1118  0.3196
 1872TIP3    H127107   6.178   5.134   4.340  0.2675  0.5227 -0.3215
 1872TIP3    H227108   6.277   5.244   4.372  0.7015 -0.2994  1.2952
 1873TIP3   OH227109   0.352   3.771  10.627  0.3547  0.7137  0.8029
 1873TIP3    H127110   0.284   3.736  10.568 -0.6264 -1.9624  3.2731
 1873TIP3    H227111   0.309   3.843  10.673 -0.0060  0.6122  0.6283
 1874TIP3   OH227112   2.361   4.833  15.868  0.3008  0.2211 -0.3280
 1874TIP3    H127113   2.370   4.754  15.815  0.3687 -0.8846  1.2608
 1874TIP3    H227114   2.276   4.869  15.843 -0.9625 -1.8093  0.6964
 1875TIP3   OH227115   3.736   0.879  12.153 -0.2142  0.3495 -0.2125
 1875TIP3    H127116   3.789   0.877  12.073 -2.1295  1.8710 -1.5971
 1875TIP3    H227117   3.646   0.880  12.123 -1.0957 -1.1440  2.0581
 1876TIP3   OH227118   0.346   4.815  13.703  0.2224 -0.6244 -0.0558
 1876TIP3    H127119   0.362   4.755  13.630 -0.0500 -0.5431 -0.1803
 1876TIP3    H227120   0.410   4.789  13.769 -0.6219 -1.7815  0.3329
 1877TIP3   OH227121   4.650   2.736   3.667  0.3310 -0.2857  0.1208
 1877TIP3    H127122   4.744   2.752   3.653  0.0863 -1.0878 -3.2691
 1877TIP3    H227123   4.607   2.814   3.631 -0.3616 -0.2672  0.9587
 1878TIP3   OH227124   4.056   3.441   5.198 -0.0979  0.0987 -0.0121
 1878TIP3    H127125   4.067   3.441   5.293 -0.5457 -1.3601  0.0633
 1878TIP3    H227126   4.145   3.454   5.164  0.0933  0.4201  0.5982
 1879TIP3   OH227127   2.719   0.572   3.659  0.8916 -0.3254  0.0235
 1879TIP3    H127128   2.721   0.504   3.726  1.0174 -0.1779  0.1703
 1879TIP3    H227129   2.632   0.611   3.666 -0.4479 -2.6056 -2.2124
 1880TIP3   OH227130   0.430   0.996  12.978  0.2863  0.1841  0.1532
 1880TIP3    H127131   0.423   1.090  12.962 -0.4828  0.4954  2.0445
 1880TIP3    H227132   0.497   0.989  13.046 -1.2598 -0.3743  1.6936
 1881TIP3   OH227133   4.144   5.755   0.335 -0.5887 -0.4248 -0.1367
 1881TIP3    H127134   4.074   5.722   0.278  0.0355  0.8244 -1.6987
 1881TIP3    H227135   4.206   5.683   0.341 -1.9451 -1.5515  1.2524
 1882TIP3   OH227136   1.346   3.991  16.243  0.2327  0.3757 -0.2280
 1882TIP3    H127137   1.321   3.908  16.203 -0.2216  0.4177 -0.0373
 1882TIP3    H227138   1.422   3.970  16.298 -0.0565  0.0309  0.0405
 1883TIP3   OH227139   0.274   6.179  16.338  0.2950 -0.1469 -0.5021
 1883TIP3    H127140   0.325   6.160  16.416  0.0853 -1.3849 -0.6551
 1883TIP3    H227141   0.195   6.222  16.372 -0.1009 -1.2715  0.0433
 1884TIP3   OH227142   5.610   3.854   2.426  0.0235 -0.0115 -0.0903
 1884TIP3    H127143   5.704   3.859   2.407 -0.0325  0.7733 -0.2077
 1884TIP3    H227144   5.597   3.765   2.460  0.5457 -0.6300 -1.4443
 1885TIP3   OH227145   2.719   0.284  14.003 -0.1392  0.2622  0.3891
 1885TIP3    H127146   2.712   0.377  13.980 -1.3891  0.2657  0.7362
 1885TIP3    H227147   2.642   0.243  13.963 -0.8264 -0.2229  2.1182
 1886TIP3   OH227148   0.114   1.204   2.637 -0.1925  0.0220  0.9971
 1886TIP3    H127149   0.128   1.291   2.599  1.1068 -1.0921 -1.3179
 1886TIP3    H227150   0.022   1.203   2.661 -0.2389  2.0342  1.1243
 1887TIP3   OH227151   5.095   5.528  13.741  0.4782  0.7337  0.1335
 1887TIP3    H127152   5.141   5.460  13.789 -1.9227 -1.6278 -0.6479
 1887TIP3    H227153   5.053   5.582  13.808 -2.1220 -1.9902  0.8959
 1888TIP3   OH227154   5.298   2.383  16.011  0.2927  0.2376  0.1181
 1888TIP3    H127155   5.281   2.403  16.103 -0.1864  1.2593 -0.1756
 1888TIP3    H227156   5.246   2.448  15.962 -0.1778 -0.8540 -0.8808
 1889TIP3   OH227157   1.482   0.764  14.347 -0.6416 -0.1880 -0.4269
 1889TIP3    H127158   1.478   0.810  14.263  0.3863 -0.7536 -0.8101
 1889TIP3    H227159   1.472   0.832  14.413 -0.2628  0.4331 -1.0045
 1890TIP3   OH227160   4.399   2.786  16.470 -0.0670  0.5924  0.2775
 1890TIP3    H127161   4.411   2.832  16.388 -1.4025 -1.8014 -1.3866
 1890TIP3    H227162   4.317   2.821  16.505  0.9318  2.2221  1.0975
 1891TIP3   OH227163   2.704   4.367   4.383 -0.1308  0.3252  0.1272
 1891TIP3    H127164   2.689   4.391   4.291  2.5521  0.8905 -0.2465
 1891TIP3    H227165   2.618   4.376   4.424 -1.5494 -0.5002 -2.4210
 1892TIP3   OH227166   2.369   0.442  14.926 -0.3356 -0.6156  0.2797
 1892TIP3    H127167   2.376   0.526  14.972  1.9005  0.0843 -1.1607
 1892TIP3    H227168   2.434   0.386  14.968 -1.1557 -1.3413  0.6100
 1893TIP3   OH227169   3.004   4.934  15.597  0.3800 -0.3235 -0.3230
 1893TIP3    H127170   3.076   4.995  15.609  1.3807 -1.6464  0.7943
 1893TIP3    H227171   3.043   4.857  15.557 -0.1843 -1.4016  1.0882
 1894TIP3   OH227172   4.595   2.089   1.550 -0.0348 -0.2616 -0.1302
 1894TIP3    H127173   4.645   2.008   1.543  1.1436  0.3716  0.7115
 1894TIP3    H227174   4.660   2.159   1.546 -1.1606  0.7795 -2.6291
 1895TIP3   OH227175   1.499   4.768  15.419 -0.7514  0.5010  0.2003
 1895TIP3    H127176   1.505   4.826  15.495 -2.5979  1.1616 -0.1074
 1895TIP3    H227177   1.436   4.700  15.445 -1.2044  0.5854 -0.6158
 1896TIP3   OH227178   1.461   2.555  15.659 -0.2087 -0.1814  0.4955
 1896TIP3    H127179   1.408   2.582  15.733  1.1605  0.5576  1.2446
 1896TIP3    H227180   1.406   2.571  15.582 -1.5026 -0.6027  1.3012
 1897TIP3   OH227181   2.877   5.250  16.505  0.5134  0.0485  0.5564
 1897TIP3    H127182   2.807   5.199  16.463  0.4859  0.0861  0.5552
 1897TIP3    H227183   2.936   5.273  16.433  1.3267 -1.2493  0.7694
 1898TIP3   OH227184   2.058   2.562   0.451  0.2183 -0.1564 -0.2590
 1898TIP3    H127185   2.092   2.621   0.384 -0.1626  0.7148  0.2925
 1898TIP3    H227186   2.120   2.571   0.524 -0.6928  0.8065  0.4311
 1899TIP3   OH227187   0.924   4.934   5.033 -0.5681 -0.7178 -0.0733
 1899TIP3    H127188   0.910   4.935   5.128 -0.2546  1.9811  0.0268
 1899TIP3    H227189   0.849   4.983   4.998 -0.4535 -1.3196 -1.1912
 1900TIP3   OH227190   5.043   3.325  11.574 -0.9378 -0.3840  0.7676
 1900TIP3    H127191   5.086   3.299  11.492 -0.5445  1.4879  0.3296
 1900TIP3    H227192   5.071   3.259  11.637  0.3786 -0.7626 -0.1598
 1901TIP3   OH227193   5.295   5.548   1.566  0.2721  0.1149 -0.1907
 1901TIP3    H127194   5.228   5.578   1.628  1.0128  0.6860  0.3658
 1901TIP3    H227195   5.370   5.605   1.584  0.4321  0.4503 -1.7930
 1902TIP3   OH227196   6.045   3.607   1.378  0.4220  0.2994 -0.5783
 1902TIP3    H127197   5.988   3.650   1.442  0.9432 -1.3843  1.1041
 1902TIP3    H227198   6.089   3.679   1.333  1.2555  1.5896  2.1240
 1903TIP3   OH227199   4.989   5.446   4.193  0.2983  0.0153 -0.3837
 1903TIP3    H127200   4.980   5.538   4.166  1.2787 -0.2651 -1.7672
 1903TIP3    H227201   4.959   5.445   4.284  1.5430  1.9744  0.1127
 1904TIP3   OH227202   3.178   0.218  15.635  0.0278 -0.6905  0.0184
 1904TIP3    H127203   3.093   0.201  15.596  0.9306  0.8485 -2.9040
 1904TIP3    H227204   3.160   0.230  15.728 -2.8715 -0.7887 -0.4421
 1905TIP3   OH227205   2.807   1.147   0.660 -0.1607  0.5919 -0.0759
 1905TIP3    H127206   2.754   1.201   0.601 -0.7387  0.8138  0.6471
 1905TIP3    H227207   2.894   1.145   0.618 -0.7584  0.0853 -1.3521
 1906TIP3   OH227208   2.300   4.170   5.545  0.1930 -0.2777  0.0781
 1906TIP3    H127209   2.380   4.184   5.494  0.2303  0.2846  0.2927
 1906TIP3    H227210   2.295   4.074   5.554  0.5415 -0.3487 -0.4059
 1907TIP3   OH227211   2.617   0.995   6.085  0.1595 -0.1153 -0.3410
 1907TIP3    H127212   2.604   0.901   6.094 -0.1405 -0.0605 -0.1792
 1907TIP3    H227213   2.573   1.033   6.161  0.5864  0.1336 -0.2149
 1908TIP3   OH227214   2.731   2.346   5.886 -0.7784 -0.2118 -0.0159
 1908TIP3    H127215   2.733   2.255   5.916 -0.9206  0.1536  1.1345
 1908TIP3    H227216   2.783   2.394   5.951 -3.2973  1.0315  1.2173
 1909TIP3   OH227217   3.567   6.810  12.011 -0.1336 -0.3739  0.6893
 1909TIP3    H127218   3.518   6.854  11.942  0.8093  0.7586  0.7090
 1909TIP3    H227219   3.501   6.759  12.059 -1.1964  0.6662  0.3820
 1910TIP3   OH227220   3.497   6.023  17.134  0.2429  0.2730 -0.0595
 1910TIP3    H127221   3.590   6.033  17.113  1.0061 -1.2871  2.2352
 1910TIP3    H227222   3.453   6.087  17.078  2.3161 -1.0642 -3.5541
 1911TIP3   OH227223   3.736   0.242   4.793 -0.3882 -0.3835  0.5304
 1911TIP3    H127224   3.744   0.261   4.700 -2.1524  0.7721  0.5653
 1911TIP3    H227225   3.753   0.148   4.800  1.0327 -0.2579 -0.7525
 1912TIP3   OH227226   1.498   4.936   2.677  0.1605 -0.2007 -0.0116
 1912TIP3    H127227   1.531   4.847   2.687  0.0298 -0.0768  1.7789
 1912TIP3    H227228   1.430   4.928   2.610  0.4148 -1.3731 -0.1545
 1913TIP3   OH227229   6.618   4.026  12.411  0.5579  0.4079 -0.1518
 1913TIP3    H127230   6.547   4.089  12.408 -0.4479 -0.7220 -2.2382
 1913TIP3    H227231   6.592   3.957  12.350  2.0590 -1.5626  1.2800
 1914TIP3   OH227232   1.894   6.730   0.776  0.3667 -0.8261 -0.5577
 1914TIP3    H127233   1.899   6.654   0.718 -2.5402 -0.6091 -1.2465
 1914TIP3    H227234   1.838   6.701   0.848  0.8440  0.0806  0.2021
 1915TIP3   OH227235   4.754   2.187   3.938  0.5776  0.7058  0.4158
 1915TIP3    H127236   4.775   2.274   3.905  0.4205  0.8509  0.6982
 1915TIP3    H227237   4.702   2.147   3.868  0.8881  0.7333  0.1666
 1916TIP3   OH227238   6.110   4.937  15.685  0.3023 -0.3274 -0.0153
 1916TIP3    H127239   6.201   4.911  15.695  0.3792  0.1279  0.5087
 1916TIP3    H227240   6.109   4.992  15.606  1.0440  2.1415  1.5867
 1917TIP3   OH227241   3.985   4.941   1.237 -0.0635 -0.8647 -0.4552
 1917TIP3    H127242   3.946   4.982   1.314  0.8221 -0.5133 -0.1777
 1917TIP3    H227243   4.070   4.985   1.227 -0.4425 -0.4458 -2.0208
 1918TIP3   OH227244   2.423   3.948  15.071  0.1059 -0.1917 -0.7439
 1918TIP3    H127245   2.455   3.865  15.035 -0.3048 -0.4074 -0.6181
 1918TIP3    H227246   2.379   3.991  14.998 -1.0050 -0.7720 -0.4398
 1919TIP3   OH227247   0.709   0.967  11.622 -0.1428  0.3115  0.0075
 1919TIP3    H127248   0.693   1.061  11.617  0.3563  0.4332  0.5480
 1919TIP3    H227249   0.802   0.957  11.603 -0.2562 -0.1000 -0.3311
 1920TIP3   OH227250   3.803   3.662   4.725  0.1757 -0.6312  0.5486
 1920TIP3    H127251   3.869   3.612   4.773  0.4714  0.1223  0.9403
 1920TIP3    H227252   3.720   3.636   4.765  0.1310 -2.2129 -0.4995
 1921TIP3   OH227253   4.595   5.815  12.501 -0.3003  0.4299 -0.1009
 1921TIP3    H127254   4.636   5.730  12.483 -0.8525  0.4092 -1.3117
 1921TIP3    H227255   4.631   5.874  12.435  1.0298  1.4799  1.4811
 1922TIP3   OH227256   5.936   1.725  13.515 -0.2419 -0.6633 -0.3810
 1922TIP3    H127257   5.867   1.667  13.481 -0.7037 -1.4869  1.7777
 1922TIP3    H227258   5.889   1.796  13.558  0.2911 -0.0342 -0.8382
 1923TIP3   OH227259   3.071   2.118   2.726 -0.5331 -0.2197  0.7617
 1923TIP3    H127260   3.112   2.125   2.812 -0.6839  2.2034  0.7128
 1923TIP3    H227261   3.142   2.140   2.665 -0.7365 -0.6944  0.3543
 1924TIP3   OH227262   6.364   3.901   1.236 -0.1199  0.2252  0.4687
 1924TIP3    H127263   6.425   3.839   1.277 -0.0984  0.5277  0.8906
 1924TIP3    H227264   6.280   3.855   1.237 -0.3485  0.6550  1.8309
 1925TIP3   OH227265   6.613   1.773   6.315 -0.3683 -0.1209  0.2677
 1925TIP3    H127266   6.686   1.736   6.267  0.9953 -0.1261  2.2490
 1925TIP3    H227267   6.599   1.859   6.275  1.4569  0.3424  0.5410
 1926TIP3   OH227268   3.885   4.991   4.689  0.8112  0.4127 -0.3674
 1926TIP3    H127269   3.800   4.957   4.662  1.3951 -1.0257 -0.4635
 1926TIP3    H227270   3.869   5.084   4.708 -1.2523 -0.2854  1.6904
 1927TIP3   OH227271   3.939   2.850  15.257  0.7965  0.2191  0.4218
 1927TIP3    H127272   3.873   2.901  15.303  0.6953  0.1871  0.3148
 1927TIP3    H227273   3.888   2.790  15.202  0.9145  0.1579  0.3786
 1928TIP3   OH227274   4.392   5.017  10.787 -0.3661 -0.3087  0.0230
 1928TIP3    H127275   4.452   5.075  10.741  1.4853 -1.6568  0.5949
 1928TIP3    H227276   4.441   4.987  10.864 -0.7457 -3.4483 -0.8048
 1929TIP3   OH227277   0.539   2.861  15.719  0.4268 -0.1474 -0.2202
 1929TIP3    H127278   0.488   2.879  15.798 -1.6916 -0.1744 -1.5212
 1929TIP3    H227279   0.495   2.788  15.677  2.3614 -1.0844 -0.7498
 1930TIP3   OH227280   1.494   1.554  16.544  1.0485 -0.3627  0.0391
 1930TIP3    H127281   1.513   1.594  16.460 -2.1036  3.2029  0.7390
 1930TIP3    H227282   1.417   1.499  16.527  0.8814 -0.2508  0.4264
 1931TIP3   OH227283   4.053   4.637   2.563 -0.0443  0.2161  0.3624
 1931TIP3    H127284   4.027   4.547   2.546 -1.5634  0.9662 -1.6570
 1931TIP3    H227285   4.016   4.657   2.649 -0.4914 -0.8020  0.4129
 1932TIP3   OH227286   4.734   1.696  16.510  0.2207  0.1385  0.3262
 1932TIP3    H127287   4.810   1.698  16.568  0.2329 -3.5766  0.6239
 1932TIP3    H227288   4.660   1.674  16.567 -0.4175  0.0017 -0.5184
 1933TIP3   OH227289   2.937   5.572  13.547 -0.4834 -0.1622 -0.4053
 1933TIP3    H127290   2.845   5.595  13.555 -0.3088  0.6811 -0.7190
 1933TIP3    H227291   2.943   5.520  13.468 -0.5548  0.5518 -0.8870
 1934TIP3   OH227292   3.856   5.251  10.136 -0.0104  0.1900  0.3760
 1934TIP3    H127293   3.924   5.275  10.073  0.4174  0.0191  0.7741
 1934TIP3    H227294   3.903   5.211  10.209 -0.4914  0.5192  0.8722
 1935TIP3   OH227295   2.056   4.968   2.255  0.1252  0.0919  0.5407
 1935TIP3    H127296   2.039   5.044   2.310 -2.2514 -0.8625  1.2457
 1935TIP3    H227297   1.969   4.937   2.230  1.0744 -0.5499 -2.3618
 1936TIP3   OH227298   1.812   3.840  15.091 -0.0503 -0.0661 -0.3607
 1936TIP3    H127299   1.856   3.839  15.006  3.1106 -0.2591  1.1275
 1936TIP3    H227300   1.823   3.930  15.123 -1.4031  0.0665 -0.2211
 1937TIP3   OH227301   1.854   1.578   3.114 -0.1684  0.4379  0.1593
 1937TIP3    H127302   1.929   1.525   3.089 -0.7375 -0.7753  0.9532
 1937TIP3    H227303   1.792   1.517   3.153 -0.7378  1.7190  1.3600
 1938TIP3   OH227304   3.635   2.341  14.391  0.1208 -0.2818 -0.3767
 1938TIP3    H127305   3.694   2.410  14.422 -0.4473 -0.0042  0.1074
 1938TIP3    H227306   3.548   2.374  14.410 -0.1369 -1.7324  1.1348
 1939TIP3   OH227307   5.430   5.629   0.037 -0.0866 -0.7404 -0.0350
 1939TIP3    H127308   5.445   5.697  -0.028 -2.1605 -0.0371  0.1451
 1939TIP3    H227309   5.481   5.554   0.006  1.8058  0.6789 -0.5260
 1940TIP3   OH227310   3.699   5.095  16.858  0.0690 -0.5327 -0.0001
 1940TIP3    H127311   3.789   5.102  16.890  0.5782 -0.4656 -1.3654
 1940TIP3    H227312   3.696   5.008  16.816 -0.2803 -0.2480 -0.5757
 1941TIP3   OH227313   3.270   3.371  15.419  0.2333  0.1357 -0.6049
 1941TIP3    H127314   3.348   3.427  15.422 -0.6290  1.4851 -2.1678
 1941TIP3    H227315   3.263   3.344  15.327 -0.8255 -0.4252 -0.3757
 1942TIP3   OH227316   0.229   0.946   5.945 -0.2910 -0.1041  0.5314
 1942TIP3    H127317   0.224   1.002   6.023 -0.0796  0.0202  0.4567
 1942TIP3    H227318   0.142   0.951   5.907 -0.1389  0.5772  0.2515
 1943TIP3   OH227319   6.171   4.555  12.290 -0.1735  0.0071  0.0237
 1943TIP3    H127320   6.116   4.616  12.240 -1.5617 -0.4319  0.9412
 1943TIP3    H227321   6.115   4.526  12.362  0.1311 -3.0284 -0.8466
 1944TIP3   OH227322   3.819   3.924  12.442 -0.3604 -0.2173 -0.3468
 1944TIP3    H127323   3.765   3.845  12.443 -0.3084 -0.2532 -0.3444
 1944TIP3    H227324   3.874   3.914  12.363 -1.0155  0.2637 -0.8714
 1945TIP3   OH227325   6.048   2.855   6.202  0.4770 -0.0858  0.0047
 1945TIP3    H127326   6.054   2.938   6.250  1.0774  0.9100 -1.6837
 1945TIP3    H227327   5.987   2.873   6.130 -1.3906 -1.9086  1.0358
 1946TIP3   OH227328   6.734   4.813   5.547 -0.3747 -0.0998  0.0896
 1946TIP3    H127329   6.809   4.760   5.520 -0.6379  0.3974 -1.7393
 1946TIP3    H227330   6.713   4.782   5.635  0.3250 -2.0590 -0.3867
 1947TIP3   OH227331   6.603   1.295  12.742 -0.1248  0.0531 -0.2414
 1947TIP3    H127332   6.615   1.281  12.648  0.5304  1.1823 -0.3344
 1947TIP3    H227333   6.617   1.208  12.781  0.3804 -0.2671 -1.1142
 1948TIP3   OH227334   5.582   5.929   0.143 -0.3008 -0.1337  0.2918
 1948TIP3    H127335   5.678   5.935   0.152 -0.1813 -1.1212 -0.1959
 1948TIP3    H227336   5.569   5.885   0.059 -1.2508  3.0685 -1.3997
 1949TIP3   OH227337   1.980   2.052   3.958  0.3636 -0.8582 -0.0826
 1949TIP3    H127338   1.973   1.957   3.957 -1.6494 -0.7378 -0.6845
 1949TIP3    H227339   1.950   2.079   3.871 -0.1473  0.3856  0.4659
 1950TIP3   OH227340   6.352   0.703  15.032 -0.3408  0.3943  0.9170
 1950TIP3    H127341   6.403   0.655  14.967 -2.3628  0.3119 -0.7051
 1950TIP3    H227342   6.364   0.795  15.009 -0.2874  0.4153  1.0287
 1951TIP3   OH227343   2.140   2.162  12.461  0.1087 -0.5090 -0.2012
 1951TIP3    H127344   2.200   2.236  12.457 -1.0049  0.4194 -0.2410
 1951TIP3    H227345   2.155   2.114  12.379 -0.2712  0.5891 -0.9433
 1952TIP3   OH227346   5.811   1.433  12.058  0.1351 -0.0286 -0.2400
 1952TIP3    H127347   5.724   1.394  12.063  0.3371 -0.3483  0.8915
 1952TIP3    H227348   5.817   1.465  11.968 -1.4870  0.8067 -0.0796
 1953TIP3   OH227349   0.563   1.288   4.632  0.5363  0.1513  0.4206
 1953TIP3    H127350   0.552   1.295   4.537 -1.7379  0.2875  0.6514
 1953TIP3    H227351   0.627   1.357   4.653 -0.7193  1.7462 -0.7344
 1954TIP3   OH227352   1.728   5.441   4.125  0.1476 -0.5551 -0.2466
 1954TIP3    H127353   1.752   5.496   4.200 -0.4607  0.3670 -0.7100
 1954TIP3    H227354   1.722   5.502   4.051  0.1238 -1.3540 -0.9180
 1955TIP3   OH227355   4.454   0.344  16.302  0.1131  0.6129  0.6030
 1955TIP3    H127356   4.448   0.421  16.245 -3.0317 -0.1273 -0.2451
 1955TIP3    H227357   4.484   0.379  16.386  0.3195  2.4849 -0.1903
 1956TIP3   OH227358   0.794   5.596  13.138 -0.0476 -0.0882 -0.3123
 1956TIP3    H127359   0.820   5.507  13.161  0.8257  0.5315  1.2169
 1956TIP3    H227360   0.727   5.619  13.202  0.6750  0.8049  0.1434
 1957TIP3   OH227361   5.680   5.325  12.034 -0.4595  0.0744  0.1954
 1957TIP3    H127362   5.619   5.252  12.024 -0.3469  0.0637 -0.4779
 1957TIP3    H227363   5.631   5.400  11.999 -0.0587  0.0476 -0.4422
 1958TIP3   OH227364   5.326   2.674   1.743  0.1001  0.2876 -0.6475
 1958TIP3    H127365   5.352   2.732   1.671  0.3103 -0.7358 -1.4221
 1958TIP3    H227366   5.386   2.599   1.736 -1.0394 -0.6672 -0.5372
 1959TIP3   OH227367   0.153   3.796   3.621  0.3380 -0.4582  0.1670
 1959TIP3    H127368   0.168   3.861   3.689  1.3447  0.7337 -1.1245
 1959TIP3    H227369   0.136   3.714   3.668 -0.3420  0.5991  1.8212
 1960TIP3   OH227370   0.921   1.510   1.376  0.5308 -0.3342  0.7903
 1960TIP3    H127371   0.854   1.455   1.335  1.1976  0.2786 -1.2213
 1960TIP3    H227372   0.988   1.448   1.406  0.2654 -0.7584  0.5196
 1961TIP3   OH227373   2.610   5.746   0.270  0.1237 -0.0089  0.0718
 1961TIP3    H127374   2.562   5.823   0.301 -0.3351 -0.2691  0.0263
 1961TIP3    H227375   2.646   5.772   0.186 -1.4515 -0.3632 -0.7684
 1962TIP3   OH227376   0.527   0.666  10.546  0.0811  0.2860  0.7074
 1962TIP3    H127377   0.537   0.573  10.526  1.2845  0.8858 -1.9037
 1962TIP3    H227378   0.432   0.680  10.549 -0.1263 -0.7291 -0.5006
 1963TIP3   OH227379   2.537   2.738   0.901 -0.7141  0.2357 -0.4794
 1963TIP3    H127380   2.531   2.721   0.807 -1.6381 -2.1353 -0.0577
 1963TIP3    H227381   2.606   2.679   0.931 -1.6817 -0.3907  0.5901
 1964TIP3   OH227382   1.368   2.245   0.275 -0.1796 -0.2192  0.8309
 1964TIP3    H127383   1.332   2.176   0.331  0.9687 -0.0571  1.8192
 1964TIP3    H227384   1.365   2.324   0.330  2.0833 -0.2982  1.1729
 1965TIP3   OH227385   6.370   1.057   2.430 -0.5384  0.0112 -0.1081
 1965TIP3    H127386   6.368   0.969   2.468  0.9850  0.6404  1.5839
 1965TIP3    H227387   6.392   1.043   2.338 -0.4031 -1.3673  0.1140
 1966TIP3   OH227388   3.299   2.303   4.490  0.0027 -0.3938  0.1697
 1966TIP3    H127389   3.277   2.237   4.556  0.5657 -0.1670  0.5834
 1966TIP3    H227390   3.258   2.383   4.521 -3.0615 -1.0748 -1.6927
 1967TIP3   OH227391   1.695   1.643  16.723 -0.0359  0.4311  0.4138
 1967TIP3    H127392   1.626   1.601  16.672  0.2510 -2.1981  2.0076
 1967TIP3    H227393   1.652   1.718  16.764 -0.5966  1.8256 -2.5101
 1968TIP3   OH227394   1.819   3.325  16.264 -0.5427  0.0160 -0.4031
 1968TIP3    H127395   1.795   3.236  16.238  0.4398 -0.4273  0.1460
 1968TIP3    H227396   1.888   3.313  16.329  0.8920  1.1938 -1.6355
 1969TIP3   OH227397   5.758   6.033  12.963  0.0870  0.0025  0.1198
 1969TIP3    H127398   5.833   5.998  13.011  0.3201 -0.0372 -0.2659
 1969TIP3    H227399   5.775   6.127  12.959  0.1033 -0.0034  0.0548
 1970TIP3   OH227400   5.538   3.498   3.445 -0.0766  0.0110  0.4064
 1970TIP3    H127401   5.487   3.522   3.522 -0.9062 -0.8130  0.1199
 1970TIP3    H227402   5.597   3.573   3.432  0.0954  0.1584  1.8374
 1971TIP3   OH227403   2.464   3.262   3.683  0.4011 -0.6654 -0.0794
 1971TIP3    H127404   2.447   3.185   3.628 -3.8006  0.7172 -1.0854
 1971TIP3    H227405   2.482   3.332   3.620 -0.2859  0.0557  0.4970
 1972TIP3   OH227406   6.581   0.687  13.763 -0.4959 -0.2526 -0.2860
 1972TIP3    H127407   6.618   0.775  13.769 -4.1076  1.4559 -0.4140
 1972TIP3    H227408   6.620   0.650  13.684  0.6217  1.4653 -0.6027
 1973TIP3   OH227409   6.339   1.645  12.922  0.4693 -0.1600  0.2478
 1973TIP3    H127410   6.392   1.660  12.843 -0.3556 -0.9789 -0.4816
 1973TIP3    H227411   6.275   1.716  12.922  0.6250 -0.0191  0.3158
 1974TIP3   OH227412   1.486   3.928  11.391 -0.0186  0.2715  0.1490
 1974TIP3    H127413   1.566   3.941  11.341 -0.0396 -0.9347 -0.2264
 1974TIP3    H227414   1.419   3.979  11.344  0.2517  0.2351 -0.2741
 1975TIP3   OH227415   4.556   2.177  12.928  0.7500  0.0886 -0.4635
 1975TIP3    H127416   4.545   2.160  13.022 -2.3428 -0.2805 -0.7901
 1975TIP3    H227417   4.543   2.271  12.919 -1.5421 -0.1946 -0.7189
 1976TIP3   OH227418   2.141   6.208   0.760  0.2240 -0.5434  0.0367
 1976TIP3    H127419   2.093   6.278   0.805  0.4888 -0.8085  0.7484
 1976TIP3    H227420   2.225   6.203   0.807 -0.0309 -1.7511  0.3866
 1977TIP3   OH227421   2.922   5.147  15.861 -0.1316  0.1467  0.1140
 1977TIP3    H127422   2.886   5.227  15.824 -0.9776  0.4615  1.5460
 1977TIP3    H227423   2.854   5.082  15.848  0.4630 -0.3090 -0.8427
 1978TIP3   OH227424   3.743   3.952   2.928 -0.3516 -0.1158  0.2725
 1978TIP3    H127425   3.649   3.970   2.929 -0.4033 -0.2672 -0.6728
 1978TIP3    H227426   3.759   3.912   2.842  0.6860  0.5073  0.1617
 1979TIP3   OH227427   1.806   4.001  13.178 -0.3306  0.0026  0.1702
 1979TIP3    H127428   1.716   4.032  13.173  0.2855  1.7117 -2.1715
 1979TIP3    H227429   1.829   3.980  13.087  1.6345 -0.3962  0.7137
 1980TIP3   OH227430   2.823   1.505   4.295 -0.0935  0.0917  0.5105
 1980TIP3    H127431   2.865   1.470   4.217 -1.5315 -1.4020  0.3594
 1980TIP3    H227432   2.886   1.567   4.331  0.5910  0.8302 -1.8305
 1981TIP3   OH227433   2.388   4.451   5.721  0.2804 -0.0907  0.4279
 1981TIP3    H127434   2.309   4.420   5.675 -0.4122  0.4606  1.2064
 1981TIP3    H227435   2.354   4.510   5.788  1.4286  0.6998  0.3286
 1982TIP3   OH227436   5.131   6.428   4.889  0.1930 -0.4934  0.1507
 1982TIP3    H127437   5.224   6.423   4.910  0.4726 -0.0453 -0.9444
 1982TIP3    H227438   5.092   6.474   4.964  0.7184 -1.3133  0.9507
 1983TIP3   OH227439   4.476   2.023  13.833  0.7983 -0.1594 -0.4485
 1983TIP3    H127440   4.393   1.991  13.799  0.5621  0.2966 -0.3059
 1983TIP3    H227441   4.488   1.979  13.917  1.4464 -1.3933 -1.1578
 1984TIP3   OH227442   5.990   6.464  12.167  0.4658 -0.0425  0.7753
 1984TIP3    H127443   5.997   6.547  12.122 -3.5279 -0.6868 -1.5086
 1984TIP3    H227444   6.014   6.398  12.102  0.4540 -0.8034  1.5068
 1985TIP3   OH227445   0.440   3.408   2.593  0.2989 -0.1489  0.0374
 1985TIP3    H127446   0.359   3.452   2.620  1.2469  0.7529  1.5729
 1985TIP3    H227447   0.455   3.439   2.503 -1.3307 -0.7878 -0.4908
 1986TIP3   OH227448   4.890   4.865   4.886  0.4096  0.1176 -0.2110
 1986TIP3    H127449   4.981   4.866   4.917 -0.0638 -2.3765  1.6148
 1986TIP3    H227450   4.855   4.951   4.908  1.6829  0.2843  1.2917
 1987TIP3   OH227451   1.314   6.578   5.813  0.5808 -0.6238 -0.1177
 1987TIP3    H127452   1.252   6.649   5.796 -0.8600 -2.0045 -0.8003
 1987TIP3    H227453   1.385   6.621   5.862 -0.7093  1.0777  0.3943
 1988TIP3   OH227454   3.431   1.944  14.243 -0.1497 -0.1041 -0.6272
 1988TIP3    H127455   3.395   1.914  14.327 -0.4935 -1.5061 -1.2548
 1988TIP3    H227456   3.369   1.912  14.178  0.6796  0.0560 -1.5058
 1989TIP3   OH227457   1.909   5.126   5.361 -0.0749  0.5921  0.0677
 1989TIP3    H127458   1.999   5.143   5.335 -0.7736  0.4168 -2.7474
 1989TIP3    H227459   1.856   5.163   5.290 -2.1515 -0.8978  0.7508
 1990TIP3   OH227460   0.051   0.030   2.409  0.1551 -1.0111  0.3437
 1990TIP3    H127461   0.131   0.007   2.456  0.9843  1.1923  0.1181
 1990TIP3    H227462   0.082   0.054   2.321 -0.7039  0.0592  0.3154
 1991TIP3   OH227463   1.706   2.721  15.749  0.2307 -0.3009  0.0586
 1991TIP3    H127464   1.743   2.651  15.803  0.6657 -1.5147 -1.7452
 1991TIP3    H227465   1.623   2.685  15.716  0.5359 -0.0605 -1.0106
 1992TIP3   OH227466   2.824   0.179   2.153  0.2007  0.4612  0.4409
 1992TIP3    H127467   2.796   0.249   2.212  0.4133  0.2916  0.7434
 1992TIP3    H227468   2.782   0.200   2.069  0.6643  1.2185  0.3913
 1993TIP3   OH227469   1.726   6.779  15.408 -0.2715 -0.8418  0.0430
 1993TIP3    H127470   1.661   6.737  15.351 -1.0353 -0.4836  0.6182
 1993TIP3    H227471   1.771   6.842  15.351 -2.0664  0.6238  0.1217
 1994TIP3   OH227472   0.550   4.982  16.738 -1.0305  0.0297 -0.2905
 1994TIP3    H127473   0.626   4.928  16.715 -0.7414  0.5877 -0.6696
 1994TIP3    H227474   0.519   5.016  16.655 -0.5370  1.3260  0.0319
 1995TIP3   OH227475   1.319   5.201   3.315  0.0154 -0.5690 -0.3174
 1995TIP3    H127476   1.356   5.201   3.227  0.4990 -0.6697 -0.1176
 1995TIP3    H227477   1.227   5.225   3.303 -0.5820 -2.9494 -1.1375
 1996TIP3   OH227478   2.054   4.170  13.134 -0.1780  0.8889 -0.3497
 1996TIP3    H127479   1.996   4.227  13.085 -1.4017  0.0622  0.0920
 1996TIP3    H227480   1.996   4.109  13.180  1.0688 -0.7629 -0.8434
 1997TIP3   OH227481   2.143   2.159   0.270  0.8513  0.0932 -0.1338
 1997TIP3    H127482   2.109   2.102   0.339 -0.4564  0.5501 -0.3780
 1997TIP3    H227483   2.238   2.158   0.283  0.8930 -2.2778 -0.2393
 1998TIP3   OH227484   0.264   2.126  12.810 -0.0342 -0.0517 -0.4131
 1998TIP3    H127485   0.353   2.137  12.777  0.7577 -1.9170  0.8610
 1998TIP3    H227486   0.270   2.148  12.903 -1.0070  0.1911 -0.3944
 1999TIP3   OH227487   5.467   3.766   1.453 -0.1108  0.1776  0.5292
 1999TIP3    H127488   5.478   3.672   1.460 -1.5808 -0.1949 -1.3149
 1999TIP3    H227489   5.422   3.779   1.369  0.9283  2.5933  0.2514
 2000TIP3   OH227490   2.613   5.682   1.255  0.0698 -0.0815 -0.1410
 2000TIP3    H127491   2.568   5.761   1.225  1.3409  0.6109 -0.2741
 2000TIP3    H227492   2.607   5.621   1.181  1.5443  0.9335 -1.1267
 2001TIP3   OH227493   3.659   5.236  12.390  0.1649  0.6328 -0.4361
 2001TIP3    H127494   3.598   5.267  12.457  0.6149 -2.4720  1.6022
 2001TIP3    H227495   3.614   5.162  12.350  2.3281 -1.5836  0.9482
 2002TIP3   OH227496   3.512   2.152  14.085  0.5181  0.8513 -0.9635
 2002TIP3    H127497   3.604   2.126  14.086  0.5492  0.7046  2.1849
 2002TIP3    H227498   3.466   2.079  14.128 -0.6186  2.1872  0.1639
 2003TIP3   OH227499   1.008   2.674   2.608  0.8256  0.1405  0.2379
 2003TIP3    H127500   0.973   2.729   2.678  1.4028  5.2114 -2.8989
 2003TIP3    H227501   0.930   2.645   2.560  0.5561  0.6222  0.3764
 2004TIP3   OH227502   5.807   2.418  14.418  0.1814 -0.2945 -0.1182
 2004TIP3    H127503   5.858   2.491  14.382  1.6128 -0.0740  2.1511
 2004TIP3    H227504   5.725   2.420  14.369  1.0867  1.3588 -1.7188
 2005TIP3   OH227505   0.785   6.288   5.028  0.2584 -0.3717  0.4374
 2005TIP3    H127506   0.850   6.354   5.054  1.9503 -1.2215 -1.3585
 2005TIP3    H227507   0.709   6.339   5.001 -0.3075  0.6292  3.5193
 2006TIP3   OH227508   0.173   6.041  16.631  0.4618 -0.4123  0.5467
 2006TIP3    H127509   0.222   5.998  16.701  2.1242  0.5727  0.0509
 2006TIP3    H227510   0.152   6.128  16.665  1.4290  0.1383 -0.2049
 2007TIP3   OH227511   3.926   1.285   1.298 -1.4039 -0.0495  0.5795
 2007TIP3    H127512   3.928   1.343   1.221  0.9918 -0.8899 -0.0858
 2007TIP3    H227513   3.860   1.220   1.278  0.4672 -1.3914 -1.7557
 2008TIP3   OH227514   6.611   2.243   3.791 -0.0821  0.3233 -0.0737
 2008TIP3    H127515   6.613   2.283   3.878 -0.8236 -1.2413  0.7056
 2008TIP3    H227516   6.692   2.272   3.750 -0.8768  3.1524  0.1515
 2009TIP3   OH227517   0.926   4.975  12.638  0.5558  0.0369  0.1428
 2009TIP3    H127518   0.937   4.887  12.601  0.9257 -1.3187  3.1484
 2009TIP3    H227519   0.838   4.975  12.674  1.4735 -0.1912  2.5744
 2010TIP3   OH227520   5.851   2.453  15.087  0.3874  0.1821 -0.8177
 2010TIP3    H127521   5.863   2.409  15.003 -0.1087 -0.0072 -0.7927
 2010TIP3    H227522   5.758   2.444  15.106  0.7214 -1.0382  0.4422
 2011TIP3   OH227523   0.079   2.831   2.353 -0.1005 -0.3805  0.7883
 2011TIP3    H127524   0.108   2.740   2.367 -0.0338 -0.2909  1.2710
 2011TIP3    H227525  -0.010   2.834   2.389 -0.9195 -0.7724 -1.1193
 2012TIP3   OH227526   3.864   5.039   2.571 -0.1511  0.0743  0.2609
 2012TIP3    H127527   3.893   5.085   2.493 -1.4416 -0.7291 -0.7395
 2012TIP3    H227528   3.917   5.075   2.642  2.2884 -0.3813 -1.2188
 2013TIP3   OH227529   6.641   0.309   0.269  0.4698 -0.1726  0.7000
 2013TIP3    H127530   6.569   0.307   0.206  0.7954  0.1793  0.3102
 2013TIP3    H227531   6.686   0.392   0.252  0.4808 -0.0114  1.4903
 2014TIP3   OH227532   5.096   2.015   4.889 -0.0996 -0.6691  0.1613
 2014TIP3    H127533   5.091   2.055   4.977  1.4282 -1.3272  0.5715
 2014TIP3    H227534   5.064   1.926   4.901 -1.6427 -0.2105 -0.3552
 2015TIP3   OH227535   6.693   2.323   0.007  0.3403  0.1206 -0.1317
 2015TIP3    H127536   6.772   2.354  -0.038 -0.8782  2.9654 -0.5857
 2015TIP3    H227537   6.633   2.301  -0.064 -0.0658  0.2556  0.1680
 2016TIP3   OH227538   1.039   5.025   3.011 -0.7130  0.1570 -0.0509
 2016TIP3    H127539   1.023   4.995   2.922 -0.8941  1.4997 -0.5012
 2016TIP3    H227540   1.082   4.952   3.054 -1.0164 -0.6708 -1.1145
 2017TIP3   OH227541   2.995   1.161  13.224  0.4029 -0.7131 -0.0951
 2017TIP3    H127542   2.994   1.238  13.167 -0.2101  1.0144  2.0785
 2017TIP3    H227543   3.079   1.165  13.268  0.7691 -1.8875 -0.6495
 2018TIP3   OH227544   3.161   6.112  13.066 -0.1053 -0.5709 -0.3161
 2018TIP3    H127545   3.136   6.034  13.016  0.5354 -0.1691 -1.2894
 2018TIP3    H227546   3.217   6.162  13.006  1.2412 -0.3995  1.0333
 2019TIP3   OH227547   4.684   3.584  12.795 -0.7547  0.4359 -0.0046
 2019TIP3    H127548   4.700   3.679  12.793 -0.8284  0.4509  0.1018
 2019TIP3    H227549   4.735   3.550  12.722  1.2232  0.2591  1.3705
 2020TIP3   OH227550   6.238   3.506  16.751 -0.4637  0.1857 -0.1990
 2020TIP3    H127551   6.157   3.459  16.769 -0.6356  0.9479  1.1630
 2020TIP3    H227552   6.283   3.508  16.836  0.2363  1.1340 -0.5844
 2021TIP3   OH227553   1.241   3.016   3.641  0.2806 -0.4557 -0.0930
 2021TIP3    H127554   1.178   2.997   3.571  0.5576 -1.4669 -0.0907
 2021TIP3    H227555   1.305   2.945   3.635  1.0388  0.1761  0.3486
 2022TIP3   OH227556   0.854   6.154   0.570 -0.0884 -0.0833  0.0211
 2022TIP3    H127557   0.929   6.095   0.580 -1.6620 -2.0191  1.0970
 2022TIP3    H227558   0.823   6.169   0.660 -1.3919  0.1023 -0.4362
 2023TIP3   OH227559   3.442   4.061   1.697 -0.2391  0.3354 -0.3661
 2023TIP3    H127560   3.415   4.131   1.638 -1.0481  0.1719 -0.2034
 2023TIP3    H227561   3.471   4.106   1.776  0.7020  0.5481 -0.8178
 2024TIP3   OH227562   4.917   0.876  16.824 -0.2685  0.2628  0.0881
 2024TIP3    H127563   4.904   0.862  16.918  2.5765  0.9448  0.6803
 2024TIP3    H227564   5.000   0.831  16.804 -0.5624  0.5337 -2.0073
 2025TIP3   OH227565   0.736   0.765   6.443  0.3524  0.2496  0.2263
 2025TIP3    H127566   0.771   0.686   6.400 -0.5002 -0.5724  0.9929
 2025TIP3    H227567   0.806   0.829   6.435  0.6584 -0.2253 -1.3830
 2026TIP3   OH227568   3.327   0.841  13.647  0.3160  0.2635  0.2270
 2026TIP3    H127569   3.409   0.838  13.598  1.5936 -0.7667  2.2714
 2026TIP3    H227570   3.298   0.750  13.651 -0.3573  0.4796  0.4199
 2027TIP3   OH227571   3.353   1.777  16.667 -0.5298 -0.1310 -0.2167
 2027TIP3    H127572   3.437   1.737  16.645 -0.0463  1.2247 -1.0229
 2027TIP3    H227573   3.301   1.706  16.705  1.5815 -0.5977  2.0261
 2028TIP3   OH227574   0.240   4.526   2.532  0.4042  0.3223 -0.0431
 2028TIP3    H127575   0.285   4.599   2.575 -0.5417  2.3551 -2.2670
 2028TIP3    H227576   0.290   4.448   2.558  2.8604  2.0018  0.6325
 2029TIP3   OH227577   5.216   1.872   0.167  0.3044  0.1233 -0.0942
 2029TIP3    H127578   5.302   1.840   0.141  1.2108  0.2279  2.5702
 2029TIP3    H227579   5.160   1.794   0.167  1.2252 -0.5651  1.3161
 2030TIP3   OH227580   2.188   1.348   0.076 -0.0838  1.1947  0.3424
 2030TIP3    H127581   2.164   1.439   0.093  1.3891  0.9512  5.1660
 2030TIP3    H227582   2.280   1.351   0.052 -0.7342  1.0220 -2.5735
 2031TIP3   OH227583   4.650   2.859  13.628 -0.8415  0.1628  0.8695
 2031TIP3    H127584   4.635   2.766  13.645 -1.3332 -0.3566 -1.8348
 2031TIP3    H227585   4.721   2.883  13.687  0.8268 -2.5177  0.1681
 2032TIP3   OH227586   0.729   2.357   0.103  0.0600 -0.0416  0.6948
 2032TIP3    H127587   0.718   2.391   0.014  0.3625  1.9419  1.3753
 2032TIP3    H227588   0.658   2.397   0.153 -2.6043 -4.1517  0.6715
 2033TIP3   OH227589   2.081   3.737   2.526 -0.1150  0.1440 -0.3355
 2033TIP3    H127590   1.993   3.728   2.489  1.0744  1.2267 -3.7549
 2033TIP3    H227591   2.067   3.733   2.621 -3.8668  0.6720 -0.7131
 2034TIP3   OH227592   1.395   5.391  15.666 -0.3179 -0.1154  0.6019
 2034TIP3    H127593   1.462   5.449  15.631  1.0780 -0.2955  2.7800
 2034TIP3    H227594   1.415   5.306  15.626 -0.0821  0.1081  0.2323
 2035TIP3   OH227595   2.325   3.514   1.742 -0.7124 -0.0506  0.4409
 2035TIP3    H127596   2.420   3.527   1.742 -0.6837  0.1833  2.6201
 2035TIP3    H227597   2.290   3.594   1.701  0.0287 -0.9417 -2.1162
 2036TIP3   OH227598   6.227   4.767   2.907 -0.0140 -0.2216 -0.4901
 2036TIP3    H127599   6.188   4.756   2.820 -2.3877  1.6985  0.2336
 2036TIP3    H227600   6.159   4.739   2.968  1.6880 -1.7353  0.8012
 2037TIP3   OH227601   0.331   2.453  16.076  0.6673 -0.9100  0.2623
 2037TIP3    H127602   0.364   2.367  16.052  0.0595 -1.0544 -0.0710
 2037TIP3    H227603   0.239   2.453  16.049  1.0670  0.4036 -1.2570
 2038TIP3   OH227604   2.814   5.753   0.874 -0.8645  0.4161  0.4800
 2038TIP3    H127605   2.807   5.828   0.815 -0.4854  1.3766  1.5995
 2038TIP3    H227606   2.867   5.786   0.947 -1.0274 -0.8297  1.1786
 2039TIP3   OH227607   5.752   0.348  11.496  0.4947 -0.3741 -0.1155
 2039TIP3    H127608   5.761   0.434  11.538 -1.7602 -0.5259  0.8356
 2039TIP3    H227609   5.739   0.287  11.568  0.4070 -1.2594 -0.8651
 2040TIP3   OH227610   0.762   1.506   3.145 -0.0271  0.1316  0.3701
 2040TIP3    H127611   0.775   1.594   3.181 -2.3396 -0.5417  3.2729
 2040TIP3    H227612   0.667   1.492   3.152 -0.0131 -1.8033 -2.1306
 2041TIP3   OH227613   1.840   0.741  14.327  0.1665  0.5719  0.1552
 2041TIP3    H127614   1.783   0.817  14.343 -1.8850 -0.8325  0.0075
 2041TIP3    H227615   1.840   0.694  14.410 -0.2625 -0.2832 -0.3101
 2042TIP3   OH227616   0.859   5.709   4.578 -0.5160 -0.2037 -0.1309
 2042TIP3    H127617   0.883   5.785   4.524  1.5819  0.7134  1.9161
 2042TIP3    H227618   0.938   5.655   4.579 -0.5115 -0.2288  1.9000
 2043TIP3   OH227619   0.081   6.202   3.109 -0.0437  0.2029  0.3883
 2043TIP3    H127620  -0.001   6.207   3.060 -0.4515 -1.4347  0.8361
 2043TIP3    H227621   0.149   6.209   3.043 -0.5069  2.2989  0.0822
 2044TIP3   OH227622   5.452   0.827   4.289 -0.0540 -0.4500 -0.5875
 2044TIP3    H127623   5.495   0.839   4.205 -0.9150  0.9595 -0.8544
 2044TIP3    H227624   5.412   0.740   4.283  0.8421 -0.8333 -1.1809
 2045TIP3   OH227625   1.946   3.234   4.963  0.4174  0.3093  0.4597
 2045TIP3    H127626   1.937   3.212   4.870  0.6051 -0.7927  0.6927
 2045TIP3    H227627   1.985   3.321   4.963  1.5262 -0.1533 -0.5142
 2046TIP3   OH227628   4.980   6.424  12.578 -0.4947  0.8053  0.3694
 2046TIP3    H127629   4.941   6.507  12.552  0.2649  0.4556 -2.1410
 2046TIP3    H227630   4.911   6.360  12.564  0.4453  0.3406 -3.0245
 2047TIP3   OH227631   5.123   5.573  12.604 -0.1289 -0.1831  0.1497
 2047TIP3    H127632   5.083   5.625  12.674 -1.7518  0.5948 -1.2672
 2047TIP3    H227633   5.176   5.636  12.555  1.2482 -0.7865  0.8076
 2048TIP3   OH227634   0.421   6.227   1.854 -0.0131  0.3095 -0.0811
 2048TIP3    H127635   0.362   6.302   1.857  0.6895  0.9162 -1.1643
 2048TIP3    H227636   0.477   6.242   1.779  1.2973 -0.4437  0.6972
 2049TIP3   OH227637   3.996   5.710  15.235 -0.2028 -0.2889  0.1156
 2049TIP3    H127638   3.930   5.675  15.175 -1.0655  1.0981  0.2124
 2049TIP3    H227639   4.033   5.632  15.277  1.1855 -1.4302 -2.8866
 2050TIP3   OH227640   1.611   1.627  12.460  0.1863  0.0542 -0.0240
 2050TIP3    H127641   1.520   1.625  12.433  0.2198 -0.5743 -0.1037
 2050TIP3    H227642   1.653   1.559  12.407  0.2486 -1.2515  1.6256
 2051TIP3   OH227643   2.240   6.796   0.983  0.4023  0.2115  0.4743
 2051TIP3    H127644   2.224   6.741   0.906 -3.3442  0.5577  0.8633
 2051TIP3    H227645   2.258   6.733   1.054  1.9365 -0.1783 -0.2133
 2052TIP3   OH227646   6.029   4.894   3.306  0.1785  0.2647 -0.8248
 2052TIP3    H127647   6.048   4.983   3.334 -0.3559  0.0228  0.3808
 2052TIP3    H227648   6.101   4.842   3.340  2.3555  0.6165 -4.3889
 2053TIP3   OH227649   1.098   3.252   3.317 -0.0523 -0.0643 -0.3144
 2053TIP3    H127650   1.135   3.264   3.405  1.1221  0.5510 -0.8690
 2053TIP3    H227651   1.054   3.335   3.299  0.8549  0.3147 -0.8265
 2054TIP3   OH227652   6.584   5.726  12.455  0.5411 -0.1183  0.2004
 2054TIP3    H127653   6.520   5.790  12.488  1.4312  1.0729 -0.3193
 2054TIP3    H227654   6.587   5.658  12.523 -0.4572  0.3563  0.7481
 2055TIP3   OH227655   1.253   5.010  15.427 -0.0070  0.1393 -0.5007
 2055TIP3    H127656   1.207   5.016  15.343  0.8151 -0.7803 -1.0349
 2055TIP3    H227657   1.186   4.982  15.489 -0.4726  0.1470 -0.9940
 2056TIP3   OH227658   4.034   3.015   0.985 -0.1544  0.7568 -0.2351
 2056TIP3    H127659   4.041   2.929   1.026 -2.1277  0.8627  0.3929
 2056TIP3    H227660   4.029   3.077   1.058 -0.0565  1.2857 -0.6693
 2057TIP3   OH227661   2.226   4.170   2.335 -0.0141  0.1042 -0.0189
 2057TIP3    H127662   2.301   4.207   2.381 -0.9686  0.5160  1.2478
 2057TIP3    H227663   2.255   4.082   2.310  1.4975  0.8600 -1.1496
 2058TIP3   OH227664   1.184   5.853   3.476  0.1412 -0.6856  0.0349
 2058TIP3    H127665   1.170   5.945   3.452  1.0153 -0.8396 -1.2012
 2058TIP3    H227666   1.244   5.856   3.550 -1.5149 -0.2264  1.4294
 2059TIP3   OH227667   4.857   0.013   3.169  0.3072 -0.2988 -0.1150
 2059TIP3    H127668   4.777  -0.039   3.179  0.2384 -0.2136 -0.2161
 2059TIP3    H227669   4.861   0.065   3.249 -1.3333  1.8811 -1.3323
 2060TIP3   OH227670   0.834   4.647  11.348 -0.1117 -0.1824  0.1853
 2060TIP3    H127671   0.848   4.693  11.431  1.0268  0.7196 -0.4745
 2060TIP3    H227672   0.747   4.676  11.319 -1.5310 -2.2116  2.0751
 2061TIP3   OH227673   4.273   5.611  11.444 -0.2914  0.3369  0.5516
 2061TIP3    H127674   4.364   5.609  11.414 -1.1949  1.2584 -2.5468
 2061TIP3    H227675   4.266   5.691  11.496  0.2532  1.2776 -0.7844
 2062TIP3   OH227676   0.358   6.134  13.642 -0.3898  0.1499  0.6740
 2062TIP3    H127677   0.317   6.070  13.584 -1.7788  1.1989  0.4426
 2062TIP3    H227678   0.392   6.082  13.715  1.0237 -1.1514 -0.8255
 2063TIP3   OH227679   6.050   2.216   3.291 -0.1804  0.3038 -0.3811
 2063TIP3    H127680   6.056   2.297   3.241 -1.7728  0.2088 -0.7728
 2063TIP3    H227681   5.964   2.220   3.333 -0.4518 -1.3249 -0.6996
 2064TIP3   OH227682   3.588   5.326  10.749 -0.1606  0.6838  0.3215
 2064TIP3    H127683   3.597   5.409  10.702  1.4257 -0.1543 -0.9320
 2064TIP3    H227684   3.591   5.259  10.681 -0.9374 -0.4449  1.3623
 2065TIP3   OH227685   0.676   3.924  12.397 -0.3901  0.4690 -0.1598
 2065TIP3    H127686   0.771   3.928  12.402 -0.2793 -0.9301 -0.7153
 2065TIP3    H227687   0.647   3.916  12.488  0.1349 -0.8264 -0.0906
 2066TIP3   OH227688   5.841   0.839   4.404 -0.2871 -0.4648 -0.2598
 2066TIP3    H127689   5.834   0.776   4.332  1.6465 -0.8910 -0.1093
 2066TIP3    H227690   5.887   0.913   4.367  1.6051 -1.0834  0.7407
 2067TIP3   OH227691   4.326   5.704   1.342 -0.3908 -0.0644  0.2083
 2067TIP3    H127692   4.318   5.634   1.278  0.4254 -0.3649  0.4280
 2067TIP3    H227693   4.404   5.752   1.316 -0.7951  0.6137  0.2148
 2068TIP3   OH227694   4.860   1.721   5.199  0.0174  0.2960 -0.2124
 2068TIP3    H127695   4.838   1.629   5.182 -0.3689  0.3903 -0.2180
 2068TIP3    H227696   4.956   1.723   5.197  0.0048  0.1739 -1.7161
 2069TIP3   OH227697   0.076   1.288  12.228 -0.0837 -0.1554 -0.5856
 2069TIP3    H127698   0.005   1.349  12.243  0.2477 -0.0788  0.8186
 2069TIP3    H227699   0.131   1.330  12.162 -1.6732 -0.5398 -2.2311
 2070TIP3   OH227700   0.875   1.336   2.582 -0.3616  0.0978 -0.1706
 2070TIP3    H127701   0.845   1.262   2.635 -2.4879  0.6721 -0.4705
 2070TIP3    H227702   0.895   1.405   2.646  0.3931 -0.2990  0.0343
 2071TIP3   OH227703   3.260   1.374   2.331  0.5607  0.6814 -0.1970
 2071TIP3    H127704   3.195   1.441   2.308  1.3715  1.8379  0.7312
 2071TIP3    H227705   3.217   1.291   2.312 -1.8966  1.3177  2.0159
 2072TIP3   OH227706   1.734   1.716   4.370 -0.4445 -0.3854 -0.1776
 2072TIP3    H127707   1.686   1.797   4.355  0.9230  0.5226  0.2145
 2072TIP3    H227708   1.714   1.694   4.461 -0.3342 -0.1648 -0.1001
 2073TIP3   OH227709   6.165   5.875  12.315  0.3041 -0.4944  0.3785
 2073TIP3    H127710   6.103   5.803  12.304 -0.1056  0.0485 -0.9927
 2073TIP3    H227711   6.207   5.884  12.230 -1.4679  2.5046 -0.3501
 2074TIP3   OH227712   1.923   0.043   1.979  0.2597  0.4351  0.3168
 2074TIP3    H127713   1.828   0.035   1.969  0.3362 -1.5339  0.7595
 2074TIP3    H227714   1.957  -0.038   1.940  1.6629  0.5001  1.3609
 2075TIP3   OH227715   4.364   0.637   4.658 -0.7189  0.3150  0.3362
 2075TIP3    H127716   4.385   0.669   4.746  1.6555  1.1152 -0.4551
 2075TIP3    H227717   4.414   0.557   4.648 -2.3232 -0.7294  0.2765
 2076TIP3   OH227718   5.130   0.289  11.587 -0.6014  0.3429  0.5564
 2076TIP3    H127719   5.196   0.229  11.552 -1.8366 -0.9795  0.4215
 2076TIP3    H227720   5.139   0.368  11.534 -0.7203 -0.6952 -1.0720
 2077TIP3   OH227721   5.249   6.246   6.227 -0.1235 -0.4592  0.2038
 2077TIP3    H127722   5.165   6.237   6.183  0.9410  0.8212 -2.2863
 2077TIP3    H227723   5.246   6.333   6.268 -0.2130 -0.6571  0.6258
 2078TIP3   OH227724   3.459   1.040   1.381 -0.2076 -0.0162  0.0796
 2078TIP3    H127725   3.469   1.129   1.415 -0.7177 -0.2844  0.9532
 2078TIP3    H227726   3.496   0.984   1.449  0.3723 -0.4698 -0.5933
 2079TIP3   OH227727   4.293   4.274  15.444  0.0419 -0.1055  0.1201
 2079TIP3    H127728   4.376   4.234  15.469 -0.5180 -0.3272  1.7574
 2079TIP3    H227729   4.307   4.305  15.355  0.6290 -3.6754 -1.1933
 2080TIP3   OH227730   3.223   0.404   4.050 -0.0792  0.1238  0.3057
 2080TIP3    H127731   3.171   0.325   4.043 -1.2379  0.9014 -0.1888
 2080TIP3    H227732   3.241   0.413   4.144  1.2536 -1.4277  0.2413
 2081TIP3   OH227733   4.960   2.272  12.429  0.1110 -0.2261 -0.0973
 2081TIP3    H127734   4.879   2.222  12.417  0.2372 -0.3895 -0.2854
 2081TIP3    H227735   5.030   2.208  12.411  0.2704  0.4912 -2.3541
 2082TIP3   OH227736   0.394   5.119  13.088 -0.2595  0.0955  0.4177
 2082TIP3    H127737   0.373   5.187  13.023  0.5435 -0.7565 -0.7824
 2082TIP3    H227738   0.481   5.140  13.119  0.1666 -0.5946 -0.2711
 2083TIP3   OH227739   5.323   3.219   2.045  0.1856  0.7918 -0.6514
 2083TIP3    H127740   5.266   3.224   1.969  0.5941 -0.2835 -1.0470
 2083TIP3    H227741   5.390   3.156   2.021 -0.2065 -0.2924  0.9417
 2084TIP3   OH227742   1.566   6.781   1.447 -0.3592 -0.1920 -0.0948
 2084TIP3    H127743   1.544   6.782   1.354  0.2196  3.2356 -0.3341
 2084TIP3    H227744   1.497   6.728   1.487 -0.0386 -2.7061 -2.4885
 2085TIP3   OH227745   6.479   2.538   1.204  0.0454  1.0277 -0.3278
 2085TIP3    H127746   6.469   2.574   1.292 -2.4626  1.8596 -0.8728
 2085TIP3    H227747   6.476   2.614   1.146  1.1203  0.4415 -1.1996
 2086TIP3   OH227748   5.653   5.764  13.424  0.0590 -0.2261 -0.4969
 2086TIP3    H127749   5.730   5.716  13.453 -0.1670 -0.8159 -0.8481
 2086TIP3    H227750   5.684   5.854  13.410  0.3745 -0.1382  0.6508
 2087TIP3   OH227751   4.879   6.477  15.248  0.0368 -0.7555  0.3157
 2087TIP3    H127752   4.943   6.454  15.181  0.0720  0.1446  0.0295
 2087TIP3    H227753   4.796   6.444  15.214  0.1862 -1.0258  0.2116
 2088TIP3   OH227754   4.353   1.154  12.620  0.2760  0.4218 -0.6359
 2088TIP3    H127755   4.431   1.146  12.566  0.3261  1.7054 -0.8008
 2088TIP3    H227756   4.368   1.094  12.693  1.8012  1.2328 -0.2351
 2089TIP3   OH227757   1.145   5.325  15.447  0.7192  0.3454  0.1161
 2089TIP3    H127758   1.182   5.401  15.492  2.0788  0.9117 -1.7930
 2089TIP3    H227759   1.167   5.340  15.354 -0.9740 -1.2677 -0.5987
 2090TIP3   OH227760   1.999   0.586   3.314 -0.0497 -0.3258 -0.0098
 2090TIP3    H127761   2.011   0.557   3.405  1.6597 -0.5247 -0.2649
 2090TIP3    H227762   1.944   0.518   3.275 -0.9958 -0.1199  0.9230
 2091TIP3   OH227763   3.992   1.473  17.046  0.0953 -1.3996 -0.5988
 2091TIP3    H127764   3.937   1.497  16.972  0.0206 -1.4723 -0.5671
 2091TIP3    H227765   4.079   1.506  17.023  0.4731 -2.9815 -1.5058
 2092TIP3   OH227766   4.380   0.485  11.949 -0.4461 -0.1111  0.1978
 2092TIP3    H127767   4.290   0.509  11.928 -0.5310 -0.6613 -0.0745
 2092TIP3    H227768   4.419   0.463  11.865 -0.3505 -0.8492  0.4291
 2093TIP3   OH227769   4.824   3.657   5.169  0.2379  0.7003  0.6120
 2093TIP3    H127770   4.774   3.676   5.248 -2.0177  1.2784 -0.8572
 2093TIP3    H227771   4.760   3.621   5.108  1.5797  1.5215 -1.4045
 2094TIP3   OH227772   4.909   6.753   1.609  0.6766 -0.9152 -0.2234
 2094TIP3    H127773   4.971   6.823   1.629  0.6682 -1.2614  1.1286
 2094TIP3    H227774   4.961   6.673   1.612  0.2727 -1.1603  0.3854
 2095TIP3   OH227775   3.819   2.947  12.659 -0.1978 -0.5601 -0.6503
 2095TIP3    H127776   3.829   3.041  12.643 -2.0246 -0.5402 -1.9957
 2095TIP3    H227777   3.882   2.906  12.600  0.3428 -0.2018 -0.3285
 2096TIP3   OH227778   6.717   4.540   3.782 -0.1542  0.2498 -0.0909
 2096TIP3    H127779   6.623   4.523   3.789  0.1006 -1.2345  0.0179
 2096TIP3    H227780   6.733   4.611   3.844 -1.1226  0.1892  0.2468
 2097TIP3   OH227781   0.840   0.392   4.076 -0.5454  0.0812  0.0168
 2097TIP3    H127782   0.783   0.347   4.138 -1.8192  1.7941  0.1856
 2097TIP3    H227783   0.785   0.404   3.998  0.1942  0.1885 -0.5037
 2098TIP3   OH227784   0.659   5.848  13.654 -0.6543  0.0668 -0.5839
 2098TIP3    H127785   0.586   5.857  13.593 -2.0445  0.9272  1.1056
 2098TIP3    H227786   0.623   5.874  13.739  1.0218 -1.5947  0.7474
 2099TIP3   OH227787   5.050   5.153   5.546  0.9351 -0.4507 -0.5099
 2099TIP3    H127788   5.120   5.092   5.568  3.3215  3.0970  3.1924
 2099TIP3    H227789   4.999   5.161   5.627  0.1846  1.7693 -1.1277
 2100TIP3   OH227790   3.972   6.513   1.173  0.6051  0.2568 -0.9109
 2100TIP3    H127791   4.008   6.597   1.146 -1.6026  0.8266 -2.3243
 2100TIP3    H227792   3.877   6.524   1.166  0.1459 -1.6414  1.1280
 2101TIP3   OH227793   0.150   2.073   4.486 -0.5688  0.1814  0.2267
 2101TIP3    H127794   0.188   2.061   4.399  2.1030  0.7704  1.2005
 2101TIP3    H227795   0.060   2.041   4.478  0.2926 -2.0348 -2.1343
 2102TIP3   OH227796   5.765   4.573  11.696 -0.6568  0.5833 -0.0377
 2102TIP3    H127797   5.812   4.655  11.709  2.9482 -1.2048 -0.6086
 2102TIP3    H227798   5.750   4.569  11.602  0.8373 -0.1587 -0.2740
 2103TIP3   OH227799   6.522   0.399  11.278  0.0512  0.2293 -0.2943
 2103TIP3    H127800   6.592   0.337  11.258  0.4607  0.3495  0.6988
 2103TIP3    H227801   6.562   0.463  11.338 -0.9283  0.2197  0.4037
 2104TIP3   OH227802   3.154   4.945  15.174 -0.3901  0.6868 -0.1696
 2104TIP3    H127803   3.086   5.013  15.173 -0.9802  0.1369  0.7805
 2104TIP3    H227804   3.207   4.966  15.252 -0.3303  0.2985 -0.1050
 2105TIP3   OH227805   2.918   5.243   3.786 -0.1356  0.0447 -0.3112
 2105TIP3    H127806   2.955   5.320   3.744  0.9213  0.5442  1.4583
 2105TIP3    H227807   2.828   5.268   3.808  0.5233  1.2024  1.2245
 2106TIP3   OH227808   1.097   2.653   2.324  0.2467  0.1537  0.1381
 2106TIP3    H127809   1.060   2.570   2.292 -1.5593  0.9904 -0.0861
 2106TIP3    H227810   1.085   2.650   2.419  0.1093  0.1961  0.1219
 2107TIP3   OH227811   1.994   4.878   5.303  0.0241  0.5556  0.2173
 2107TIP3    H127812   1.981   4.856   5.210 -0.1235 -0.2411  0.4253
 2107TIP3    H227813   1.934   4.951   5.318 -0.8839 -0.1368  0.0081
 2108TIP3   OH227814   2.902   5.270  14.020  0.5569  0.0917 -0.0003
 2108TIP3    H127815   2.897   5.239  13.929  0.3586  1.4228 -0.4692
 2108TIP3    H227816   2.815   5.253  14.056  0.4586  0.0821 -0.2394
 2109TIP3   OH227817   2.262   2.047   4.166 -0.1445  0.3103  0.1666
 2109TIP3    H127818   2.169   2.067   4.179 -0.1757  0.3390 -0.0850
 2109TIP3    H227819   2.270   2.034   4.071 -0.1048 -0.7583  0.3042
 2110TIP3   OH227820   4.632   0.984   4.687 -0.0953  0.4650 -0.0849
 2110TIP3    H127821   4.580   0.943   4.617 -0.7851  2.3860 -0.7651
 2110TIP3    H227822   4.698   0.918   4.709 -1.1626 -1.0181 -1.0607
 2111TIP3   OH227823   4.618   2.468  15.626 -0.2495  0.3407 -0.3294
 2111TIP3    H127824   4.642   2.536  15.689  2.5474  1.1043 -2.0305
 2111TIP3    H227825   4.571   2.515  15.557 -1.3107 -0.0903  0.0851
 2112TIP3   OH227826   0.428   1.338   5.673 -0.4318  0.4345  0.0028
 2112TIP3    H127827   0.426   1.395   5.596 -0.2501  0.0579 -0.2833
 2112TIP3    H227828   0.441   1.398   5.747 -0.2612  0.7649 -0.2926
 2113TIP3   OH227829   0.938   4.121   2.209 -0.1732  0.1337 -0.5478
 2113TIP3    H127830   1.025   4.095   2.178  0.2687  0.5516  0.3085
 2113TIP3    H227831   0.931   4.082   2.296 -0.6362  0.5438 -0.3958
 2114TIP3   OH227832   3.849   1.683  14.918 -0.8239 -0.0224 -0.4903
 2114TIP3    H127833   3.891   1.600  14.893  0.2378  1.0753 -2.5698
 2114TIP3    H227834   3.796   1.707  14.843 -0.4972  1.5712 -0.2404
 2115TIP3   OH227835   2.357   0.216   4.871 -0.0551 -0.0428 -0.2339
 2115TIP3    H127836   2.382   0.304   4.901 -1.4193 -0.1258  1.2727
 2115TIP3    H227837   2.319   0.230   4.785  2.0092  0.4961 -1.1226
 2116TIP3   OH227838   5.210   0.361  17.035  0.6005  0.1415 -0.3652
 2116TIP3    H127839   5.266   0.366  17.113  1.4956  1.2591 -1.0431
 2116TIP3    H227840   5.121   0.367  17.069  0.9622  0.3598  0.5924
 2117TIP3   OH227841   1.430   5.142   0.604  0.0640  0.4080  0.3110
 2117TIP3    H127842   1.347   5.103   0.633  0.3180  1.0955  2.0937
 2117TIP3    H227843   1.473   5.073   0.554 -0.8198 -0.5761  0.8691
 2118TIP3   OH227844   4.079   5.806   1.262  0.2182  0.4160 -0.4621
 2118TIP3    H127845   4.173   5.795   1.279 -0.0393  0.8502  1.4359
 2118TIP3    H227846   4.037   5.781   1.345 -1.2514  1.6166 -0.8166
 2119TIP3   OH227847   1.592   0.170   6.363 -0.5610  0.2491 -0.3049
 2119TIP3    H127848   1.668   0.227   6.351 -0.5654  0.6460  1.2878
 2119TIP3    H227849   1.630   0.082   6.374 -0.4446  0.1969 -1.0829
 2120TIP3   OH227850   6.267   0.719   2.275  0.0726 -0.1162 -0.5187
 2120TIP3    H127851   6.241   0.803   2.237  0.5902  0.8396  1.1497
 2120TIP3    H227852   6.357   0.706   2.243  0.0496  0.0415 -0.6513
 2121TIP3   OH227853   2.794   6.166  13.666  0.3075 -0.2141 -0.0716
 2121TIP3    H127854   2.832   6.097  13.610  0.9946  0.6933 -0.7532
 2121TIP3    H227855   2.752   6.118  13.737 -0.5151 -1.4133 -1.3026
 2122TIP3   OH227856   3.671   2.214   4.818  0.9793  0.0058  0.2278
 2122TIP3    H127857   3.641   2.134   4.860 -0.3607 -0.1127 -0.8708
 2122TIP3    H227858   3.701   2.269   4.890  0.5116 -0.8914  1.1408
 2123TIP3   OH227859   4.419   1.472  12.491 -0.1358 -0.3278 -0.6067
 2123TIP3    H127860   4.367   1.549  12.515 -0.3823 -0.9736  1.0383
 2123TIP3    H227861   4.381   1.443  12.407 -1.5358  0.0160 -0.1224
 2124TIP3   OH227862   5.943   0.339  13.022 -0.3674 -0.0940 -0.0747
 2124TIP3    H127863   5.857   0.347  13.063 -0.0339 -1.9336  1.0938
 2124TIP3    H227864   5.943   0.407  12.955 -3.1080 -0.6316 -0.7788
 2125TIP3   OH227865   3.566   4.148  13.327 -0.5794  0.1498 -0.5624
 2125TIP3    H127866   3.474   4.156  13.301 -0.5782  0.5915 -0.4368
 2125TIP3    H227867   3.610   4.119  13.247 -0.9475 -0.8610 -0.4145
 2126TIP3   OH227868   4.526   1.674   3.472  0.2300  0.6530 -0.4424
 2126TIP3    H127869   4.569   1.724   3.541 -1.9166  3.0473 -0.7003
 2126TIP3    H227870   4.569   1.704   3.391  0.2111  0.6407 -0.4571
 2127TIP3   OH227871   3.524   5.339  15.966 -0.5458  0.3663 -0.5948
 2127TIP3    H127872   3.471   5.405  16.011  0.3159  0.6680  0.0156
 2127TIP3    H227873   3.614   5.361  15.990 -0.1856 -0.4936 -1.1157
 2128TIP3   OH227874   6.432   1.967   3.449 -0.1813 -0.8233 -0.2107
 2128TIP3    H127875   6.359   1.909   3.428  1.0181 -2.0309 -1.2528
 2128TIP3    H227876   6.465   1.995   3.364  1.2257 -1.1738  0.1977
 2129TIP3   OH227877   1.824   4.636  10.961  0.4835 -0.6529  0.0160
 2129TIP3    H127878   1.773   4.698  10.908  0.1550 -1.3094 -0.4425
 2129TIP3    H227879   1.914   4.650  10.933  0.5354  0.3168  0.6315
 2130TIP3   OH227880   1.643   1.500   2.401  0.3201  0.1051  0.5005
 2130TIP3    H127881   1.630   1.455   2.317 -0.1893 -0.1552  0.7157
 2130TIP3    H227882   1.738   1.512   2.407  0.2850  1.4502 -0.8013
 2131TIP3   OH227883   1.817   0.661  13.804  0.2720  0.1160 -0.2952
 2131TIP3    H127884   1.882   0.598  13.774 -0.4156 -1.2019  0.8906
 2131TIP3    H227885   1.826   0.735  13.744  2.9585  0.0617 -0.0699
 2132TIP3   OH227886   1.518   3.876   1.757  0.1834 -0.1900  0.2784
 2132TIP3    H127887   1.448   3.810   1.747 -1.7861  2.0934 -3.5966
 2132TIP3    H227888   1.599   3.825   1.757 -1.3190 -2.7599  0.0641
 2133TIP3   OH227889   3.970   6.726   0.682  0.0471  0.4024  0.1572
 2133TIP3    H127890   3.936   6.752   0.768 -0.4265 -0.3978  0.2236
 2133TIP3    H227891   4.007   6.807   0.645  0.4476  0.7070  1.1947
 2134TIP3   OH227892   2.055   5.464   2.142 -0.3047 -0.2002 -0.0138
 2134TIP3    H127893   1.991   5.392   2.141 -0.9309  0.3294  0.7334
 2134TIP3    H227894   2.030   5.518   2.217  0.8417  0.1935  0.1108
 2135TIP3   OH227895   1.336   5.695   0.032  0.3330  0.2560 -0.5564
 2135TIP3    H127896   1.424   5.668   0.059 -0.2366 -0.1969  0.9399
 2135TIP3    H227897   1.340   5.790   0.028  1.0962  0.2053 -1.2926
 2136TIP3   OH227898   4.527   0.537   2.722  0.0669 -0.1260 -1.0009
 2136TIP3    H127899   4.604   0.490   2.754 -1.0142 -1.7658 -0.6662
 2136TIP3    H227900   4.480   0.473   2.670 -0.8092  1.0079 -1.6399
 2137TIP3   OH227901   6.634   5.491   2.176  0.5173  0.2761  0.2486
 2137TIP3    H127902   6.719   5.449   2.160 -0.0558 -0.7664 -0.1236
 2137TIP3    H227903   6.571   5.436   2.129 -0.8445 -0.9449  3.2578
 2138TIP3   OH227904   3.564   6.147   1.232 -0.1944  0.5748 -0.6133
 2138TIP3    H127905   3.590   6.079   1.293 -0.5954  0.6043 -0.4061
 2138TIP3    H227906   3.615   6.130   1.153 -1.3225 -0.8219 -1.0815
 2139TIP3   OH227907   6.478   4.958   5.956  0.2781 -0.3339 -0.0061
 2139TIP3    H127908   6.568   4.980   5.980  0.5386 -1.9189  0.6338
 2139TIP3    H227909   6.424   5.006   6.018  0.7690 -0.6521  0.6867
 2140TIP3   OH227910   0.529   6.012   4.946  0.0597 -0.4522 -0.2286
 2140TIP3    H127911   0.471   6.016   5.022  0.5395 -0.6329  0.1576
 2140TIP3    H227912   0.484   6.063   4.879 -0.1528  0.1154  0.3288
 2141TIP3   OH227913   4.285   0.083  16.831 -0.0687  0.0781  0.2778
 2141TIP3    H127914   4.209   0.140  16.842  0.2907  0.6730 -0.2595
 2141TIP3    H227915   4.336   0.095  16.910 -1.1598 -1.3155  1.2432
 2142TIP3   OH227916   2.150   0.399   3.430  0.0146  0.1313 -0.1608
 2142TIP3    H127917   2.228   0.367   3.386  1.0216 -0.3561  1.8723
 2142TIP3    H227918   2.081   0.337   3.404  1.0045 -1.2551  0.3964
 2143TIP3   OH227919   0.732   5.761  15.240 -0.2544 -0.4828 -0.0577
 2143TIP3    H127920   0.766   5.846  15.213 -0.2956 -0.6986 -0.8044
 2143TIP3    H227921   0.788   5.734  15.313  0.6967 -0.4958 -0.7831
 2144TIP3   OH227922   6.035   3.932  11.816  0.5041 -0.2871 -0.0527
 2144TIP3    H127923   6.023   3.848  11.773 -1.0512  0.3591 -0.9670
 2144TIP3    H227924   5.956   3.943  11.870  1.0095  0.2885  0.6005
 2145TIP3   OH227925   5.410   5.487  12.611  0.3674  0.5296 -0.0764
 2145TIP3    H127926   5.382   5.525  12.527  1.8246  0.6221 -0.5521
 2145TIP3    H227927   5.420   5.394  12.592  1.8617  0.7274 -0.3570
 2146TIP3   OH227928   6.075   5.108  11.605  0.0938 -0.3096  0.2901
 2146TIP3    H127929   6.027   5.033  11.569  1.7868 -0.5916 -1.5243
 2146TIP3    H227930   6.123   5.071  11.680  1.6382 -1.3320 -1.1413
 2147TIP3   OH227931   4.896   6.267   1.698 -0.4054 -0.3165 -0.6188
 2147TIP3    H127932   4.857   6.338   1.748  0.8325 -0.8754  1.2481
 2147TIP3    H227933   4.945   6.216   1.763  0.0436 -1.9570 -2.1667
 2148TIP3   OH227934   0.316   0.906   5.336 -0.3009 -0.0949 -0.5695
 2148TIP3    H127935   0.362   0.968   5.392  1.0480 -0.7217 -0.9440
 2148TIP3    H227936   0.341   0.931   5.247  0.3094 -1.1721 -0.7260
 2149TIP3   OH227937   2.460   4.552  13.328  0.1123 -0.1007  0.2714
 2149TIP3    H127938   2.463   4.460  13.305  0.1449 -0.0547  0.0960
 2149TIP3    H227939   2.367   4.576  13.318  0.1344 -0.0689  0.1444
 2150TIP3   OH227940   1.419   1.482  16.230  0.0346  0.4798  0.1356
 2150TIP3    H127941   1.445   1.573  16.245 -0.0151  0.3187  1.2308
 2150TIP3    H227942   1.480   1.451  16.163  0.7915  0.9711  0.5884
 2151TIP3   OH227943   5.626   0.825   4.065  0.0832 -0.2210  0.0620
 2151TIP3    H127944   5.625   0.895   3.999  0.6224  1.2489  1.5376
 2151TIP3    H227945   5.646   0.746   4.016 -2.2774  0.3064 -1.9740
 2152TIP3   OH227946   5.753   2.227   6.802  0.0778  0.3571  0.3578
 2152TIP3    H127947   5.826   2.190   6.753  0.8637 -0.4020  2.0114
 2152TIP3    H227948   5.730   2.307   6.755 -0.1229 -0.9918 -1.9837
 2153TIP3   OH227949   2.501   4.641   2.643  0.2938 -0.4060  0.4648
 2153TIP3    H127950   2.460   4.555   2.637 -1.8246  0.6298 -4.2042
 2153TIP3    H227951   2.428   4.700   2.663  1.7707  0.4786  4.0123
 2154TIP3   OH227952   1.523   4.804  15.142  0.3954  0.1040 -0.8764
 2154TIP3    H127953   1.600   4.749  15.126 -0.3903 -0.8869 -1.3870
 2154TIP3    H227954   1.515   4.807  15.237  2.5269  2.3477 -0.6908
 2155TIP3   OH227955   6.317   1.880  12.086  0.0330 -0.2128  0.0601
 2155TIP3    H127956   6.322   1.936  12.009  0.6216  1.9390  1.5754
 2155TIP3    H227957   6.315   1.791  12.051 -1.9085  0.7290 -2.4776
 2156TIP3   OH227958   1.471   2.091  15.237  0.6733  0.1069  0.0095
 2156TIP3    H127959   1.493   2.180  15.264  1.6016  0.4939 -1.8732
 2156TIP3    H227960   1.403   2.063  15.299  0.2189  2.1935  0.5173
 2157TIP3   OH227961   5.362   3.921  12.939 -0.6839 -0.2044 -0.2799
 2157TIP3    H127962   5.409   3.840  12.919  0.3423  0.8024 -2.1544
 2157TIP3    H227963   5.406   3.955  13.017  1.1274  0.2084 -1.4179
 2158TIP3   OH227964   0.967   6.725  15.553  0.0151  0.3738  0.8640
 2158TIP3    H127965   0.919   6.643  15.540  0.6121 -0.1235  1.6797
 2158TIP3    H227966   0.920   6.769  15.624  0.6935 -0.0937  1.6328
 2159TIP3   OH227967   1.124   0.730  12.071 -0.0615 -0.2040  0.0041
 2159TIP3    H127968   1.158   0.819  12.076 -0.7636  0.0271  3.0162
 2159TIP3    H227969   1.200   0.676  12.050  0.7119  0.9487 -0.2236
 2160TIP3   OH227970   2.276   1.712  12.809  0.1465 -0.1722 -0.0670
 2160TIP3    H127971   2.362   1.670  12.811 -0.2501 -1.0004 -0.0950
 2160TIP3    H227972   2.289   1.796  12.854  0.8779 -0.4538  0.2575
 2161TIP3   OH227973   0.638   1.773   1.007  0.0138 -0.4245 -0.0541
 2161TIP3    H127974   0.612   1.785   1.098  0.4134 -0.9967  0.1387
 2161TIP3    H227975   0.701   1.844   0.991  1.2346 -1.3160  0.6355
 2162TIP3   OH227976   5.784   3.930  16.865 -0.0630  0.2964  0.3968
 2162TIP3    H127977   5.869   3.911  16.826 -0.0829  1.0382 -0.0255
 2162TIP3    H227978   5.805   3.986  16.941 -0.0481 -0.8864  1.2877
 2163TIP3   OH227979   6.820   6.003   4.139  0.0280  0.5119  0.1577
 2163TIP3    H127980   6.778   6.067   4.197  0.9269  0.8037  0.5146
 2163TIP3    H227981   6.841   5.929   4.196  0.2427  0.4872  0.0488
 2164TIP3   OH227982   5.531   4.669   0.001 -0.4080 -0.3557 -0.1984
 2164TIP3    H127983   5.574   4.732  -0.057  1.4484 -1.6028 -0.2609
 2164TIP3    H227984   5.459   4.634  -0.051 -1.4929  1.6915 -0.1452
 2165TIP3   OH227985   6.076   0.156  13.441  0.4014  0.4621 -0.0658
 2165TIP3    H127986   5.995   0.172  13.489 -0.6671  1.2909 -2.0533
 2165TIP3    H227987   6.130   0.232  13.461  0.4131  0.2744  0.6609
 2166TIP3   OH227988   2.806   4.352   0.631 -0.5287 -0.7278  1.0505
 2166TIP3    H127989   2.807   4.306   0.715 -0.1495 -2.7471 -0.0060
 2166TIP3    H227990   2.743   4.303   0.578 -1.5507  1.1412  0.4544
 2167TIP3   OH227991   3.608   1.819   3.074 -0.2313 -0.4433  0.3037
 2167TIP3    H127992   3.558   1.777   3.004 -0.0912  2.0424 -1.4001
 2167TIP3    H227993   3.541   1.851   3.135 -0.7564  1.5407 -1.1994
 2168TIP3   OH227994   0.522   3.067   0.740  0.0262  0.4426 -0.2613
 2168TIP3    H127995   0.447   3.051   0.682  0.4727  0.5503 -0.8802
 2168TIP3    H227996   0.513   3.159   0.766  0.5638  0.7879 -1.2552
 2169TIP3   OH227997   4.162   1.262  15.902  0.2377  0.1499  0.0291
 2169TIP3    H127998   4.182   1.275  15.994  1.0263 -1.1720  0.0682
 2169TIP3    H227999   4.155   1.351  15.866  2.6753  0.7118  0.7823
 2170TIP3   OH228000   4.363   2.300   3.471  0.2628 -0.7162  0.0647
 2170TIP3    H128001   4.377   2.205   3.476 -1.2115 -1.0984 -1.9595
 2170TIP3    H228002   4.441   2.333   3.426  0.5766 -1.0302  0.3749
 2171TIP3   OH228003   5.643   2.896   0.335 -0.0058 -0.3065  0.5554
 2171TIP3    H128004   5.579   2.833   0.368 -2.7546  0.8619 -2.1459
 2171TIP3    H228005   5.610   2.981   0.364  1.2503  0.2606  0.4151
 2172TIP3   OH228006   0.567   0.892   1.554 -0.2342 -0.2489  0.2932
 2172TIP3    H128007   0.622   0.970   1.560  0.3054 -0.4047 -1.8963
 2172TIP3    H228008   0.587   0.843   1.634 -0.0775  1.5002  1.3818
 2173TIP3   OH228009   2.104   3.400  16.694  0.5324 -0.3887  0.6025
 2173TIP3    H128010   2.056   3.455  16.757  1.4320  0.7428  0.3314
 2173TIP3    H228011   2.116   3.317  16.739  0.3249  0.0878  1.5628
 2174TIP3   OH228012   3.915   3.490   1.311  0.3930 -0.6827 -0.0987
 2174TIP3    H128013   3.823   3.493   1.286  0.2412  1.0206  0.5166
 2174TIP3    H228014   3.961   3.460   1.233 -0.5440 -0.0830 -0.9044
 2175TIP3   OH228015   2.222   5.059   3.089 -0.5163  0.2646 -0.6024
 2175TIP3    H128016   2.294   5.050   3.027 -0.2727  1.6607 -0.5476
 2175TIP3    H228017   2.152   5.004   3.053  0.2370 -0.3465 -1.1563
 2176TIP3   OH228018   3.421   6.786   5.176  0.2656  0.4440  0.2379
 2176TIP3    H128019   3.400   6.724   5.106 -0.1779 -0.5697  1.2551
 2176TIP3    H228020   3.472   6.735   5.239 -0.4159  1.0145  1.2639
 2177TIP3   OH228021   1.982   0.193  15.605 -0.1493  0.0372  0.5614
 2177TIP3    H128022   2.070   0.211  15.638 -0.0344  1.0342 -0.2287
 2177TIP3    H228023   1.928   0.185  15.683  0.7442 -1.2339  1.0765
 2178TIP3   OH228024   1.889   5.565   3.615  0.1091 -0.5919 -0.3474
 2178TIP3    H128025   1.882   5.490   3.557 -0.6525 -2.3821  1.8951
 2178TIP3    H228026   1.823   5.626   3.583 -2.4906 -2.8401  0.3089
 2179TIP3   OH228027   6.164   5.768   0.568  0.8200 -0.3530  1.0514
 2179TIP3    H128028   6.233   5.768   0.502  0.1497  0.5932  0.3187
 2179TIP3    H228029   6.144   5.675   0.583  0.5635 -0.5756 -0.5437
 2180TIP3   OH228030   1.105   2.740  13.738  0.4121 -0.0613  0.4413
 2180TIP3    H128031   1.063   2.811  13.786  0.2473  0.1988 -0.0845
 2180TIP3    H228032   1.034   2.679  13.716 -0.1116  1.3242 -2.1605
 2181TIP3   OH228033   0.074   1.498   4.318 -0.0822  0.2234  0.1128
 2181TIP3    H128034   0.054   1.547   4.398 -0.8827 -0.7672  0.5435
 2181TIP3    H228035   0.014   1.534   4.252  0.2391  0.7023  0.0730
 2182TIP3   OH228036   5.849   0.338  14.077 -0.5079 -0.0999  0.2940
 2182TIP3    H128037   5.885   0.416  14.120 -0.1384 -0.1648  0.1084
 2182TIP3    H228038   5.926   0.293  14.042 -0.5163 -1.5089  1.9510
 2183TIP3   OH228039   2.760   6.720  16.616 -0.0182  0.0485  0.0198
 2183TIP3    H128040   2.676   6.675  16.608  0.5831 -1.1087 -0.0931
 2183TIP3    H228041   2.746   6.786  16.685 -0.9719 -0.2177  0.0936
 2184TIP3   OH228042   1.805   2.306   1.698  0.0293  0.2183 -0.1026
 2184TIP3    H128043   1.717   2.343   1.689  1.2513  3.4550  0.2890
 2184TIP3    H228044   1.842   2.348   1.776  2.3143 -0.1985 -0.8807
 2185TIP3   OH228045   6.792   2.816   1.659  0.1563  0.7109  0.2126
 2185TIP3    H128046   6.842   2.889   1.695  1.6605  0.1316 -0.5922
 2185TIP3    H228047   6.768   2.763   1.735  1.7068  0.4519  0.5427
 2186TIP3   OH228048   2.358   6.178   0.974  0.0723 -0.2308  0.2388
 2186TIP3    H128049   2.317   6.146   1.054  0.6963  1.3637  1.2432
 2186TIP3    H228050   2.422   6.243   1.003  0.1500  0.5834 -1.5694
 2187TIP3   OH228051   0.544   3.901   0.089  0.6307 -0.5946 -0.2552
 2187TIP3    H128052   0.524   3.960   0.017  1.5246 -3.6507 -3.2237
 2187TIP3    H228053   0.632   3.925   0.117  0.4743  0.2752 -0.4762
 2188TIP3   OH228054   3.831   4.504   0.951 -0.2330 -0.3257 -0.5199
 2188TIP3    H128055   3.864   4.452   0.877 -1.1515 -0.5202 -0.7974
 2188TIP3    H228056   3.799   4.439   1.014 -0.9453 -0.1134 -0.6583
 2189TIP3   OH228057   2.211   4.567   5.934 -0.1180  0.0530  0.2679
 2189TIP3    H128058   2.131   4.515   5.933 -1.1613  1.5928  1.1678
 2189TIP3    H228059   2.217   4.600   6.023  0.1052  2.0824 -0.4616
 2190TIP3   OH228060   1.783   3.011   0.422  0.2457  0.3892  0.2083
 2190TIP3    H128061   1.808   2.924   0.453 -1.2766  0.1381  0.7811
 2190TIP3    H228062   1.813   3.013   0.331 -0.7173 -1.1747 -0.1806
 2191TIP3   OH228063   0.358   2.342  15.117 -0.2639 -0.7374 -0.0934
 2191TIP3    H128064   0.355   2.421  15.172 -1.9495 -0.1252 -0.9672
 2191TIP3    H228065   0.441   2.300  15.139  0.0599  0.5740  1.3813
 2192TIP3   OH228066   4.477   1.604   5.150  0.0684 -0.6654  0.0244
 2192TIP3    H128067   4.485   1.589   5.244  1.7252 -0.7174 -0.0988
 2192TIP3    H228068   4.401   1.662   5.142  0.6148  0.3341  1.5137
 2193TIP3   OH228069   0.761   2.903  14.637  0.1103  0.0187 -0.0559
 2193TIP3    H128070   0.799   2.991  14.642 -0.7531  0.3359  1.4653
 2193TIP3    H228071   0.834   2.844  14.655  0.3013  0.5353  0.9360
 2194TIP3   OH228072   1.436   3.450  15.507  0.7175  0.1251 -0.2299
 2194TIP3    H128073   1.418   3.375  15.450 -0.1205 -0.6762  1.0453
 2194TIP3    H228074   1.532   3.460  15.503  0.6018  1.1859 -3.0607
 2195TIP3   OH228075   5.622   4.467  12.724  0.1341  0.6768 -0.1442
 2195TIP3    H128076   5.609   4.473  12.819 -1.2707  0.3223 -0.2887
 2195TIP3    H228077   5.610   4.556  12.692  0.6969  0.8132  0.0097
 2196TIP3   OH228078   0.399   6.211   0.135  0.4391 -0.5157  0.0153
 2196TIP3    H128079   0.336   6.267   0.181  1.5815  1.6959 -0.9666
 2196TIP3    H228080   0.351   6.177   0.060  0.5457  1.7213 -1.1153
 2197TIP3   OH228081   4.059   2.737   5.491  0.0731  0.0411 -0.1416
 2197TIP3    H128082   4.043   2.759   5.399  1.0285  0.4091 -0.2279
 2197TIP3    H228083   4.115   2.808   5.523  0.5869 -0.6236  0.4509
 2198TIP3   OH228084   0.509   3.835   3.638 -0.3172 -0.2836 -0.4862
 2198TIP3    H128085   0.469   3.818   3.723 -0.3164  0.9376 -0.2122
 2198TIP3    H228086   0.568   3.909   3.655 -2.0447  1.5447 -1.9984
 2199TIP3   OH228087   6.513   1.326   1.176  0.0271  0.2478  0.1744
 2199TIP3    H128088   6.513   1.237   1.210  0.7513 -0.0025 -0.4828
 2199TIP3    H228089   6.532   1.318   1.083 -0.6122  1.0396 -0.0478
 2200TIP3   OH228090   3.696   4.069  12.881 -0.8665 -0.0531 -0.0259
 2200TIP3    H128091   3.721   4.105  12.966 -0.3725  0.3352 -0.3241
 2200TIP3    H228092   3.779   4.065  12.832 -0.9696 -1.2569 -0.1316
 2201TIP3   OH228093   2.835   6.272   2.028  0.2515 -0.1043  0.2587
 2201TIP3    H128094   2.800   6.352   2.066 -1.7164 -0.2426 -1.1290
 2201TIP3    H228095   2.767   6.206   2.045  1.5871 -1.3771  0.8963
 2202TIP3   OH228096   1.087   2.069   6.192 -0.1874 -0.4657 -0.0946
 2202TIP3    H128097   1.137   2.001   6.237  0.3064 -0.2630 -0.3365
 2202TIP3    H228098   1.034   2.110   6.261  1.7834  0.9628  0.6551
 2203TIP3   OH228099   6.025   4.427  12.991 -0.2761  0.1622 -0.0882
 2203TIP3    H128100   6.112   4.455  13.019  0.6328 -2.2653 -0.2066
 2203TIP3    H228101   6.030   4.424  12.896 -0.7884  0.8778 -0.1401
 2204TIP3   OH228102   6.381   0.059  17.066  0.1232  0.2543 -0.3095
 2204TIP3    H128103   6.291   0.047  17.035  0.6866 -3.4627 -1.0095
 2204TIP3    H228104   6.424   0.109  16.997 -0.9784  0.5842 -0.7861
 2205TIP3   OH228105   2.676   5.463  12.602  0.4350  0.0260 -0.0544
 2205TIP3    H128106   2.689   5.410  12.680  3.0400  0.0390 -0.3853
 2205TIP3    H228107   2.727   5.543  12.618  2.5416 -0.7086 -2.3670
 2206TIP3   OH228108   0.694   3.126   2.714 -0.1529 -0.6025 -0.0096
 2206TIP3    H128109   0.710   3.084   2.798  0.4067  0.5584  0.4934
 2206TIP3    H228110   0.607   3.164   2.722  1.0638  2.3185  1.3745
 2207TIP3   OH228111   2.478   4.991   6.208  0.4344 -0.6369  0.1034
 2207TIP3    H128112   2.541   4.919   6.205  0.6840 -0.4577  0.8891
 2207TIP3    H228113   2.396   4.949   6.235  0.2376 -0.8476 -0.7909
 2208TIP3   OH228114   5.954   2.178   6.600  0.2387 -0.3330 -0.1190
 2208TIP3    H128115   6.002   2.256   6.572  0.3088 -0.6904 -1.0049
 2208TIP3    H228116   5.892   2.162   6.529 -1.0473 -0.0160  0.8940
 2209TIP3   OH228117   6.444   4.526  13.389  0.0146 -0.4205 -0.1638
 2209TIP3    H128118   6.368   4.474  13.362 -0.3703 -0.0402  0.1628
 2209TIP3    H228119   6.408   4.614  13.404  0.8556  0.2416 -1.8189
 2210TIP3   OH228120   1.816   3.584  12.491  0.1683 -0.4427  0.0871
 2210TIP3    H128121   1.731   3.614  12.525  0.4648 -0.1257  0.5681
 2210TIP3    H228122   1.815   3.489  12.504 -0.1687 -0.4550 -0.0312
 2211TIP3   OH228123   0.995   2.969  16.430 -0.0217 -0.2450 -0.3653
 2211TIP3    H128124   0.986   3.005  16.518 -1.0291 -0.7235 -0.2591
 2211TIP3    H228125   0.912   2.988  16.387  1.2451  2.0324 -2.0166
 2212TIP3   OH228126   2.579   0.313  11.463  0.3497  0.0179  0.5645
 2212TIP3    H128127   2.606   0.249  11.529 -2.1303 -1.6434  0.1046
 2212TIP3    H228128   2.487   0.293  11.446 -1.4825  5.2624  2.1520
 2213TIP3   OH228129   3.795   4.246   4.063  0.5381 -0.0888 -0.3528
 2213TIP3    H128130   3.812   4.217   3.973 -1.6921  0.5295 -1.0115
 2213TIP3    H228131   3.729   4.185   4.096 -1.6772  2.0485 -0.5835
 2214TIP3   OH228132   4.883   6.452   4.666 -0.6380 -0.4626 -0.4029
 2214TIP3    H128133   4.965   6.406   4.684 -0.8854  0.0743  2.5539
 2214TIP3    H228134   4.816   6.384   4.670 -0.6141 -0.4600  0.0665
 2215TIP3   OH228135   1.463   0.808  12.063 -0.0394  1.0308 -0.4766
 2215TIP3    H128136   1.499   0.886  12.021 -0.2751  0.8851 -0.9575
 2215TIP3    H228137   1.455   0.832  12.155 -0.9846  1.9053 -0.7705
 2216TIP3   OH228138   5.797   0.571  16.296 -0.6344 -0.2587 -0.0588
 2216TIP3    H128139   5.814   0.665  16.299  0.0781 -0.3752 -0.3510
 2216TIP3    H228140   5.882   0.530  16.310 -0.8150 -0.8577 -0.6358
 2217TIP3   OH228141   0.843   0.130  13.404 -0.3638 -1.1825 -0.0175
 2217TIP3    H128142   0.850   0.216  13.445 -1.5704 -1.0523 -0.0635
 2217TIP3    H228143   0.848   0.068  13.476 -3.3199 -0.9338  0.5257
 2218TIP3   OH228144   5.735   5.946   1.679 -0.8462  0.2010  0.4743
 2218TIP3    H128145   5.753   6.028   1.725 -0.3444 -0.6447  1.8689
 2218TIP3    H228146   5.814   5.929   1.628  0.2007 -0.7045  2.2665
 2219TIP3   OH228147   5.087   4.483   4.553  0.1471  0.8052 -0.2097
 2219TIP3    H128148   5.032   4.442   4.621  0.2020 -0.1959 -0.7561
 2219TIP3    H228149   5.032   4.484   4.475 -0.5618  3.5218  0.2023
 2220TIP3   OH228150   1.137   0.272  16.483  0.2210  0.0670 -0.3859
 2220TIP3    H128151   1.177   0.185  16.476 -1.6572 -1.0747  1.6846
 2220TIP3    H228152   1.196   0.322  16.538 -0.4812 -1.1777  1.5809
 2221TIP3   OH228153   2.998   3.265   5.095  0.3195 -0.1851  0.1748
 2221TIP3    H128154   3.028   3.244   5.006 -1.1761 -0.7471 -0.2191
 2221TIP3    H228155   3.072   3.312   5.134  1.1519 -0.2572 -1.2301
 2222TIP3   OH228156   1.354   2.989  12.740 -0.1452 -0.4026  0.0778
 2222TIP3    H128157   1.261   2.999  12.760 -0.0313  2.1287 -0.3079
 2222TIP3    H228158   1.369   3.047  12.664  1.7845 -0.5161  0.3029
 2223TIP3   OH228159   3.660   1.526   0.706 -0.3610  0.1254  0.0545
 2223TIP3    H128160   3.606   1.448   0.712  2.6734 -2.2319 -0.6149
 2223TIP3    H228161   3.665   1.545   0.612 -0.2193  0.4686  0.1281
 2224TIP3   OH228162   0.405   0.832   2.539  0.2107  0.4729 -0.3478
 2224TIP3    H128163   0.450   0.787   2.610 -0.0205 -0.0138 -0.5022
 2224TIP3    H228164   0.458   0.813   2.462 -0.7441 -0.8971 -0.7028
 2225TIP3   OH228165   6.341   2.493   0.382 -0.1299  0.5238 -0.4540
 2225TIP3    H128166   6.423   2.486   0.334  0.1531 -0.3017  0.1217
 2225TIP3    H228167   6.365   2.536   0.464  0.0284 -0.9934  0.3375
 2226TIP3   OH228168   4.848   3.677   0.884  0.1561  0.2650  0.1352
 2226TIP3    H128169   4.942   3.659   0.892  0.3924  1.5146  0.3229
 2226TIP3    H228170   4.835   3.697   0.792  0.1869  0.6777  0.2189
 2227TIP3   OH228171   6.499   2.003   5.343 -0.8451  0.1686  0.1129
 2227TIP3    H128172   6.554   2.060   5.290 -2.3390  0.8186 -0.7994
 2227TIP3    H228173   6.539   1.916   5.333  0.6950  0.8025  0.4693
 2228TIP3   OH228174   2.754   6.651  11.487  0.1575  0.2655  0.0808
 2228TIP3    H128175   2.843   6.621  11.504  0.4680  1.3399  0.4321
 2228TIP3    H228176   2.765   6.737  11.447 -0.6948 -0.2898 -1.3946
 2229TIP3   OH228177   0.043   4.267  17.014  0.2760  0.4917  0.2933
 2229TIP3    H128178  -0.036   4.268  16.961 -0.1689 -0.4555  0.9047
 2229TIP3    H228179   0.083   4.181  16.995  1.7399  1.3720 -0.8219
 2230TIP3   OH228180   1.022   2.816   2.838  0.9761 -0.4926  0.2608
 2230TIP3    H128181   1.042   2.823   2.932  0.1712 -2.0414  0.5832
 2230TIP3    H228182   1.045   2.902   2.802  0.7969  0.3224  1.9732
 2231TIP3   OH228183   3.538   4.621   1.392  0.0127  0.6990  0.3622
 2231TIP3    H128184   3.603   4.553   1.411  0.3827  0.9854  0.1353
 2231TIP3    H228185   3.570   4.663   1.313 -1.3258 -0.2531 -0.7261
 2232TIP3   OH228186   0.612   6.456  15.099 -0.3742  0.5479  0.5008
 2232TIP3    H128187   0.681   6.515  15.068 -0.7858  1.6120  1.5075
 2232TIP3    H228188   0.658   6.389  15.149  0.0956  0.0714 -0.5573
 2233TIP3   OH228189   1.338   3.705   0.123  0.6381  0.2146  0.3209
 2233TIP3    H128190   1.308   3.733   0.209 -0.1714  1.5605 -0.3668
 2233TIP3    H228191   1.264   3.722   0.065  1.8273  1.2327 -0.9837
 2234TIP3   OH228192   3.232   2.003  12.226 -0.2481  0.6067 -0.0183
 2234TIP3    H128193   3.313   2.049  12.250  0.6192 -0.8772  0.0605
 2234TIP3    H228194   3.220   1.939  12.296 -0.6930 -0.1398 -0.7642
 2235TIP3   OH228195   3.460   3.688   1.897 -0.1627  0.4444 -0.0722
 2235TIP3    H128196   3.373   3.721   1.919  0.2149  1.3956  0.0541
 2235TIP3    H228197   3.474   3.716   1.806 -0.3798 -0.5825 -0.4412
 2236TIP3   OH228198   0.612   0.579   2.150  0.2454  0.0163 -0.2956
 2236TIP3    H128199   0.598   0.636   2.226  2.1833  0.4843 -0.2447
 2236TIP3    H228200   0.615   0.638   2.075 -0.4781 -0.3227 -0.6027
 2237TIP3   OH228201   1.676   6.533  13.969  0.1982 -0.0405 -0.4686
 2237TIP3    H128202   1.636   6.458  14.014 -0.8494  1.0438  0.4867
 2237TIP3    H228203   1.770   6.517  13.974  0.0304 -0.7935  0.6139
 2238TIP3   OH228204   0.467   2.797  14.019  0.6051  0.2163  0.2104
 2238TIP3    H128205   0.524   2.722  14.035 -0.4047  0.0366  3.6753
 2238TIP3    H228206   0.380   2.759  14.011  0.4685  0.7935 -1.7065
 2239TIP3   OH228207   4.190   2.564  15.758  0.1950  0.4268  0.8027
 2239TIP3    H128208   4.252   2.611  15.703  0.2334  1.5093  1.7255
 2239TIP3    H228209   4.243   2.502  15.807  0.5195  1.1229  1.3503
 2240TIP3   OH228210   4.364   0.604   3.057 -0.3181 -0.4137 -0.3294
 2240TIP3    H128211   4.351   0.666   3.129  1.0692  0.2486 -0.6245
 2240TIP3    H228212   4.305   0.635   2.988 -0.1619  0.1540 -0.2094
 2241TIP3   OH228213   5.885   2.259  14.796 -0.0282  0.8346  0.1366
 2241TIP3    H128214   5.980   2.273  14.799  0.2385 -0.7632  2.0270
 2241TIP3    H228215   5.871   2.203  14.720  0.6500  0.6233  0.1613
 2242TIP3   OH228216   4.851   3.544  14.575  0.0029 -0.5462  0.1075
 2242TIP3    H128217   4.904   3.499  14.641 -2.5280  0.1509  2.8092
 2242TIP3    H228218   4.892   3.630  14.565 -0.1714 -0.2469  1.6793
 2243TIP3   OH228219   3.901   0.580   3.189 -0.3932 -0.0006 -0.4939
 2243TIP3    H128220   3.897   0.662   3.140  1.1173  1.2261  1.3053
 2243TIP3    H228221   3.971   0.593   3.253 -4.0245 -0.3059  4.0567
 2244TIP3   OH228222   4.495   4.857  12.963 -0.1747  0.2263  0.7431
 2244TIP3    H128223   4.478   4.776  12.915  1.5845 -0.4831  1.2443
 2244TIP3    H228224   4.509   4.923  12.894 -1.2968  0.0712  0.3366
 2245TIP3   OH228225   5.150   3.105   2.480  0.0654  0.3675  0.1408
 2245TIP3    H128226   5.167   3.065   2.565 -0.0703  0.5050  0.2337
 2245TIP3    H228227   5.061   3.076   2.458  0.6351 -0.8755 -0.6358
 2246TIP3   OH228228   2.662   3.282  16.272 -0.3686  0.4722 -0.0540
 2246TIP3    H128229   2.733   3.338  16.244  0.3536 -0.3908 -0.0111
 2246TIP3    H228230   2.703   3.220  16.333 -0.8975 -0.8092 -0.9658
 2247TIP3   OH228231   6.696   4.893   1.078 -0.3204  0.0494 -0.0296
 2247TIP3    H128232   6.669   4.863   0.992 -1.2081  0.1347  0.2128
 2247TIP3    H228233   6.659   4.980   1.086  1.7243  1.0205 -0.4823
 2248TIP3   OH228234   5.023   1.050   3.585 -0.4901 -0.2081 -0.4168
 2248TIP3    H128235   5.014   0.959   3.557  0.8261 -0.0759 -1.3832
 2248TIP3    H228236   5.029   1.099   3.503  0.3582  0.5544  0.0836
 2249TIP3   OH228237   0.025   6.813  13.723 -0.4655  0.3431  0.0646
 2249TIP3    H128238   0.110   6.802  13.680 -0.4212  2.5234 -0.5295
 2249TIP3    H228239  -0.035   6.756  13.674  0.5068 -0.7181  0.0838
 2250TIP3   OH228240   6.199   5.074   5.964 -0.8102  0.8804  0.0768
 2250TIP3    H128241   6.184   5.044   6.053 -0.2091  0.0526 -0.0897
 2250TIP3    H228242   6.118   5.119   5.940 -1.6489 -0.3835  0.4335
 2251TIP3   OH228243   1.574   5.748   4.174  0.6865  0.6132 -0.2996
 2251TIP3    H128244   1.550   5.796   4.253  0.6795  0.1856 -0.0370
 2251TIP3    H228245   1.531   5.663   4.184  1.0556  0.3932 -0.5468
 2252TIP3   OH228246   3.696   4.040  15.472  0.2633 -0.2992 -0.3761
 2252TIP3    H128247   3.626   3.987  15.436 -1.1374  1.4783 -0.3847
 2252TIP3    H228248   3.757   4.052  15.399 -0.3359 -0.3706 -0.8932
 2253TIP3   OH228249   5.946   4.800   5.644 -0.0951 -0.0949  0.0311
 2253TIP3    H128250   5.858   4.811   5.608 -0.6921  0.3508  1.5593
 2253TIP3    H228251   5.991   4.881   5.620 -0.1034 -0.3049 -0.7170
 2254TIP3   OH228252   1.336   1.856   3.921  0.4259 -0.1371 -0.5596
 2254TIP3    H128253   1.314   1.793   3.990 -2.6475  0.5269 -0.7696
 2254TIP3    H228254   1.340   1.940   3.966  1.4823 -0.0833 -0.7411
 2255TIP3   OH228255   5.670   0.183   4.929 -0.8782 -0.2059  0.2336
 2255TIP3    H128256   5.646   0.235   5.006  0.3063  2.6610 -1.1919
 2255TIP3    H228257   5.603   0.203   4.864 -0.7506 -1.0200 -0.1731
 2256TIP3   OH228258   5.686   3.852  15.093  0.4092 -0.1022 -0.1759
 2256TIP3    H128259   5.631   3.902  15.153  1.1434  1.2226 -0.5772
 2256TIP3    H228260   5.747   3.805  15.149  0.9720  0.9872  0.1530
 2257TIP3   OH228261   5.101   2.990   4.279 -0.2154 -0.0682  0.4696
 2257TIP3    H128262   5.108   2.926   4.208  1.1687 -0.9699  1.3747
 2257TIP3    H228263   5.079   2.938   4.356  0.2041  0.6330  1.0729
 2258TIP3   OH228264   4.969   5.099   2.380  0.0390 -0.3052 -0.1211
 2258TIP3    H128265   4.954   5.191   2.400  0.2781  0.0874 -1.6566
 2258TIP3    H228266   4.884   5.057   2.393 -0.6199  0.5404 -1.4965
 2259TIP3   OH228267   6.306   3.638   5.943 -0.1881 -0.5576  0.2265
 2259TIP3    H128268   6.304   3.644   5.848 -0.2719  0.2362  0.2635
 2259TIP3    H228269   6.390   3.597   5.963  0.6160  0.8206 -0.1468
 2260TIP3   OH228270   1.918   4.494  12.115  0.0542 -0.4742 -0.3454
 2260TIP3    H128271   1.829   4.485  12.080 -0.7121  0.3343  1.2345
 2260TIP3    H228272   1.967   4.537  12.046 -0.9801 -0.2853 -0.9882
 2261TIP3   OH228273   5.203   6.685  15.151  0.2516 -0.2752  0.1861
 2261TIP3    H128274   5.162   6.637  15.079  0.5450  0.0121 -0.1790
 2261TIP3    H228275   5.168   6.774  15.143  1.3918  0.1392 -0.5134
 2262TIP3   OH228276   0.516   4.160  13.108  0.2334  0.2869  0.7330
 2262TIP3    H128277   0.541   4.160  13.201  0.6153 -0.2689  0.6326
 2262TIP3    H228278   0.558   4.239  13.073 -0.4632  0.8597  1.1728
 2263TIP3   OH228279   1.227   0.372  15.262 -0.2263  0.2857 -0.1914
 2263TIP3    H128280   1.197   0.458  15.292  1.0985  0.0619  2.0185
 2263TIP3    H228281   1.247   0.324  15.343  2.1839 -0.9257 -1.3958
 2264TIP3   OH228282   3.713   2.179   0.607 -0.2784 -0.1117 -0.5689
 2264TIP3    H128283   3.699   2.266   0.570 -1.2608 -0.2022 -0.4471
 2264TIP3    H228284   3.718   2.120   0.531  1.7456  0.1931 -0.7264
 2265TIP3   OH228285   5.842   2.864  13.700 -0.3166 -0.2602 -0.0638
 2265TIP3    H128286   5.928   2.892  13.733 -0.5842  0.1572  0.2974
 2265TIP3    H228287   5.819   2.929  13.634  1.0241 -2.0702 -2.4726
 2266TIP3   OH228288   4.516   2.646   5.432  0.2198  0.2845  0.3126
 2266TIP3    H128289   4.518   2.657   5.527 -1.2323  0.8022  0.3228
 2266TIP3    H228290   4.502   2.552   5.418 -0.2397  0.2985  0.6462
 2267TIP3   OH228291   2.027   6.703   3.999  0.4608  0.2851 -0.2603
 2267TIP3    H128292   1.965   6.643   3.957 -0.3825  0.1926  1.0598
 2267TIP3    H228293   2.019   6.785   3.949 -1.5361  0.6112  0.4997
 2268TIP3   OH228294   0.449   4.264   4.479  0.1143  0.0147 -0.6215
 2268TIP3    H128295   0.399   4.242   4.558  1.7728 -0.5060  0.3321
 2268TIP3    H228296   0.495   4.345   4.502 -1.2756  1.2514 -1.9743
 2269TIP3   OH228297   2.799   1.095   2.786  0.1761 -0.4036 -0.5360
 2269TIP3    H128298   2.750   1.012   2.786  1.5028 -1.2293 -1.5011
 2269TIP3    H228299   2.771   1.139   2.866 -2.2867 -0.7190 -1.1428
 2270TIP3   OH228300   1.339   0.758   5.233  0.6731  0.2015  0.4936
 2270TIP3    H128301   1.423   0.718   5.254  1.0124  0.4285 -0.3838
 2270TIP3    H228302   1.357   0.853   5.235  0.3560  0.2605  0.6174
 2271TIP3   OH228303   4.676   1.056   5.780  0.0379 -0.2426  0.5835
 2271TIP3    H128304   4.614   1.127   5.761  0.1908  0.2203  1.7409
 2271TIP3    H228305   4.760   1.089   5.748 -0.3502 -1.1130 -1.5433
 2272TIP3   OH228306   2.594   5.115   4.263  0.1966  0.4273  0.0467
 2272TIP3    H128307   2.554   5.065   4.333  0.5524  1.3167  0.9095
 2272TIP3    H228308   2.529   5.181   4.239 -0.1711 -0.2538 -0.9092
 2273TIP3   OH228309   0.835   2.667   0.324 -0.2363  0.7459 -0.4273
 2273TIP3    H128310   0.763   2.722   0.292  0.5035  1.4544 -0.9028
 2273TIP3    H228311   0.872   2.629   0.244 -1.2086 -1.0820 -0.0693
 2274TIP3   OH228312   6.207   5.350   3.833 -0.2032  0.7042 -0.7587
 2274TIP3    H128313   6.268   5.307   3.773 -0.4240  1.8088 -1.8172
 2274TIP3    H228314   6.231   5.317   3.920  0.1081 -0.9466 -1.4446
 2275TIP3   OH228315   3.062   0.194   3.952 -0.0259 -0.0778  0.2137
 2275TIP3    H128316   2.976   0.156   3.969  0.0655 -1.8453 -2.6489
 2275TIP3    H228317   3.062   0.212   3.858  2.7507 -0.1767  0.1208
 2276TIP3   OH228318   1.366   6.355  12.109 -0.3409  0.1036 -0.4579
 2276TIP3    H128319   1.326   6.435  12.074  1.1846  1.1226  0.0045
 2276TIP3    H228320   1.456   6.381  12.129  0.6796 -2.1675 -1.7641
 2277TIP3   OH228321   4.594   5.828  11.822  0.0180  0.5856  0.2459
 2277TIP3    H128322   4.665   5.848  11.883 -0.8664  0.7202  1.2656
 2277TIP3    H228323   4.520   5.880  11.854 -1.5053 -1.9658  1.1846
 2278TIP3   OH228324   3.774   6.552   0.427  0.1620  0.2091 -0.1074
 2278TIP3    H128325   3.840   6.597   0.479  0.5538 -0.2624 -0.1918
 2278TIP3    H228326   3.747   6.478   0.482 -0.4098  0.4800 -0.0080
 2279TIP3   OH228327   6.657   1.602  11.563 -0.0825  0.2338  0.5768
 2279TIP3    H128328   6.697   1.608  11.476  1.4991  1.3910  1.3405
 2279TIP3    H228329   6.650   1.508  11.580  1.1952 -0.0091 -0.1103
 2280TIP3   OH228330   2.689   1.789  13.477  0.0594  0.0196 -0.0676
 2280TIP3    H128331   2.765   1.845  13.491  0.1770 -0.2870  0.5251
 2280TIP3    H228332   2.614   1.845  13.496 -0.0133  1.0065 -2.7470
 2281TIP3   OH228333   1.170   0.570   6.029 -0.7362  0.2647  0.2345
 2281TIP3    H128334   1.089   0.611   6.060 -0.7162  0.8303 -0.4388
 2281TIP3    H228335   1.234   0.641   6.027 -0.7241  0.2472 -1.0241
 2282TIP3   OH228336   5.762   0.920  12.893 -0.0128  0.2405 -0.1762
 2282TIP3    H128337   5.729   0.830  12.897  0.4463  0.0361 -0.8536
 2282TIP3    H228338   5.820   0.927  12.969  0.3829 -0.2178 -0.4319
 2283TIP3   OH228339   5.988   3.134   1.525 -0.2177  0.1174 -0.3057
 2283TIP3    H128340   6.050   3.096   1.462  0.1558  0.0150  0.1170
 2283TIP3    H228341   6.043   3.163   1.598 -0.7463 -0.6538  0.4176
 2284TIP3   OH228342   2.039   4.372  15.527 -0.0742  0.7412 -0.2222
 2284TIP3    H128343   2.095   4.393  15.453 -0.1347  2.2204  0.1055
 2284TIP3    H228344   2.056   4.442  15.590  1.2212 -1.3522  1.8948
 2285TIP3   OH228345   0.355   0.540  11.730 -0.4329  0.5191  0.3307
 2285TIP3    H128346   0.423   0.606  11.714  0.0982 -0.3021 -1.0498
 2285TIP3    H228347   0.312   0.530  11.645 -0.4852 -0.9172  0.5037
 2286TIP3   OH228348   2.246   0.492   3.762  0.4425 -0.1921 -0.2425
 2286TIP3    H128349   2.158   0.457   3.778  0.7331 -0.7002  0.3097
 2286TIP3    H228350   2.246   0.578   3.805  0.1479 -0.0894 -0.4432
 2287TIP3   OH228351   4.512   6.205  17.046 -0.1620  0.2766 -0.7782
 2287TIP3    H128352   4.527   6.199  16.952  0.3901  0.0892 -0.6767
 2287TIP3    H228353   4.541   6.121  17.081 -0.8117  0.1577 -0.4936
 2288TIP3   OH228354   4.910   3.738  10.895 -0.1616  0.7194  0.1794
 2288TIP3    H128355   4.991   3.778  10.863  0.8502 -0.5444  1.0597
 2288TIP3    H228356   4.856   3.812  10.923  1.7484  1.5284  2.0243
 2289TIP3   OH228357   3.955   5.179   1.723 -0.4305  0.3630 -0.4172
 2289TIP3    H128358   4.011   5.102   1.712 -2.7847 -1.7152  0.8932
 2289TIP3    H228359   3.885   5.167   1.658 -0.2641  2.0198 -0.9410
 2290TIP3   OH228360   3.726   5.939  10.645  0.3807  0.4213 -0.0541
 2290TIP3    H128361   3.639   5.966  10.617  1.2408  1.4873 -1.8769
 2290TIP3    H228362   3.715   5.915  10.737 -1.1951  3.7800  0.8013
 2291TIP3   OH228363   0.927   0.683   6.131  0.1395 -0.5578 -0.4480
 2291TIP3    H128364   0.895   0.614   6.190  0.6576 -0.8619 -0.5195
 2291TIP3    H228365   0.847   0.727   6.101 -0.0987  0.2921  1.2942
 2292TIP3   OH228366   0.553   0.280  15.001  0.1545 -0.1613 -0.0489
 2292TIP3    H128367   0.606   0.294  15.079 -0.8451 -1.7486  0.9661
 2292TIP3    H228368   0.555   0.364  14.955  2.5127  0.1839  0.5616
 2293TIP3   OH228369   2.450   4.860   0.392  0.0952  0.2867  0.1273
 2293TIP3    H128370   2.502   4.900   0.461  0.2247 -0.0422  0.2236
 2293TIP3    H228371   2.365   4.844   0.432  0.0701  0.3859  0.1143
 2294TIP3   OH228372   1.183   4.628   2.836 -0.4640 -0.4870 -0.5944
 2294TIP3    H128373   1.149   4.688   2.769 -0.3126 -0.5708 -0.7485
 2294TIP3    H228374   1.160   4.541   2.804 -0.3978 -0.5275 -0.5316
 2295TIP3   OH228375   3.443   5.506  14.693  0.3049 -0.1865  0.2106
 2295TIP3    H128376   3.380   5.468  14.754  0.6781  0.0699  0.7631
 2295TIP3    H228377   3.529   5.479  14.727  0.5674  0.9937  0.5180
 2296TIP3   OH228378   4.984   5.738  13.900  0.0197 -0.4824  0.5204
 2296TIP3    H128379   5.015   5.826  13.879  2.5870 -1.6921 -1.3174
 2296TIP3    H228380   5.025   5.717  13.984  1.2421 -0.7049 -0.1152
 2297TIP3   OH228381   1.806   0.645  11.697 -0.0922 -0.0904  0.2975
 2297TIP3    H128382   1.891   0.690  11.697 -0.2359  0.1943  1.1271
 2297TIP3    H228383   1.825   0.559  11.659  0.5839 -0.0523  0.5355
 2298TIP3   OH228384   3.771   5.874  11.235 -0.3499 -0.5680 -0.3988
 2298TIP3    H128385   3.750   5.788  11.197 -0.2558 -0.1484 -1.4375
 2298TIP3    H228386   3.730   5.873  11.321 -1.3475 -1.2241 -0.8665
 2299TIP3   OH228387   0.761   3.775  17.021  0.5130  0.0543  0.2492
 2299TIP3    H128388   0.802   3.746  17.102  0.4876  0.2868  0.3454
 2299TIP3    H228389   0.670   3.746  17.028  0.4192  0.3960  0.4673
 2300TIP3   OH228390   6.202   5.113  15.140  0.1958 -0.0544  0.4873
 2300TIP3    H128391   6.163   5.147  15.059  0.5479  0.4442  0.5236
 2300TIP3    H228392   6.270   5.176  15.163  3.4887 -2.6110 -1.4406
 2301TIP3   OH228393   2.089   0.142   4.732  0.5753  0.2585  0.5546
 2301TIP3    H128394   2.101   0.111   4.642  1.6812  0.5215  0.5962
 2301TIP3    H228395   2.072   0.236   4.723 -0.2583  0.1208  0.5790
 2302TIP3   OH228396   0.461   5.011   0.880 -0.0502 -0.4375 -0.0337
 2302TIP3    H128397   0.529   4.972   0.826 -0.7960  1.6153 -2.6546
 2302TIP3    H228398   0.497   5.097   0.905 -0.3163 -0.7606  1.5780
 2303TIP3   OH228399   5.271   4.257  11.804 -0.5724 -0.4727  0.0649
 2303TIP3    H128400   5.308   4.271  11.716 -0.3053  2.4011  0.5340
 2303TIP3    H228401   5.267   4.344  11.842 -1.1213 -1.5927  2.7836
 2304TIP3   OH228402   1.668   3.452  11.934  0.0475  0.0539  0.2133
 2304TIP3    H128403   1.614   3.508  11.989 -2.1359 -1.3866 -0.3062
 2304TIP3    H228404   1.742   3.426  11.990 -2.5924 -2.2093  3.0168
 2305TIP3   OH228405   3.777   2.507   3.420  0.3533  0.2772 -0.2100
 2305TIP3    H128406   3.818   2.459   3.492 -0.1286 -0.3457 -0.3479
 2305TIP3    H228407   3.829   2.483   3.343 -2.4418 -3.6459 -1.1701
 2306TIP3   OH228408   3.258   3.909  16.153  0.1085 -1.1417 -0.1599
 2306TIP3    H128409   3.221   3.997  16.161  0.0050 -1.2890  1.2772
 2306TIP3    H228410   3.182   3.854  16.133 -0.0344 -1.0805  0.2065
 2307TIP3   OH228411   1.597   2.568  13.583  0.2035  0.3229 -0.0322
 2307TIP3    H128412   1.505   2.593  13.578  0.0868  0.0888  0.7756
 2307TIP3    H228413   1.643   2.631  13.527 -0.5142  0.0387 -0.9630
 2308TIP3   OH228414   5.282   3.830   3.320  0.2799 -0.2286 -0.1475
 2308TIP3    H128415   5.232   3.749   3.310 -2.1102  1.2795 -1.3171
 2308TIP3    H228416   5.317   3.825   3.409 -0.0072 -2.4014 -0.0973
 2309TIP3   OH228417   5.955   3.962   5.418  0.0613 -0.8009 -0.0937
 2309TIP3    H128418   5.971   3.867   5.411  1.4897 -0.5067 -1.6765
 2309TIP3    H228419   5.902   3.982   5.341  0.8291 -0.1357 -0.4593
 2310TIP3   OH228420   1.083   1.388  14.544  0.3600  0.3604  0.2476
 2310TIP3    H128421   1.020   1.420  14.608  0.5271 -0.4242  0.8246
 2310TIP3    H228422   1.159   1.446  14.554  0.1559  0.6175  0.3236
 2311TIP3   OH228423   2.604   1.024  13.463  0.4084  0.1736  0.0147
 2311TIP3    H128424   2.529   1.022  13.402  0.3552  0.9562  0.0391
 2311TIP3    H228425   2.587   0.953  13.524 -1.0544  1.1924  0.8580
 2312TIP3   OH228426   1.473   5.182  14.828  0.0527  0.3539 -0.7192
 2312TIP3    H128427   1.450   5.111  14.769  1.2850 -0.4073 -0.3358
 2312TIP3    H228428   1.466   5.143  14.916 -0.3332  1.0364 -0.4393
 2313TIP3   OH228429   2.271   2.816  13.623 -0.4189 -0.6424 -0.1395
 2313TIP3    H128430   2.256   2.904  13.656 -0.1766 -1.0678  1.1802
 2313TIP3    H228431   2.216   2.809  13.545 -0.8739  0.4740  0.0663
 2314TIP3   OH228432   4.331   0.768   2.824  0.1083  0.0462  0.4991
 2314TIP3    H128433   4.363   0.856   2.841 -1.5225  0.6325  0.6832
 2314TIP3    H228434   4.407   0.721   2.788  0.4342  2.1695 -1.8495
 2315TIP3   OH228435   4.237   0.222  15.224 -0.0024  0.6097 -0.7655
 2315TIP3    H128436   4.268   0.313  15.222  0.3074  0.5809  1.2989
 2315TIP3    H228437   4.216   0.206  15.315 -0.6467 -1.2215 -1.2077
 2316TIP3   OH228438   3.457   0.127  11.531 -0.5202  0.2675 -0.1135
 2316TIP3    H128439   3.417   0.137  11.445  0.5856  1.3067 -0.5380
 2316TIP3    H228440   3.533   0.072  11.516 -1.2112 -0.9044  0.5147
 2317TIP3   OH228441   4.329   4.000   2.030  0.2607 -0.4312 -0.1929
 2317TIP3    H128442   4.367   4.085   2.006  0.1577 -0.2500  0.2708
 2317TIP3    H228443   4.395   3.960   2.086  0.2815 -0.6350 -0.3612
 2318TIP3   OH228444   6.032   2.756  11.670 -0.0307  0.3473  0.1508
 2318TIP3    H128445   6.039   2.844  11.708 -0.7925  0.8054 -0.7301
 2318TIP3    H228446   6.104   2.752  11.606 -0.2582  0.4907 -0.1149
 2319TIP3   OH228447   2.879   1.016  17.106  0.3210  0.0111  0.0341
 2319TIP3    H128448   2.850   1.095  17.152 -1.0401 -0.1240 -0.5288
 2319TIP3    H228449   2.974   1.015  17.116  0.2489  1.1176  1.0025
 2320TIP3   OH228450   3.699   2.234  13.224 -0.1877 -0.5364 -0.0537
 2320TIP3    H128451   3.643   2.179  13.169 -0.3242 -0.3986 -0.0541
 2320TIP3    H228452   3.758   2.277  13.162 -0.3093 -0.4186 -0.0890
 2321TIP3   OH228453   1.854   0.105   3.573  0.6506 -0.4157 -0.2535
 2321TIP3    H128454   1.787   0.099   3.642 -0.0546 -0.7555 -0.9509
 2321TIP3    H228455   1.822   0.046   3.504  0.4857  1.1636 -1.5847
 2322TIP3   OH228456   5.491   3.848  14.859 -0.0247 -0.4732 -0.0899
 2322TIP3    H128457   5.577   3.856  14.899 -1.0395 -1.4642  2.5148
 2322TIP3    H228458   5.435   3.906  14.911 -1.1090 -0.4151 -1.2576
 2323TIP3   OH228459   2.562   1.407  15.849  0.5001 -0.3114 -0.0369
 2323TIP3    H128460   2.546   1.359  15.930 -0.7529 -1.7899 -1.1007
 2323TIP3    H228461   2.657   1.406  15.839  0.5594 -1.6610  0.5114
 2324TIP3   OH228462   3.997   0.487   4.616  0.1564 -0.3905  0.1515
 2324TIP3    H128463   4.071   0.428   4.604  1.1062  0.6470  0.8016
 2324TIP3    H228464   3.971   0.475   4.708 -0.2398 -0.4448  0.0381
 2325TIP3   OH228465   6.317   3.936  12.933 -0.0121  0.5192 -0.1061
 2325TIP3    H128466   6.323   3.872  13.004  3.3052 -0.5657 -1.1745
 2325TIP3    H228467   6.303   3.883  12.855 -0.4325  1.4169 -0.6505
 2326TIP3   OH228468   1.373   1.077   2.928  0.1378 -0.3058  0.4836
 2326TIP3    H128469   1.283   1.046   2.939 -0.0766  0.9143  2.6587
 2326TIP3    H228470   1.401   1.103   3.016  2.1269  0.7002 -0.3753
 2327TIP3   OH228471   1.084   5.303   1.664 -0.2357  0.1742  0.3593
 2327TIP3    H128472   1.105   5.212   1.683 -1.6428  0.0008  1.2746
 2327TIP3    H228473   1.169   5.345   1.647  0.3029 -1.7447 -2.3773
 2328TIP3   OH228474   3.435   6.361   1.072  0.5013  0.0903 -0.0115
 2328TIP3    H128475   3.357   6.389   1.120 -0.1439  0.3355 -1.1695
 2328TIP3    H228476   3.473   6.293   1.127 -1.3357 -1.0742 -0.0983
 2329TIP3   OH228477   5.651   1.051  11.395 -0.1500 -0.0453 -0.8468
 2329TIP3    H128478   5.668   1.069  11.487  2.2486 -0.1344 -1.2096
 2329TIP3    H228479   5.654   1.137  11.353  0.2876 -0.1536 -1.0418
 2330TIP3   OH228480   2.692   5.546  10.045 -0.0713 -0.3020 -0.2574
 2330TIP3    H128481   2.757   5.513  10.107  0.6131 -1.9582 -1.7626
 2330TIP3    H228482   2.734   5.622  10.005 -0.5548  0.8357  1.2931
 2331TIP3   OH228483   0.458   4.721   6.158  0.3839  0.4130  0.3142
 2331TIP3    H128484   0.466   4.675   6.241  0.0599 -1.7081 -0.7586
 2331TIP3    H228485   0.451   4.651   6.092  0.2558  2.0099 -1.4621
 2332TIP3   OH228486   4.904   4.484  13.636  0.6694  0.2733 -0.2083
 2332TIP3    H128487   4.994   4.451  13.633  1.3430  2.0023 -0.2717
 2332TIP3    H228488   4.893   4.518  13.725 -0.3673 -1.0386  0.1877
 2333TIP3   OH228489   4.123   6.830  15.092  0.0491 -0.3238 -0.1662
 2333TIP3    H128490   4.109   6.879  15.011  1.1010  0.2778  0.0030
 2333TIP3    H228491   4.145   6.897  15.157  0.4467 -0.9205  0.3215
 2334TIP3   OH228492   2.514   1.343  15.362  0.4428 -0.0292 -0.5120
 2334TIP3    H128493   2.493   1.291  15.440 -0.6285  0.6841 -0.2996
 2334TIP3    H228494   2.470   1.297  15.290  2.3381 -1.3047 -0.9157
 2335TIP3   OH228495   1.311   2.854  15.156  0.2305 -0.4253  0.9260
 2335TIP3    H128496   1.245   2.886  15.216 -0.0469 -3.5071  2.4542
 2335TIP3    H228497   1.345   2.775  15.197  3.4562 -0.1131 -0.7679
 2336TIP3   OH228498   3.485   2.730  14.021  0.4359  0.0650  0.1745
 2336TIP3    H128499   3.530   2.674  14.084  0.8351 -1.0789 -1.0920
 2336TIP3    H228500   3.448   2.670  13.957 -0.5386  1.1658 -0.3459
 2337TIP3   OH228501   5.517   0.961  12.013 -0.4824  0.4284 -0.0947
 2337TIP3    H128502   5.463   1.028  11.973 -0.4434  0.1261 -0.6608
 2337TIP3    H228503   5.473   0.878  11.992  0.3604  0.1523 -0.8369
 2338TIP3   OH228504   2.798   6.594  13.367  0.3380  0.8402  0.3643
 2338TIP3    H128505   2.771   6.626  13.280  0.7438  0.7958  0.2189
 2338TIP3    H228506   2.728   6.622  13.425 -0.8601 -0.6928 -0.2700
 2339TIP3   OH228507   3.763   4.429   3.708 -0.6258  0.2503 -0.2606
 2339TIP3    H128508   3.787   4.493   3.775  0.5490 -1.3953  0.9794
 2339TIP3    H228509   3.790   4.469   3.626  1.4219  0.7890  0.6064
 2340TIP3   OH228510   0.053   4.655   2.960 -0.2087 -0.2941 -0.2169
 2340TIP3    H128511   0.094   4.574   2.929 -1.4333 -0.0761 -2.6419
 2340TIP3    H228512   0.060   4.715   2.886  0.9221  1.9846  1.6141
 2341TIP3   OH228513   1.314   6.190  11.590 -0.1191 -0.5951  0.1504
 2341TIP3    H128514   1.332   6.266  11.644  0.1074  0.9001 -1.8825
 2341TIP3    H228515   1.400   6.158  11.564 -0.2191 -0.1411 -0.7920
 2342TIP3   OH228516   4.155   6.091  14.643  0.3398  0.4186  0.2886
 2342TIP3    H128517   4.112   6.109  14.727  0.2007  2.1495 -0.1233
 2342TIP3    H228518   4.245   6.070  14.667  0.7113  2.4547  0.8112
 2343TIP3   OH228519   6.013   1.374   2.537 -0.4902  0.2325 -0.1341
 2343TIP3    H128520   6.065   1.453   2.523 -2.2434  1.2168 -1.4852
 2343TIP3    H228521   5.956   1.395   2.611 -0.0056 -0.3094  0.4066
 2344TIP3   OH228522   4.666   6.373  15.127 -0.2365 -0.0224  0.1886
 2344TIP3    H128523   4.642   6.289  15.089  0.1168  0.3861 -0.9558
 2344TIP3    H228524   4.613   6.379  15.207 -3.3086  0.4131 -1.7097
 2345TIP3   OH228525   2.309   5.988  14.707 -0.0308 -0.5794 -0.1618
 2345TIP3    H128526   2.377   6.016  14.768  1.6470 -1.8886 -1.3366
 2345TIP3    H228527   2.255   6.066  14.694  0.4163  0.1279  1.8378
 2346TIP3   OH228528   5.808   3.940  14.653  0.2176 -1.1599  0.4116
 2346TIP3    H128529   5.787   3.859  14.700 -0.6410 -0.0734  2.0191
 2346TIP3    H228530   5.834   4.001  14.722 -0.8280  0.4284 -0.5442
 2347TIP3   OH228531   3.555   4.520   2.513  0.0306 -0.8337 -0.2525
 2347TIP3    H128532   3.498   4.587   2.476 -0.1672  0.6930  2.5270
 2347TIP3    H228533   3.635   4.524   2.460 -0.2730  1.0996 -0.6153
 2348TIP3   OH228534   1.501   3.044   6.770  0.0940  0.2795  0.3382
 2348TIP3    H128535   1.482   3.115   6.709  1.7802  1.1390  0.7326
 2348TIP3    H228536   1.420   2.995   6.776 -0.7342  1.4106 -0.9642
 2349TIP3   OH228537   6.381   2.564   3.721 -0.1438  0.2192  0.3968
 2349TIP3    H128538   6.474   2.571   3.702 -0.4696  0.9740 -1.0541
 2349TIP3    H228539   6.362   2.639   3.778  0.2864 -0.4508  1.4574
 2350TIP3   OH228540   4.604   1.861  13.291 -0.3876  0.1421 -0.4655
 2350TIP3    H128541   4.587   1.953  13.269 -1.1212 -0.0355 -0.6614
 2350TIP3    H228542   4.524   1.815  13.267 -0.1792 -0.4906  0.0131
 2351TIP3   OH228543   6.355   3.472  16.495  0.5796 -0.3134 -0.1741
 2351TIP3    H128544   6.378   3.380  16.493  0.9166 -0.2475  0.3896
 2351TIP3    H228545   6.304   3.482  16.575 -0.8485 -0.3198 -1.0441
 2352TIP3   OH228546   3.181   2.659   1.344  0.6215  0.1569  0.5909
 2352TIP3    H128547   3.158   2.718   1.273 -0.1642 -0.7879  0.0412
 2352TIP3    H228548   3.277   2.666   1.351  0.9913 -1.1912 -1.9247
 2353TIP3   OH228549   0.088   3.939  16.111 -0.2771 -0.1699  0.8229
 2353TIP3    H128550   0.165   3.934  16.056  0.1767 -2.3987  1.5642
 2353TIP3    H228551   0.089   4.028  16.147  0.6292  0.5745 -0.9734
 2354TIP3   OH228552   1.095   3.253  13.600  0.0153  0.3838 -0.1517
 2354TIP3    H128553   1.002   3.264  13.615  0.1881 -1.5605  3.4699
 2354TIP3    H228554   1.101   3.185  13.533 -1.1694  0.6396 -0.5262
 2355TIP3   OH228555   6.757   6.745   6.576 -0.3423 -0.2450  0.5249
 2355TIP3    H128556   6.675   6.794   6.586 -0.6872 -0.7125  0.0155
 2355TIP3    H228557   6.812   6.803   6.522 -1.0074 -0.6957 -0.6828
 2356TIP3   OH228558   4.691   2.074  14.937 -0.2814  0.0656 -0.4221
 2356TIP3    H128559   4.608   2.091  14.893 -0.6908  2.0257  0.9911
 2356TIP3    H228560   4.672   2.001  14.997 -1.3841  1.3056  0.8051
 2357TIP3   OH228561   4.524   3.728   3.420 -0.0245 -0.1160 -0.7282
 2357TIP3    H128562   4.446   3.676   3.400  0.6308 -0.9751 -1.0943
 2357TIP3    H228563   4.492   3.818   3.423 -0.8308 -0.3417 -1.9750
 2358TIP3   OH228564   1.495   3.926   0.815 -0.3876  0.4928  0.6788
 2358TIP3    H128565   1.557   3.863   0.780 -0.9390  1.0633 -1.5195
 2358TIP3    H228566   1.517   3.934   0.907  1.7753 -0.4841  0.2980
 2359TIP3   OH228567   3.982   1.127   3.949  0.1574  0.2853  0.0014
 2359TIP3    H128568   3.990   1.190   3.877 -1.3458  0.1907 -0.2841
 2359TIP3    H228569   4.030   1.050   3.919  0.2653  0.5561 -0.5367
 2360TIP3   OH228570   3.558   1.938   5.121  0.2605  0.1153  0.5210
 2360TIP3    H128571   3.633   1.991   5.150  0.2901  0.0047  0.6522
 2360TIP3    H228572   3.579   1.915   5.031  0.0031  0.7526  0.2916
 2361TIP3   OH228573   3.526   0.186  15.449 -0.6737  0.2933 -0.1519
 2361TIP3    H128574   3.448   0.131  15.450  1.8992 -3.8325  1.3390
 2361TIP3    H228575   3.565   0.171  15.362  0.4735 -1.1312  0.5574
 2362TIP3   OH228576   4.222   6.454   2.863 -0.1049  0.0207 -0.4383
 2362TIP3    H128577   4.295   6.442   2.803  0.1139 -1.1528  0.0182
 2362TIP3    H228578   4.147   6.415   2.818 -0.5769  1.6523 -1.1067
 2363TIP3   OH228579   5.630   6.307  11.754 -0.6242  0.4288  0.0023
 2363TIP3    H128580   5.696   6.321  11.823 -2.3288  1.2555  1.5590
 2363TIP3    H228581   5.675   6.254  11.688  1.5786  0.9330  0.9960
 2364TIP3   OH228582   1.006   4.930   3.552 -0.2070 -0.2176 -0.9351
 2364TIP3    H128583   1.044   5.017   3.568  2.9510 -1.8430  1.4314
 2364TIP3    H228584   0.985   4.930   3.459  2.0107  2.2537 -1.5498
 2365TIP3   OH228585   4.730   5.247   1.305 -0.0342 -0.4393  0.4660
 2365TIP3    H128586   4.652   5.208   1.267  2.4863 -4.2955 -1.3700
 2365TIP3    H228587   4.778   5.283   1.230 -0.0233  2.0644  1.5784
 2366TIP3   OH228588   5.656   0.651   4.821 -0.1476  0.2206  0.3427
 2366TIP3    H128589   5.673   0.640   4.728 -0.0699 -1.5928  0.5416
 2366TIP3    H228590   5.649   0.746   4.833  1.3158  0.5717 -1.2313
 2367TIP3   OH228591   5.688   1.915  13.848  0.2071  0.0277  0.1312
 2367TIP3    H128592   5.729   1.886  13.766  0.8666 -1.2681  0.8854
 2367TIP3    H228593   5.622   1.978  13.820  1.0354  0.3091 -1.3244
 2368TIP3   OH228594   5.218   4.799   5.788 -0.3143  0.1647 -0.3172
 2368TIP3    H128595   5.176   4.879   5.757  0.0980  1.0857  1.3943
 2368TIP3    H228596   5.146   4.742   5.813 -0.6010  0.1760 -1.0944
 2369TIP3   OH228597   4.968   1.207  15.324  0.2430  0.1372  0.1239
 2369TIP3    H128598   4.883   1.213  15.368  0.5067  2.2770  0.4507
 2369TIP3    H228599   4.951   1.241  15.236  0.5458 -0.4355 -0.1610
 2370TIP3   OH228600   5.307   1.626  16.016 -0.1303 -0.5670  0.2410
 2370TIP3    H128601   5.260   1.594  15.939  0.4537  0.4540 -0.5691
 2370TIP3    H228602   5.297   1.721  16.013  1.9611 -0.3055  0.0077
 2371TIP3   OH228603   1.216   3.591   2.340 -0.0040  0.4996 -0.2604
 2371TIP3    H128604   1.219   3.551   2.253  3.4668 -0.5730  0.2023
 2371TIP3    H228605   1.182   3.523   2.397  0.6998  0.0863 -0.3223
 2372TIP3   OH228606   4.732   1.218  16.452 -0.3931 -0.2247  0.5198
 2372TIP3    H128607   4.769   1.135  16.482 -1.2841 -1.3783 -1.3973
 2372TIP3    H228608   4.780   1.237  16.371 -0.6418  0.8180  0.6055
 2373TIP3   OH228609   1.998   3.329  16.449 -0.0996  0.6588 -0.2534
 2373TIP3    H128610   2.011   3.360  16.539 -3.8367 -1.2860  1.1475
 2373TIP3    H228611   2.047   3.247  16.445  0.8869  1.2370 -0.3767
 2374TIP3   OH228612   2.192   3.375  13.433  0.5646 -0.0626  0.6653
 2374TIP3    H128613   2.256   3.374  13.362  0.4699  0.6393  0.5555
 2374TIP3    H228614   2.107   3.365  13.388  0.4628  0.8917  0.6056
 2375TIP3   OH228615   4.760   2.574   1.996  0.0411 -0.0064  0.2172
 2375TIP3    H128616   4.837   2.519   1.983  0.2691 -0.0557  1.5822
 2375TIP3    H228617   4.791   2.645   2.053 -0.7309  0.4169  0.1221
 2376TIP3   OH228618   0.648   3.458   4.429 -0.2055 -0.2655 -0.1969
 2376TIP3    H128619   0.713   3.398   4.467 -0.9781  0.1569  1.9554
 2376TIP3    H228620   0.674   3.544   4.461  0.5517  0.5494 -2.7795
 2377TIP3   OH228621   3.125   1.694   4.966 -0.2375  0.0674 -0.0507
 2377TIP3    H128622   3.050   1.687   4.906 -0.2159  1.5071 -0.2634
 2377TIP3    H228623   3.201   1.675   4.911 -0.2986  0.4389 -0.2693
 2378TIP3   OH228624   1.058   3.414   0.587  0.2506  0.1663  0.0988
 2378TIP3    H128625   0.990   3.357   0.623  1.2678 -0.2339  1.4923
 2378TIP3    H228626   1.051   3.495   0.637 -1.5488  1.5855 -2.2459
 2379TIP3   OH228627   6.678   5.560   3.105  0.1636 -0.5139 -0.2800
 2379TIP3    H128628   6.755   5.536   3.055 -0.0274 -2.7443  0.3766
 2379TIP3    H228629   6.712   5.587   3.191  0.2109 -3.4981  0.7360
 2380TIP3   OH228630   2.951   3.286   3.072  0.0208 -0.1351  0.0417
 2380TIP3    H128631   2.998   3.369   3.085  0.3206 -0.3528  0.3394
 2380TIP3    H228632   3.015   3.218   3.091 -0.7417 -0.4456  1.6819
 2381TIP3   OH228633   1.502   3.001   0.317  0.2933  0.3886  0.3392
 2381TIP3    H128634   1.435   2.958   0.370 -2.1777  2.3009 -0.9835
 2381TIP3    H228635   1.583   2.989   0.366 -1.3119 -0.4808  3.0125
 2382TIP3   OH228636   6.277   4.044  16.209 -0.6709  0.6137  0.5426
 2382TIP3    H128637   6.233   4.100  16.272  1.2407  0.6757  1.9103
 2382TIP3    H228638   6.319   3.976  16.262  1.1777  0.7922 -0.5721
 2383TIP3   OH228639   5.063   5.597  15.412  0.1541  0.2518 -0.0439
 2383TIP3    H128640   5.148   5.557  15.426  0.2766  0.6592  0.4294
 2383TIP3    H228641   5.001   5.536  15.453  0.3956  0.8147  1.2130
 2384TIP3   OH228642   1.241   4.755   3.505  0.1786 -0.3935  0.1043
 2384TIP3    H128643   1.170   4.803   3.547 -2.7003 -3.2004 -1.1404
 2384TIP3    H228644   1.241   4.786   3.414  0.4255 -0.5811  0.0371
 2385TIP3   OH228645   2.130   5.379  14.775  0.0195  0.1495 -0.7431
 2385TIP3    H128646   2.223   5.365  14.792 -0.1485  0.8917  0.9695
 2385TIP3    H228647   2.098   5.294  14.745  1.1441 -0.2330 -0.9203
 2386TIP3   OH228648   3.410   6.406  12.794  0.2843 -0.1185 -0.2397
 2386TIP3    H128649   3.445   6.427  12.881 -1.6236  0.2066  0.5035
 2386TIP3    H228650   3.419   6.311  12.787  0.0737 -0.2017  0.4985
 2387TIP3   OH228651   1.127   0.412  10.617  0.1454 -0.0767 -0.1363
 2387TIP3    H128652   1.199   0.407  10.554 -0.1687 -3.5535 -0.4356
 2387TIP3    H228653   1.149   0.346  10.683 -2.1702 -0.4301  0.3822
 2388TIP3   OH228654   5.868   6.532  15.304 -0.3726  0.6994 -0.0914
 2388TIP3    H128655   5.782   6.506  15.271  0.5520 -0.9615 -1.3585
 2388TIP3    H228656   5.850   6.604  15.365 -2.4814  1.5476 -1.6129
 2389TIP3   OH228657   2.069   6.131   1.286 -0.7915  0.0475  0.1774
 2389TIP3    H128658   2.161   6.153   1.302 -0.6581 -0.7916  0.6297
 2389TIP3    H228659   2.037   6.199   1.227  0.7504 -0.8814 -1.8763
 2390TIP3   OH228660   0.492   2.520   2.791  0.5254  0.0685  0.1999
 2390TIP3    H128661   0.470   2.593   2.732  1.6253  0.7916  0.6418
 2390TIP3    H228662   0.433   2.449   2.765  0.6046  0.5532 -1.3984
 2391TIP3   OH228663   4.835   0.171   2.574  0.6194 -0.0715 -0.2148
 2391TIP3    H128664   4.802   0.116   2.645  1.0521  0.3185  0.2891
 2391TIP3    H228665   4.801   0.130   2.494 -0.2262 -0.2686  0.2375
 2392TIP3   OH228666   3.086   6.199  13.304 -0.1156 -0.4821  0.2454
 2392TIP3    H128667   3.146   6.272  13.323 -1.5141  0.6464  0.5165
 2392TIP3    H228668   3.112   6.170  13.216  0.4252  0.3890  0.0958
 2393TIP3   OH228669   5.702   6.107  14.821 -0.5313 -0.7277  0.4350
 2393TIP3    H128670   5.732   6.017  14.811  1.2399 -0.2429  1.0566
 2393TIP3    H228671   5.780   6.160  14.803 -1.4559  0.6739  0.4298
 2394TIP3   OH228672   6.116   0.180  12.545  0.0083 -0.1436 -0.3931
 2394TIP3    H128673   6.053   0.137  12.603 -1.0959 -0.3953 -1.7180
 2394TIP3    H228674   6.198   0.182  12.595 -0.1573 -2.8596  0.1068
 2395TIP3   OH228675   2.302   1.442   5.871 -0.4984 -0.1567  0.4552
 2395TIP3    H128676   2.287   1.501   5.945  0.6922 -0.3795  0.8976
 2395TIP3    H228677   2.370   1.485   5.819 -0.7043 -0.4208 -0.0423
 2396TIP3   OH228678   5.498   4.799  15.247  0.5776 -0.7434  0.3417
 2396TIP3    H128679   5.532   4.834  15.329  2.7965 -0.0756 -0.8052
 2396TIP3    H228680   5.548   4.719  15.232  2.3757  0.6577 -1.7699
 2397TIP3   OH228681   5.464   0.508   4.929  0.0262  0.3896  0.1297
 2397TIP3    H128682   5.387   0.562   4.911  0.1368 -0.0735 -2.0406
 2397TIP3    H228683   5.538   0.563   4.902  0.5799  1.0790  2.7803
 2398TIP3   OH228684   1.267   4.393   1.778 -0.1037 -0.2577  0.0220
 2398TIP3    H128685   1.247   4.316   1.725  1.8026  0.0106 -1.1880
 2398TIP3    H228686   1.189   4.406   1.832 -1.2967 -1.7808 -1.2365
 2399TIP3   OH228687   2.842   1.196   5.157 -0.4307 -0.1610 -0.2075
 2399TIP3    H128688   2.924   1.172   5.200 -0.1897 -0.7322 -0.9612
 2399TIP3    H228689   2.840   1.291   5.160  1.6404  0.0694 -2.6122
 2400TIP3   OH228690   5.515   3.604   5.185 -0.3090 -0.0611 -0.5324
 2400TIP3    H128691   5.451   3.655   5.135 -1.4825 -0.6035  0.3803
 2400TIP3    H228692   5.463   3.548   5.242  0.9307 -2.7300 -1.8717
 2401TIP3   OH228693   5.336   6.000   2.780  0.0446 -0.0673  0.4159
 2401TIP3    H128694   5.298   6.073   2.731 -0.5054 -0.2142  0.6161
 2401TIP3    H228695   5.426   5.995   2.749 -0.1812  0.0903 -0.2892
 2402TIP3   OH228696   5.364   1.899  13.771 -0.8326 -0.1572  0.0734
 2402TIP3    H128697   5.316   1.819  13.752  0.0339 -1.1245  1.6715
 2402TIP3    H228698   5.357   1.909  13.866  1.7594 -0.1571  0.3315
 2403TIP3   OH228699   1.428   0.896  12.637  0.1098 -0.4850  0.2144
 2403TIP3    H128700   1.332   0.892  12.641 -0.0197 -0.8175 -2.0290
 2403TIP3    H228701   1.450   0.982  12.672 -1.0278 -0.3080  0.5492
 2404TIP3   OH228702   3.217   6.367   3.145  0.8473  0.3002 -0.1474
 2404TIP3    H128703   3.275   6.335   3.214 -1.1236 -0.7534  1.1177
 2404TIP3    H228704   3.130   6.336   3.171 -0.4378  2.5137 -1.5026
 2405TIP3   OH228705   4.417   5.300   2.829  0.3673  0.3197  0.0849
 2405TIP3    H128706   4.360   5.341   2.764 -0.9626  0.6811  1.4266
 2405TIP3    H228707   4.481   5.251   2.778  0.7956  2.4365 -1.5450
 2406TIP3   OH228708   2.880   1.052   2.272  0.2150  0.1573 -0.1644
 2406TIP3    H128709   2.824   1.079   2.200 -1.3768  1.0643  1.3276
 2406TIP3    H228710   2.840   0.970   2.304  1.9937 -1.2637 -1.4193
 2407TIP3   OH228711   2.288   4.657   4.300  0.1567  0.5010  0.1877
 2407TIP3    H128712   2.307   4.694   4.214  1.8865  0.4748  0.5203
 2407TIP3    H228713   2.316   4.565   4.294 -0.2346  0.3490  0.6035
 2408TIP3   OH228714   3.916   0.702   2.533 -0.1314 -0.0244 -0.1041
 2408TIP3    H128715   3.848   0.751   2.578  0.2901  1.3003 -0.8776
 2408TIP3    H228716   3.871   0.625   2.499 -1.0091  0.2993  0.2903
 2409TIP3   OH228717   2.489   3.650   1.447  0.2737  0.0431 -0.2479
 2409TIP3    H128718   2.427   3.635   1.376  1.8480  0.8129 -1.8386
 2409TIP3    H228719   2.484   3.745   1.463  0.4211 -0.0236  0.2306
 2410TIP3   OH228720   3.526   1.543   0.396 -0.2377 -0.2880 -0.1175
 2410TIP3    H128721   3.510   1.458   0.355  0.6306  0.4712 -2.1520
 2410TIP3    H228722   3.489   1.607   0.335 -3.1414  0.7919  2.5204
 2411TIP3   OH228723   2.095   4.939  15.812  0.4006 -0.4512  0.0882
 2411TIP3    H128724   2.072   4.952  15.720 -0.6186 -0.7205  0.2942
 2411TIP3    H228725   2.076   5.024  15.854  1.7307 -0.0378 -0.1013
 2412TIP3   OH228726   4.209   2.025  11.155  0.1882 -0.2330 -0.8035
 2412TIP3    H128727   4.218   1.930  11.163 -1.5773 -0.4542 -0.8914
 2412TIP3    H228728   4.124   2.044  11.196  0.2295  1.2283 -1.3349
 2413TIP3   OH228729   5.762   3.090  16.351 -0.2408 -0.1194 -0.2271
 2413TIP3    H128730   5.772   3.158  16.284  1.6082  0.1406  0.2494
 2413TIP3    H228731   5.785   3.008  16.306  1.8781  0.1601  0.2276
 2414TIP3   OH228732   4.556   6.190  11.282  0.4169  0.1487 -0.0806
 2414TIP3    H128733   4.600   6.215  11.363 -0.4668  0.5401  0.2975
 2414TIP3    H228734   4.599   6.241  11.214 -0.8532  2.2289  0.5779
 2415TIP3   OH228735   0.979   5.751  16.654 -0.0533 -0.0545 -0.1175
 2415TIP3    H128736   1.025   5.687  16.599 -2.8824 -1.9980 -0.4369
 2415TIP3    H228737   0.957   5.823  16.595  0.6628 -0.1035 -0.4530
 2416TIP3   OH228738   6.581   4.794   4.938  0.0219  0.2572 -0.0252
 2416TIP3    H128739   6.653   4.758   4.990  0.7988  1.1875 -0.4190
 2416TIP3    H228740   6.565   4.880   4.976  1.4010  1.4738 -1.9758
 2417TIP3   OH228741   2.754   3.894   1.584 -0.2810 -0.0022 -0.1340
 2417TIP3    H128742   2.765   3.822   1.522  0.9994  1.9592 -2.3565
 2417TIP3    H228743   2.798   3.864   1.664  1.0178 -1.3363 -1.3021
 2418TIP3   OH228744   4.838   2.563  13.407 -0.2152 -0.6289 -0.4596
 2418TIP3    H128745   4.853   2.634  13.469 -2.8301 -0.2691 -0.1170
 2418TIP3    H228746   4.893   2.492  13.438 -1.7736 -0.6366  2.6525
 2419TIP3   OH228747   4.601   4.981   2.098  0.8117  0.2718 -0.0805
 2419TIP3    H128748   4.520   5.028   2.079  0.4313 -0.9428 -1.6273
 2419TIP3    H228749   4.600   4.970   2.194 -0.8833  0.2203 -0.0817
 2420TIP3   OH228750   6.830   0.970  12.455  0.6393 -0.6114  0.3983
 2420TIP3    H128751   6.917   0.935  12.476  0.9276 -1.0971 -1.4915
 2420TIP3    H228752   6.822   0.959  12.361 -1.6472 -0.9052  0.5910
 2421TIP3   OH228753   6.205   1.763   4.611 -0.5462 -0.3044  0.0212
 2421TIP3    H128754   6.275   1.710   4.573 -1.7725 -1.4012 -0.7910
 2421TIP3    H228755   6.182   1.826   4.542 -1.4922 -1.0617 -0.3746
 2422TIP3   OH228756   6.699   5.516  13.772  0.2607 -0.4097  0.2935
 2422TIP3    H128757   6.795   5.512  13.768  0.3694  0.6119  1.1494
 2422TIP3    H228758   6.681   5.549  13.860 -0.7909  1.4462 -0.5528
 2423TIP3   OH228759   1.884   3.423   0.811 -0.3864 -0.5137  0.9936
 2423TIP3    H128760   1.821   3.358   0.842 -0.5199 -0.2749  1.2312
 2423TIP3    H228761   1.860   3.436   0.719  0.8698 -2.2257  0.3731
 2424TIP3   OH228762   3.057   4.718  14.902 -0.4059  0.8791 -0.4102
 2424TIP3    H128763   3.035   4.655  14.833  1.2666  2.2007 -2.2504
 2424TIP3    H228764   3.006   4.796  14.881 -2.2840  0.3319  1.7263
 2425TIP3   OH228765   2.302   3.721  16.447  0.4150 -0.1983  0.6701
 2425TIP3    H128766   2.309   3.810  16.413  1.7378 -0.6536 -0.3649
 2425TIP3    H228767   2.216   3.691  16.419  0.5670  0.2406 -0.3135
 2426TIP3   OH228768   1.936   6.584   6.208  0.4507  0.5649  0.1536
 2426TIP3    H128769   1.971   6.618   6.290 -0.3764  0.2976  0.6321
 2426TIP3    H228770   1.906   6.662   6.161 -1.0449  0.5711  1.0593
 2427TIP3   OH228771   5.509   5.460  13.944  0.5400 -0.2853 -0.1282
 2427TIP3    H128772   5.540   5.543  13.908 -2.1043  0.6714 -0.3922
 2427TIP3    H228773   5.520   5.397  13.873  0.7124  0.2888 -0.6220
 2428TIP3   OH228774   5.937   3.558  15.912  0.2473  0.2789 -0.4865
 2428TIP3    H128775   5.962   3.519  15.995  0.6403  1.5665  0.0303
 2428TIP3    H228776   6.020   3.573  15.867  0.0221 -0.6961 -1.2702
 2429TIP3   OH228777   6.238   5.835   0.829 -0.4656 -0.4429  0.0314
 2429TIP3    H128778   6.147   5.864   0.841 -0.9142 -0.7429 -2.1368
 2429TIP3    H228779   6.250   5.835   0.734  1.1515 -2.4265  0.1776
 2430TIP3   OH228780   0.969   1.436   0.677  0.2951  0.1077 -0.0941
 2430TIP3    H128781   1.051   1.386   0.688 -0.2353 -1.7837 -3.2976
 2430TIP3    H228782   0.993   1.507   0.617 -0.2474 -0.0965 -0.5605
 2431TIP3   OH228783   3.058   0.548  14.221  0.0883 -0.0459 -0.3607
 2431TIP3    H128784   3.075   0.511  14.135 -0.0967 -2.0236  0.3884
 2431TIP3    H228785   2.966   0.528  14.239  0.4098 -0.6866  0.7128
 2432TIP3   OH228786   5.705   6.231   1.596 -0.1483  0.4252 -0.1664
 2432TIP3    H128787   5.730   6.323   1.609 -0.7159  0.3797  1.4887
 2432TIP3    H228788   5.674   6.202   1.682  1.2753 -1.7444 -0.3087
 2433TIP3   OH228789   6.084   1.694   4.020  0.1432  0.5048  0.0348
 2433TIP3    H128790   6.072   1.688   3.926  1.1743 -2.7307 -0.0035
 2433TIP3    H228791   6.175   1.668   4.035 -0.1336  0.4426  1.9545
 2434TIP3   OH228792   3.108   0.240  13.509  0.2578  0.4684 -0.3896
 2434TIP3    H128793   3.096   0.183  13.585  0.1641  0.7084 -0.2248
 2434TIP3    H228794   3.053   0.200  13.441 -0.0550  0.5393 -0.1802
 2435TIP3   OH228795   6.096   1.392  13.880 -0.3926  0.5738 -0.5813
 2435TIP3    H128796   6.112   1.460  13.814  0.1725  1.1585  0.1345
 2435TIP3    H228797   6.183   1.361  13.904 -0.6784 -1.0312 -1.5061
 2436TIP3   OH228798   3.139   6.445  11.495  0.4006  0.2206  0.3071
 2436TIP3    H128799   3.076   6.516  11.501 -0.3307 -0.2659 -1.1641
 2436TIP3    H228800   3.224   6.489  11.484 -0.1953  0.9343 -2.0789
 2437TIP3   OH228801   3.052   0.799  15.682 -0.2287  0.0030  0.4655
 2437TIP3    H128802   3.064   0.705  15.695  2.1875  0.0720 -0.7442
 2437TIP3    H228803   3.119   0.840  15.735 -0.2983  0.9688 -0.1583
 2438TIP3   OH228804   2.377   1.853  15.849 -0.9100  0.2708  0.1722
 2438TIP3    H128805   2.447   1.896  15.898 -1.1720  0.3352  0.4923
 2438TIP3    H228806   2.373   1.765  15.886 -1.1070  0.3187  0.2651
 2439TIP3   OH228807   3.730   2.108  13.560 -0.3013 -0.0230  1.1215
 2439TIP3    H128808   3.802   2.045  13.556 -1.7783 -1.8316  1.5478
 2439TIP3    H228809   3.762   2.185  13.513  1.9545 -0.6921  1.4779
 2440TIP3   OH228810   0.655   1.983  15.649 -0.7949  0.0244 -0.2998
 2440TIP3    H128811   0.745   2.011  15.666 -0.7148 -0.3891 -0.0308
 2440TIP3    H228812   0.601   2.044  15.699 -0.8116  1.9107 -2.4798
 2441TIP3   OH228813   6.506   0.079  13.506  0.1301 -0.2937 -0.1052
 2441TIP3    H128814   6.474   0.105  13.593 -0.4326 -2.1379  0.2678
 2441TIP3    H228815   6.537   0.161  13.467 -0.4333  0.7193  1.4786
 2442TIP3   OH228816   4.077   1.905  16.351  0.3156  0.0662  0.3375
 2442TIP3    H128817   4.132   1.832  16.321 -0.1354  0.4177 -1.4627
 2442TIP3    H228818   4.139   1.976  16.367  0.5524 -0.0547 -0.0279
 2443TIP3   OH228819   6.410   4.688   1.384  0.9101 -0.1305 -0.3895
 2443TIP3    H128820   6.505   4.703   1.382  1.0662 -0.1827  2.5509
 2443TIP3    H228821   6.402   4.592   1.377  1.2883 -0.3667  1.8791
 2444TIP3   OH228822   2.044   1.068  14.759 -0.0439 -0.0767 -0.1294
 2444TIP3    H128823   1.999   0.993  14.797  1.1957 -1.3083 -1.0082
 2444TIP3    H228824   2.121   1.081  14.815 -1.3216  1.9622  1.3153
 2445TIP3   OH228825   5.455   5.045  12.959  0.3647 -0.1596  0.0365
 2445TIP3    H128826   5.495   5.069  12.875 -2.3380  0.5206 -1.1907
 2445TIP3    H228827   5.474   5.118  13.017  1.8326 -0.3991 -0.0967
 2446TIP3   OH228828   1.044   6.096   2.376 -0.1837  0.2706 -0.2714
 2446TIP3    H128829   0.951   6.075   2.365 -0.4251  0.9920  0.3235
 2446TIP3    H228830   1.046   6.159   2.448  0.7938  0.0718 -0.1122
 2447TIP3   OH228831   1.353   2.814   0.755  0.1947  0.2949 -0.6148
 2447TIP3    H128832   1.382   2.799   0.845 -0.8656  0.9701 -0.1413
 2447TIP3    H228833   1.382   2.903   0.735 -0.4226  0.5058 -0.5900
 2448TIP3   OH228834   1.615   3.243   5.108  0.3106 -0.5477  0.6266
 2448TIP3    H128835   1.647   3.269   5.194  0.5303  1.0564  0.0977
 2448TIP3    H228836   1.681   3.182   5.075  1.6050  0.8423  0.5522
 2449TIP3   OH228837   0.408   1.494  16.448  0.8587  0.1855 -0.2758
 2449TIP3    H128838   0.451   1.464  16.528  2.0826 -0.3103 -1.0986
 2449TIP3    H228839   0.320   1.456  16.452  1.6065 -1.6253 -0.1894
 2450TIP3   OH228840   3.370   2.522   5.690  0.1553 -0.3072 -0.4575
 2450TIP3    H128841   3.287   2.560   5.719  1.2981  1.1739  1.1129
 2450TIP3    H228842   3.413   2.592   5.640  0.5678 -0.9817 -1.0796
 2451TIP3   OH228843   5.231   5.421   0.092 -0.0204 -0.4514 -0.0474
 2451TIP3    H128844   5.306   5.371   0.125 -0.1803 -0.9999 -0.5145
 2451TIP3    H228845   5.270   5.499   0.053  0.1872  0.1569  1.3134
 2452TIP3   OH228846   1.243   0.633  14.136  0.0142 -0.1664 -0.3705
 2452TIP3    H128847   1.226   0.603  14.225  1.0970 -1.1398 -0.4786
 2452TIP3    H228848   1.185   0.709  14.125 -0.4537 -0.3040  0.9984
 2453TIP3   OH228849   3.611   6.603   3.046  0.3785  0.0716  0.1011
 2453TIP3    H128850   3.574   6.535   3.101 -1.0418 -0.4708 -1.4428
 2453TIP3    H228851   3.611   6.682   3.100 -1.6782 -0.2618  0.6391
 2454TIP3   OH228852   2.059   1.399   3.056  0.1115  0.0402  0.0126
 2454TIP3    H128853   2.086   1.437   2.973  0.4883 -0.3035 -0.0250
 2454TIP3    H228854   2.064   1.305   3.042 -0.6901 -0.0324  0.1434
 2455TIP3   OH228855   0.392   3.780  15.362 -0.0633 -0.4320 -0.0023
 2455TIP3    H128856   0.476   3.772  15.409 -0.8300 -0.2394  1.4569
 2455TIP3    H228857   0.333   3.821  15.425 -1.0423  0.2344 -1.3028
 2456TIP3   OH228858   1.452   3.937   1.367 -0.3643  0.5196 -0.1801
 2456TIP3    H128859   1.384   3.886   1.410  0.5298  0.2507  0.9554
 2456TIP3    H228860   1.427   4.028   1.380 -1.0524  0.4093 -0.6971
 2457TIP3   OH228861   5.918   6.177   2.400  0.7249  0.7298 -0.3867
 2457TIP3    H128862   5.907   6.130   2.482 -1.3769  2.6216  0.5422
 2457TIP3    H228863   6.007   6.156   2.371  1.3178 -0.4603  2.0514
 2458TIP3   OH228864   5.614   2.397  12.339  0.0445 -0.4100 -0.6452
 2458TIP3    H128865   5.704   2.415  12.312  0.1816 -0.4182 -0.2123
 2458TIP3    H228866   5.567   2.379  12.258  0.3774 -0.1543 -0.8962
 2459TIP3   OH228867   5.972   5.307   4.496 -0.1184  0.1998 -0.3340
 2459TIP3    H128868   6.057   5.271   4.472  0.3199  2.2601 -2.2976
 2459TIP3    H228869   5.980   5.332   4.588  1.1544 -0.2648 -0.3087
 2460TIP3   OH228870   5.312   4.251  15.985  0.4566  0.1314 -0.1060
 2460TIP3    H128871   5.372   4.195  16.034 -0.6727 -0.3362  0.7847
 2460TIP3    H228872   5.369   4.300  15.925  1.7749  0.0195  0.9936
 2461TIP3   OH228873   2.454   1.009  13.242  0.0186  0.1637  0.0823
 2461TIP3    H128874   2.487   0.982  13.156  0.1526  2.7150 -0.7397
 2461TIP3    H228875   2.410   1.092  13.226  3.3935  2.8303  2.9564
 2462TIP3   OH228876   2.861   4.269   4.943  0.3013 -0.5523 -0.3671
 2462TIP3    H128877   2.916   4.345   4.963  1.0012 -0.1444 -3.3357
 2462TIP3    H228878   2.786   4.307   4.896  0.3230 -1.5928 -1.2798
 2463TIP3   OH228879   6.047   5.045  13.663  0.0147  0.1933  0.0337
 2463TIP3    H128880   6.139   5.044  13.639  0.5320 -3.0686  1.6244
 2463TIP3    H228881   6.040   5.114  13.729  1.3438  0.4532 -0.0775
 2464TIP3   OH228882   3.972   0.994   2.971  0.3063  0.0768  0.4959
 2464TIP3    H128883   3.892   1.041   2.991 -0.5288 -0.3347 -1.6354
 2464TIP3    H228884   3.944   0.919   2.918  2.1481  0.4062 -1.0698
 2465TIP3   OH228885   5.203   6.103  10.615  0.4953  0.7573  0.0921
 2465TIP3    H128886   5.182   6.083  10.523 -0.5209  2.8611 -0.2069
 2465TIP3    H228887   5.118   6.116  10.656  0.8842 -1.1416  1.6503
 2466TIP3   OH228888   2.119   4.484  15.264 -0.1387  0.0920 -0.3274
 2466TIP3    H128889   2.081   4.550  15.206  0.0371  1.6022  1.1673
 2466TIP3    H228890   2.210   4.513  15.277  0.2305 -1.0029 -0.4130
 2467TIP3   OH228891   0.109   4.799   4.142  0.2848  0.0929 -0.3024
 2467TIP3    H128892   0.171   4.870   4.161 -0.5059  0.5542  0.5878
 2467TIP3    H228893   0.079   4.769   4.227 -0.8673 -0.0009 -0.7212
 2468TIP3   OH228894   2.059   0.995  15.288  0.2398 -0.2183  0.4142
 2468TIP3    H128895   2.133   1.029  15.237  1.0302 -0.4175  1.4013
 2468TIP3    H228896   2.096   0.974  15.374 -1.0021 -0.1824  0.9798
 2469TIP3   OH228897   5.711   1.640  17.058  0.0626 -0.4422 -0.0665
 2469TIP3    H128898   5.720   1.549  17.084  0.4182 -0.2599  0.4663
 2469TIP3    H228899   5.617   1.652  17.045  0.1952 -1.5965 -2.8358
 2470TIP3   OH228900   6.769   6.401  14.236 -0.3760  0.4582  0.3534
 2470TIP3    H128901   6.726   6.316  14.243  0.0854  0.0133 -1.7347
 2470TIP3    H228902   6.851   6.390  14.285  0.5474 -0.9530 -1.3792
 2471TIP3   OH228903   2.833   0.421   1.440 -0.4693 -0.7640  0.3846
 2471TIP3    H128904   2.807   0.372   1.362 -1.2063 -0.3458  0.3576
 2471TIP3    H228905   2.921   0.453   1.421  0.6912 -3.3267  0.9996
 2472TIP3   OH228906   0.543   2.305   1.453 -0.4369 -0.5965  0.0585
 2472TIP3    H128907   0.562   2.262   1.370  0.0170  0.7643 -0.5663
 2472TIP3    H228908   0.472   2.366   1.433  1.2778  1.5258  0.0383
 2473TIP3   OH228909   6.578   2.273   4.748  0.2541  0.2718  0.5343
 2473TIP3    H128910   6.554   2.307   4.835  0.9949 -0.3307  0.9831
 2473TIP3    H228911   6.544   2.183   4.748  0.7236  0.0945  0.4013
 2474TIP3   OH228912   0.981   4.025   6.556  0.0626 -0.2751 -0.2621
 2474TIP3    H128913   0.992   4.005   6.463  0.7992 -2.8495  0.3027
 2474TIP3    H228914   1.006   4.117   6.564  1.4493 -0.4030 -2.3708
 2475TIP3   OH228915   5.031   2.660   0.221  0.1864  0.6431 -0.3277
 2475TIP3    H128916   5.110   2.668   0.274  1.1463  0.4400 -1.7047
 2475TIP3    H228917   5.007   2.750   0.200  0.7514  0.6643 -0.9072
 2476TIP3   OH228918   3.102   3.184   1.681  0.0550  0.9138 -0.1587
 2476TIP3    H128919   3.148   3.119   1.734 -0.1513 -0.2766 -1.3507
 2476TIP3    H228920   3.030   3.134   1.641 -0.9631  2.2249 -0.0060
 2477TIP3   OH228921   2.790   5.602  13.829  0.7745  0.2151  0.1015
 2477TIP3    H128922   2.722   5.550  13.872 -0.4815  1.3841 -0.3482
 2477TIP3    H228923   2.748   5.632  13.748  2.1708  0.2122 -0.6388
 2478TIP3   OH228924   2.443   1.614  15.999 -0.5626 -0.0042  0.2516
 2478TIP3    H128925   2.365   1.583  16.046  0.3254 -2.1436  0.4122
 2478TIP3    H228926   2.453   1.553  15.926  1.1725  0.0023  0.4534
 2479TIP3   OH228927   4.750   6.590  12.802 -0.3502  0.4103  1.1237
 2479TIP3    H128928   4.842   6.605  12.824 -0.1210  0.3517  0.2581
 2479TIP3    H228929   4.723   6.519  12.859  0.6783 -0.8104  0.1478
 2480TIP3   OH228930   3.982   3.627  10.706 -0.1582 -0.3115 -0.5408
 2480TIP3    H128931   3.954   3.538  10.728  0.1297 -0.5482 -1.1042
 2480TIP3    H228932   3.952   3.640  10.616 -0.2718  0.1961 -0.4312
 2481TIP3   OH228933   0.870   0.603   3.369  0.0090  0.0103 -0.1065
 2481TIP3    H128934   0.945   0.643   3.412  0.9602 -0.3070 -1.4203
 2481TIP3    H228935   0.799   0.666   3.381  0.3321  0.0939  1.5654
 2482TIP3   OH228936   0.449   3.663  16.701 -0.1194 -0.5001  0.6952
 2482TIP3    H128937   0.392   3.650  16.625 -1.2751  0.6893  1.3349
 2482TIP3    H228938   0.528   3.703  16.665 -0.2847 -0.7732  0.0099
 2483TIP3   OH228939   5.866   6.279  14.684 -0.5599  0.5053  0.0913
 2483TIP3    H128940   5.929   6.349  14.696 -0.9958  1.1312 -1.0392
 2483TIP3    H228941   5.817   6.304  14.605 -2.8733  0.5611  1.4301
 2484TIP3   OH228942   3.423   4.569   1.028  0.5541  0.5525  0.1922
 2484TIP3    H128943   3.437   4.543   0.937 -1.3210  0.0915 -0.0097
 2484TIP3    H228944   3.509   4.595   1.059  1.8327 -2.1213 -0.8108
 2485TIP3   OH228945   6.497   5.118   1.339 -0.3213  0.6611  0.1833
 2485TIP3    H128946   6.417   5.087   1.382 -1.1664  1.6341 -0.6286
 2485TIP3    H228947   6.479   5.105   1.245  0.1378  1.6447 -0.0499
 2486TIP3   OH228948   5.890   3.675   0.312  0.4788  0.1223 -0.2326
 2486TIP3    H128949   5.891   3.712   0.401 -2.4094 -2.2810  0.9922
 2486TIP3    H228950   5.802   3.693   0.280  1.0503 -0.2441 -2.0910
 2487TIP3   OH228951   1.510   5.564  12.700 -0.3126 -0.0885 -0.0226
 2487TIP3    H128952   1.459   5.622  12.644  0.8263  0.9150 -0.0661
 2487TIP3    H228953   1.482   5.586  12.789  1.8605  2.4696  0.1866
 2488TIP3   OH228954   4.094   5.937   0.521  0.0371  0.0869  0.1018
 2488TIP3    H128955   4.102   5.886   0.440  0.4900  1.2010 -0.5859
 2488TIP3    H228956   4.159   5.899   0.580  1.0238  0.4421 -0.7269
 2489TIP3   OH228957   1.929   2.286  13.122 -0.1451 -0.0720  0.2536
 2489TIP3    H128958   1.919   2.323  13.210 -0.0551 -0.8208  0.5885
 2489TIP3    H228959   1.976   2.353  13.073 -0.5217  0.5120  0.6679
 2490TIP3   OH228960   1.556   3.615  12.672 -0.1239 -0.3198  0.5604
 2490TIP3    H128961   1.477   3.657  12.640 -0.6381  0.7697  3.0169
 2490TIP3    H228962   1.533   3.522  12.678 -0.8241 -0.1704  0.2278
 2491TIP3   OH228963   5.784   1.229  15.935 -0.0386  0.2389  0.0523
 2491TIP3    H128964   5.707   1.264  15.978 -0.7428  0.0512 -1.0134
 2491TIP3    H228965   5.758   1.220  15.843  0.5870 -1.7009  0.0241
 2492TIP3   OH228966   1.048   2.832  15.373 -0.1566  0.1574  0.3780
 2492TIP3    H128967   1.124   2.826  15.431 -0.2573 -0.6547  0.4330
 2492TIP3    H228968   0.973   2.819  15.431 -0.2853 -0.0578  0.1663
 2493TIP3   OH228969   3.975   5.891   2.680  0.0530 -0.2125  0.0500
 2493TIP3    H128970   4.019   5.899   2.764 -0.8166  0.1671  0.4887
 2493TIP3    H228971   3.890   5.851   2.701 -0.1562 -0.1532 -0.6473
 2494TIP3   OH228972   5.554   3.832  13.443  0.4530 -0.0803 -0.4299
 2494TIP3    H128973   5.556   3.868  13.532  0.4912 -2.4137  0.5811
 2494TIP3    H228974   5.643   3.843  13.411  0.5924  0.2573  0.0552
 2495TIP3   OH228975   1.811   5.171   4.174  0.1751  0.2168  0.1716
 2495TIP3    H128976   1.840   5.128   4.094  4.1953  0.3513  1.3103
 2495TIP3    H228977   1.823   5.265   4.157  3.2448  0.1803  1.4440
 2496TIP3   OH228978   6.821   1.357   1.310 -0.1221  0.1831  0.0379
 2496TIP3    H128979   6.729   1.384   1.308 -0.7753 -1.8529  0.4206
 2496TIP3    H228980   6.845   1.346   1.218 -0.2199  0.7886 -0.0654
 2497TIP3   OH228981   4.737   4.456   4.069 -0.1160 -0.1618  0.4254
 2497TIP3    H128982   4.766   4.543   4.041 -0.6613  0.5062  1.8539
 2497TIP3    H228983   4.730   4.406   3.988  1.4307  0.7305 -0.3114
 2498TIP3   OH228984   4.810   0.171   2.894 -0.3238  0.4544  0.7507
 2498TIP3    H128985   4.722   0.144   2.918  0.2818 -1.4896  1.0350
 2498TIP3    H228986   4.853   0.189   2.978 -0.0915  0.1470  0.6990
 2499TIP3   OH228987   2.579   6.033   0.135 -0.3437 -0.3046  0.2036
 2499TIP3    H128988   2.577   6.031   0.231 -0.3014  1.0400  0.2557
 2499TIP3    H228989   2.617   6.118   0.114  0.3110 -0.8750 -1.0155
 2500TIP3   OH228990   6.381   4.203   2.599  0.1938 -0.0265  0.4319
 2500TIP3    H128991   6.410   4.230   2.512  1.1243 -0.4722  0.5875
 2500TIP3    H228992   6.288   4.182   2.588 -0.1099  1.5018 -0.0718
 2501TIP3   OH228993   3.735   2.002  16.159  0.7548 -0.2175 -0.6709
 2501TIP3    H128994   3.720   2.081  16.108 -1.3271 -0.6622 -0.8600
 2501TIP3    H228995   3.748   1.933  16.094  0.9103 -0.3043 -0.5474
 2502TIP3   OH228996   6.550   0.393  16.235  0.4784  0.0436  0.5576
 2502TIP3    H128997   6.561   0.299  16.248  2.3183  0.1538  0.1272
 2502TIP3    H228998   6.504   0.401  16.151 -0.2913 -0.4562  0.9179
 2503TIP3   OH228999   1.456   5.169  15.522  0.4515  0.8042  0.0230
 2503TIP3    H129000   1.373   5.129  15.495  1.6036 -2.2359  0.6010
 2503TIP3    H229001   1.506   5.177  15.441  1.0036 -1.0307  0.1472
 2504TIP3   OH229002   1.550   5.373   1.124 -0.0303  0.3925 -0.4849
 2504TIP3    H129003   1.609   5.332   1.187 -0.2138  1.0899  0.1594
 2504TIP3    H229004   1.507   5.300   1.080 -0.8119 -0.1103  1.0658
 2505TIP3   OH229005   6.174   4.616   1.163 -0.0846 -0.3630 -1.0065
 2505TIP3    H129006   6.223   4.699   1.160 -0.9384  0.4013  1.9294
 2505TIP3    H229007   6.239   4.551   1.187  0.1969 -0.0856 -1.0093
 2506TIP3   OH229008   4.877   5.792   6.482 -0.1723 -1.1026  0.0637
 2506TIP3    H129009   4.807   5.855   6.465 -0.0184 -1.4322 -2.0602
 2506TIP3    H229010   4.955   5.846   6.496 -0.4289 -0.7828  0.2847
 2507TIP3   OH229011   1.688   4.215  15.667 -0.3156  0.2302  0.0590
 2507TIP3    H129012   1.696   4.271  15.743 -0.0933 -1.2379  1.1609
 2507TIP3    H229013   1.594   4.198  15.659 -0.3266  0.2861  0.0728
 2508TIP3   OH229014   4.982   6.563  13.973  0.4203  0.5809  0.1201
 2508TIP3    H129015   4.972   6.651  13.937  1.9555  0.6480 -0.2031
 2508TIP3    H229016   5.007   6.578  14.065  1.8325  0.5349 -0.2347
 2509TIP3   OH229017   4.372   5.955   3.011 -0.3631  0.1548  0.1928
 2509TIP3    H129018   4.355   5.922   3.099  0.2916 -0.2370  0.1708
 2509TIP3    H229019   4.311   6.029   3.002 -0.8953 -0.2043  0.7273
 2510TIP3   OH229020   5.951   0.627  11.957  0.4702  0.0620  0.3587
 2510TIP3    H129021   5.951   0.562  12.027  0.1940 -0.2984  0.0328
 2510TIP3    H229022   5.870   0.676  11.971  0.2933 -0.1659  0.1579
 2511TIP3   OH229023   0.303   4.582   0.921  0.5487 -0.6539  0.1479
 2511TIP3    H129024   0.263   4.560   0.836  0.9855 -0.5277 -0.0922
 2511TIP3    H229025   0.391   4.612   0.899  1.3053 -2.2529  0.7655
 2512TIP3   OH229026   2.720   6.659   4.423  0.0179 -0.2230 -0.4754
 2512TIP3    H129027   2.688   6.730   4.366  0.5432  0.6786  0.3267
 2512TIP3    H229028   2.650   6.594   4.422  0.1406 -0.4063 -2.4178
 2513TIP3   OH229029   0.516   1.938  15.915  0.0307 -0.3296  0.0533
 2513TIP3    H129030   0.483   1.849  15.927 -1.6538  0.4564  1.9865
 2513TIP3    H229031   0.583   1.948  15.983 -0.3755  0.1140  0.3959
 2514TIP3   OH229032   2.209   6.584  11.662 -0.1640  0.1800  0.0325
 2514TIP3    H129033   2.214   6.561  11.755 -0.5088  1.5808  0.4306
 2514TIP3    H229034   2.186   6.503  11.618 -1.6422 -0.1632  1.3622
 2515TIP3   OH229035   5.871   6.679   0.287 -0.4069 -0.2661 -0.0981
 2515TIP3    H129036   5.929   6.740   0.332 -0.9748  1.3839 -1.4885
 2515TIP3    H229037   5.791   6.677   0.340 -0.4666  0.3777 -0.1643
 2516TIP3   OH229038   2.596   2.852   5.734  0.0120 -0.3498 -0.1354
 2516TIP3    H129039   2.678   2.898   5.718 -0.4961  2.0471  3.0331
 2516TIP3    H229040   2.621   2.773   5.781  0.6020 -0.9280 -1.3773
 2517TIP3   OH229041   5.163   3.625  13.243  0.8398  0.5207  0.2871
 2517TIP3    H129042   5.242   3.678  13.249  0.7840  0.8761 -1.3806
 2517TIP3    H229043   5.139   3.605  13.333  2.3666  1.0915  0.8374
 2518TIP3   OH229044   1.225   1.329   0.705  0.8240  0.0050 -0.4623
 2518TIP3    H129045   1.256   1.263   0.767  0.5247 -0.5752 -0.9125
 2518TIP3    H229046   1.281   1.317   0.628  0.3859 -0.1260 -0.7645
 2519TIP3   OH229047   3.350   5.543   4.249  0.1763  0.0461 -0.2955
 2519TIP3    H129048   3.396   5.623   4.222  1.5251 -0.0558  1.5046
 2519TIP3    H229049   3.420   5.479   4.261 -0.8468 -1.3135 -1.2555
 2520TIP3   OH229050   1.820   0.876  15.209 -0.3740 -0.0876 -0.1542
 2520TIP3    H129051   1.817   0.870  15.113 -2.2618  0.4023 -0.1566
 2520TIP3    H229052   1.901   0.924  15.227  0.3273 -0.7317 -1.4611
 2521TIP3   OH229053   4.741   1.126   0.061  0.1779 -0.1363  0.2972
 2521TIP3    H129054   4.754   1.141   0.154 -1.6472 -0.3784  0.6260
 2521TIP3    H229055   4.688   1.047   0.057 -0.1630  0.1364 -0.9348
 2522TIP3   OH229056   0.130   4.010  10.344 -0.1146  0.5760  0.0596
 2522TIP3    H129057   0.105   4.093  10.386  0.9585  0.6526  0.5939
 2522TIP3    H229058   0.226   4.011  10.345 -0.0429 -1.5237  1.8154
 2523TIP3   OH229059   5.976   2.185   4.828 -0.2138 -0.0276 -0.0508
 2523TIP3    H129060   5.893   2.196   4.782  0.8033  1.8237 -1.5770
 2523TIP3    H229061   6.043   2.207   4.763  1.4512 -0.7727  1.3389
 2524TIP3   OH229062   1.590   5.452  15.890 -0.0993 -0.5899 -0.5055
 2524TIP3    H129063   1.669   5.418  15.849 -0.2477 -0.4043 -0.9598
 2524TIP3    H229064   1.518   5.409  15.844 -0.2714 -0.3195 -0.4956
 2525TIP3   OH229065   1.893   6.668   3.347  0.1168  0.2619  0.2330
 2525TIP3    H129066   1.798   6.676   3.338 -0.1319 -1.0097  1.4050
 2525TIP3    H229067   1.915   6.585   3.304  0.6224  0.3189  0.3675
 2526TIP3   OH229068   2.661   0.929  16.231  0.3359  0.4403 -0.0839
 2526TIP3    H129069   2.660   0.893  16.142  0.2715 -0.7657  0.3803
 2526TIP3    H229070   2.650   1.023  16.219 -1.6595  0.1261 -1.2674
 2527TIP3   OH229071   6.452   2.936   4.596 -0.1171  0.3564  0.4518
 2527TIP3    H129072   6.508   2.972   4.665  1.0924  1.9753 -1.2609
 2527TIP3    H229073   6.401   2.867   4.639  1.9468 -0.0025  2.4774
 2528TIP3   OH229074   5.482   0.967  11.687 -0.4135  0.6329  0.2025
 2528TIP3    H129075   5.573   0.957  11.715  0.2839  0.3320 -1.9743
 2528TIP3    H229076   5.462   0.887  11.639 -1.4749  1.1283 -0.2210
 2529TIP3   OH229077   0.183   2.895   2.730  0.3256  0.3892 -0.0947
 2529TIP3    H129078   0.183   2.829   2.800  1.3185  0.2908 -0.1851
 2529TIP3    H229079   0.097   2.886   2.689 -0.6498  1.0500  1.6723
 2530TIP3   OH229080   1.377   2.380  11.123  0.1981  0.6268 -0.1317
 2530TIP3    H129081   1.366   2.292  11.089 -1.4162  0.1247  1.5685
 2530TIP3    H229082   1.465   2.381  11.161  0.1893 -0.2880 -0.0852
 2531TIP3   OH229083   5.991   1.556   1.968  0.1049 -0.4592  0.4765
 2531TIP3    H129084   5.916   1.500   1.950  0.2621 -0.5126 -0.0527
 2531TIP3    H229085   5.993   1.565   2.063 -2.4195  2.0551  0.4200
 2532TIP3   OH229086   5.647   1.365   3.434  0.1232 -0.2142 -0.1765
 2532TIP3    H129087   5.727   1.319   3.411  1.0246  0.2756  1.7437
 2532TIP3    H229088   5.653   1.449   3.388  0.9111 -0.0362  0.2299
 2533TIP3   OH229089   0.556   4.300   1.386  0.3740  0.2071  0.5417
 2533TIP3    H129090   0.499   4.377   1.393 -0.8697 -0.3445 -2.0834
 2533TIP3    H229091   0.640   4.329   1.421 -0.3769  2.3842  0.7214
 2534TIP3   OH229092   0.227   1.783  10.848 -0.1052  0.2664 -0.6639
 2534TIP3    H129093   0.156   1.774  10.911  0.4101  2.4429  0.3262
 2534TIP3    H229094   0.183   1.799  10.764 -0.8098  1.2015 -0.1350
 2535TIP3   OH229095   1.338   3.630  11.173 -0.4998 -0.3165  0.4013
 2535TIP3    H129096   1.377   3.566  11.233 -2.0822 -1.2428  0.4984
 2535TIP3    H229097   1.280   3.578  11.117 -0.3073  0.7683 -0.8623
 2536TIP3   OH229098   4.281   5.267  14.608  0.1570  0.1848  0.0545
 2536TIP3    H129099   4.304   5.309  14.525  0.0066 -0.1794 -0.1738
 2536TIP3    H229100   4.325   5.320  14.674  1.1010 -0.0900 -0.3233
 2537TIP3   OH229101   1.686   4.201   1.074 -0.0038  0.3465 -0.3058
 2537TIP3    H129102   1.612   4.243   1.031  0.8495  0.9953 -1.1701
 2537TIP3    H229103   1.763   4.231   1.025  0.9572  0.7314  1.3589
 2538TIP3   OH229104   6.194   6.723   2.020 -0.4470 -0.0283 -0.4581
 2538TIP3    H129105   6.174   6.758   1.933  2.2375  2.0806 -0.3708
 2538TIP3    H229106   6.164   6.791   2.081 -0.9813 -0.8368  0.2133
 2539TIP3   OH229107   2.742   5.356   1.223 -0.0555 -0.1608 -0.1647
 2539TIP3    H129108   2.769   5.265   1.232  0.6459 -0.4116 -3.3542
 2539TIP3    H229109   2.740   5.371   1.128 -0.7693  2.9712  0.2212
 2540TIP3   OH229110   3.900   4.658  16.104  0.0557  0.0126 -0.1750
 2540TIP3    H129111   3.904   4.640  16.198  1.3445  1.0317 -0.0024
 2540TIP3    H229112   3.990   4.645  16.073 -0.3781 -0.4561 -1.3117
 2541TIP3   OH229113   2.246   2.072  13.594 -0.2512 -0.0022 -0.0644
 2541TIP3    H129114   2.185   2.126  13.644  0.6255  2.0574 -1.0888
 2541TIP3    H229115   2.218   2.082  13.503  0.6320 -0.3496 -0.3887
 2542TIP3   OH229116   4.629   5.666  14.404  0.6034  0.4878 -0.2743
 2542TIP3    H129117   4.677   5.630  14.329  2.3844  0.9345  0.5890
 2542TIP3    H229118   4.580   5.740  14.367 -0.7327 -0.9358 -1.4822
 2543TIP3   OH229119   0.940   4.027  13.506  0.4025  0.0306  0.3189
 2543TIP3    H129120   0.887   3.964  13.456 -1.5651  0.5525  1.6291
 2543TIP3    H229121   1.023   3.982  13.521  0.2413 -0.9849 -1.4870
 2544TIP3   OH229122   2.809   2.171   2.136 -0.2315  0.4539  0.0774
 2544TIP3    H129123   2.747   2.243   2.126 -0.9132 -0.2646 -1.0533
 2544TIP3    H229124   2.795   2.115   2.060  2.2626  0.5799 -0.5676
 2545TIP3   OH229125   6.425   5.698   4.925 -0.1538  0.0297 -0.0566
 2545TIP3    H129126   6.412   5.606   4.946 -2.2312  0.4679  0.8976
 2545TIP3    H229127   6.338   5.730   4.902  0.2175  2.0778  1.1241
 2546TIP3   OH229128   5.189   2.146  15.953  0.3488  0.2094 -0.4449
 2546TIP3    H129129   5.213   2.224  16.004 -0.3254  0.4673 -0.5137
 2546TIP3    H229130   5.097   2.159  15.933 -0.1023 -1.1946  0.5971
 2547TIP3   OH229131   3.746   1.560  12.701  0.3606 -0.3035  0.1702
 2547TIP3    H129132   3.840   1.552  12.681  0.0564 -2.2848 -0.8004
 2547TIP3    H229133   3.726   1.652  12.686  1.7770 -0.2094 -1.5098
 2548TIP3   OH229134   0.005   5.581   2.743  0.5465  0.3110 -0.4468
 2548TIP3    H129135   0.040   5.638   2.812  0.6186 -0.3633  0.0918
 2548TIP3    H229136   0.076   5.575   2.679  1.0646 -0.2516  0.1559
 2549TIP3   OH229137   1.608   3.949  12.580  0.4838 -0.0312 -0.3969
 2549TIP3    H129138   1.611   3.989  12.667  1.7836  0.2967 -0.5693
 2549TIP3    H229139   1.521   3.908  12.576  0.9001 -1.2533  1.5709
 2550TIP3   OH229140   2.220   3.366  12.682  0.0493  0.1359 -0.2783
 2550TIP3    H129141   2.251   3.408  12.602 -0.6363 -0.2511 -0.7542
 2550TIP3    H229142   2.226   3.434  12.749 -1.3169  1.0874 -1.0859
 2551TIP3   OH229143   5.204   5.477  15.719  0.0616 -0.2306  0.1334
 2551TIP3    H129144   5.262   5.464  15.794  0.7072  0.6281 -0.2096
 2551TIP3    H229145   5.149   5.551  15.744  1.0493  0.8095 -0.6783
 2552TIP3   OH229146   5.302   5.202   1.832 -0.0274  0.1306 -0.2061
 2552TIP3    H129147   5.252   5.283   1.839  1.9092  1.3057  0.9600
 2552TIP3    H229148   5.304   5.183   1.738 -1.7799  0.5667 -0.3616
 2553TIP3   OH229149   1.020   0.542   3.137 -0.5756 -0.4787  0.2051
 2553TIP3    H129150   0.983   0.554   3.225  2.7776  0.4780  1.6427
 2553TIP3    H229151   1.022   0.630   3.100  1.8531 -0.1265  0.9740
 2554TIP3   OH229152   5.716   2.051  11.987  0.3993  0.9291 -0.2330
 2554TIP3    H129153   5.675   2.012  12.064  3.7847 -1.1303  0.7453
 2554TIP3    H229154   5.688   1.995  11.914  0.4129  0.3570  0.1911
 2555TIP3   OH229155   5.179   3.638   1.408 -0.1730  0.4479  0.4701
 2555TIP3    H129156   5.254   3.622   1.350 -1.5990 -2.5891 -0.7580
 2555TIP3    H229157   5.122   3.695   1.357 -0.1181  0.1820  0.1087
 2556TIP3   OH229158   4.814   4.374   1.071 -0.5703 -0.3255 -0.1920
 2556TIP3    H129159   4.873   4.412   1.137  0.1681 -0.4394 -0.7696
 2556TIP3    H229160   4.778   4.296   1.112  0.0146 -0.4876  0.0253
 2557TIP3   OH229161   6.227   0.579   4.958  0.0062 -0.0908  0.4192
 2557TIP3    H129162   6.274   0.628   4.891 -0.9253  3.0603  1.8594
 2557TIP3    H229163   6.141   0.563   4.921  0.2639 -0.5242 -0.0016
 2558TIP3   OH229164   0.162   5.602  14.090 -0.0134  0.2497 -0.0224
 2558TIP3    H129165   0.206   5.659  14.027  0.0519  1.1464  0.8125
 2558TIP3    H229166   0.088   5.653  14.121 -0.1797 -0.2767  0.4580
 2559TIP3   OH229167   0.321   1.548   1.351  0.5573 -0.2057  0.2300
 2559TIP3    H129168   0.410   1.535   1.384  0.4464  1.0032  1.0660
 2559TIP3    H229169   0.319   1.639   1.322 -0.5710 -0.0243  0.7992
 2560TIP3   OH229170   0.853   6.192   5.727 -0.5253  0.1349 -0.4601
 2560TIP3    H129171   0.778   6.209   5.785  0.0655  1.2747  0.0121
 2560TIP3    H229172   0.878   6.102   5.745 -0.8142  0.2381  0.5409
 2561TIP3   OH229173   0.918   1.698   3.285  0.5885  0.3259  0.2274
 2561TIP3    H129174   0.934   1.648   3.365 -0.3676  0.9569  0.8363
 2561TIP3    H229175   0.985   1.766   3.284 -0.6906  1.7037  1.6954
 2562TIP3   OH229176   3.651   1.831  12.638  0.2349 -0.4511  0.2630
 2562TIP3    H129177   3.693   1.838  12.552 -2.3121  0.3606 -1.0150
 2562TIP3    H229178   3.569   1.785  12.621  0.5240 -2.0157  2.6550
 2563TIP3   OH229179   1.718   1.558   2.013 -0.5989  0.0324  0.1150
 2563TIP3    H129180   1.640   1.539   2.067  0.2693 -1.3905  0.9629
 2563TIP3    H229181   1.746   1.644   2.041 -0.7071 -0.2997  1.3084
 2564TIP3   OH229182   3.427   2.704  12.332 -0.2512  0.0074  0.5710
 2564TIP3    H129183   3.502   2.757  12.305 -1.0620  2.2723  2.4490
 2564TIP3    H229184   3.448   2.615  12.302  1.2368  1.2771 -2.6297
 2565TIP3   OH229185   4.301   5.463   2.572 -0.3793  0.0003 -0.1425
 2565TIP3    H129186   4.232   5.406   2.538 -0.2374 -1.5753  1.9973
 2565TIP3    H229187   4.256   5.544   2.594 -0.9943 -0.0084 -1.2712
 2566TIP3   OH229188   0.171   2.857   2.092 -0.0311 -0.1964 -0.1286
 2566TIP3    H129189   0.148   2.766   2.074  0.3387 -0.4238  0.5092
 2566TIP3    H229190   0.119   2.880   2.169 -1.6899  0.7993 -1.4738
 2567TIP3   OH229191   2.337   0.415   3.055  0.2837  0.5810  0.2086
 2567TIP3    H129192   2.376   0.356   2.990  0.1908  2.8087 -2.0024
 2567TIP3    H229193   2.406   0.477   3.077 -0.0651  0.5943  1.3463
 2568TIP3   OH229194   2.905   1.172   4.757  0.3620 -0.5983 -0.5014
 2568TIP3    H129195   2.913   1.255   4.803 -1.0516 -2.5105  3.6966
 2568TIP3    H229196   2.820   1.177   4.714 -0.4347 -0.3173  1.0153
 2569TIP3   OH229197   2.319   2.164  12.694  0.0377 -0.3904  0.2954
 2569TIP3    H129198   2.405   2.158  12.736  0.2042  0.9063  0.1974
 2569TIP3    H229199   2.334   2.220  12.617 -0.8846 -0.1559  0.2734
 2570TIP3   OH229200   0.177   3.514  12.114 -0.4466 -0.2976 -0.8852
 2570TIP3    H129201   0.176   3.443  12.049  0.9796 -0.8373 -0.3473
 2570TIP3    H229202   0.220   3.586  12.069 -0.2400 -0.3814 -0.8205
 2571TIP3   OH229203   5.793   0.831  16.372 -0.4054  0.3019  0.8226
 2571TIP3    H129204   5.708   0.853  16.410 -0.0122  0.5045  1.5902
 2571TIP3    H229205   5.843   0.913  16.375  0.1031 -0.0181  1.1298
 2572TIP3   OH229206   5.653   3.065   2.788 -0.2552  0.0256  0.2582
 2572TIP3    H129207   5.707   3.008   2.733  0.9821  2.0372 -0.7418
 2572TIP3    H229208   5.596   3.005   2.837  0.4736 -1.9854 -1.2336
 2573TIP3   OH229209   0.294   1.850   0.392  0.8467 -0.0708  0.1407
 2573TIP3    H129210   0.355   1.795   0.343  0.6569  0.1907 -0.3911
 2573TIP3    H229211   0.276   1.924   0.335 -0.8616 -0.6978 -0.2004
 2574TIP3   OH229212   2.313   1.278  11.687  0.7421  0.0395  0.0297
 2574TIP3    H129213   2.282   1.197  11.729 -2.2677  1.9464  1.8768
 2574TIP3    H229214   2.348   1.330  11.759 -2.0010  2.2909 -0.0969
 2575TIP3   OH229215   5.883   5.474   3.138  0.2122 -0.0496 -0.2242
 2575TIP3    H129216   5.937   5.548   3.169  0.9467 -0.2578 -0.9650
 2575TIP3    H229217   5.874   5.418   3.215  0.9135  0.0858 -0.0288
 2576TIP3   OH229218   5.664   5.256  12.417 -0.2051 -0.0524 -0.0524
 2576TIP3    H129219   5.750   5.215  12.415 -0.5961 -0.9537  0.7462
 2576TIP3    H229220   5.654   5.286  12.508 -1.3326 -1.3054  0.2621
 2577TIP3   OH229221   6.689   3.481  12.108  0.4314 -0.8487  0.2830
 2577TIP3    H129222   6.739   3.470  12.189  0.8519 -1.6829 -0.0819
 2577TIP3    H229223   6.693   3.396  12.065 -0.6233 -0.6966 -0.1527
 2578TIP3   OH229224   2.201   0.356   5.778 -0.4010 -0.1663  0.1941
 2578TIP3    H129225   2.221   0.281   5.721  1.7172  0.7123 -0.2991
 2578TIP3    H229226   2.233   0.330   5.864 -0.1189 -0.0252  0.1324
 2579TIP3   OH229227   1.444   0.740   5.561 -0.5593  0.1131 -0.1393
 2579TIP3    H129228   1.524   0.768   5.517 -0.3975 -0.7873 -0.4191
 2579TIP3    H229229   1.473   0.680   5.629 -1.1134 -1.7964 -1.5080
 2580TIP3   OH229230   2.990   4.609   6.151  0.1713 -0.0580 -0.1168
 2580TIP3    H129231   2.999   4.518   6.178 -0.6194 -0.0838  0.0957
 2580TIP3    H229232   3.068   4.627   6.100 -0.1524 -1.1865 -1.0569
 2581TIP3   OH229233   5.488   0.456   3.185  0.4121  0.2198  0.3965
 2581TIP3    H129234   5.483   0.470   3.090 -1.8278 -0.4810  0.3364
 2581TIP3    H229235   5.534   0.533   3.218 -1.3896  2.0176 -1.0110
 2582TIP3   OH229236   2.530   2.732  13.520  0.3843  0.0237  0.3571
 2582TIP3    H129237   2.559   2.823  13.516  1.0071 -0.0998  1.5739
 2582TIP3    H229238   2.457   2.733  13.582  1.5457 -0.5542  1.7929
 2583TIP3   OH229239   4.542   5.939  11.170 -0.4311  0.6560 -0.4156
 2583TIP3    H129240   4.520   6.025  11.206 -1.6856  0.4244 -0.5823
 2583TIP3    H229241   4.622   5.954  11.119  0.3116  1.3687  0.8992
 2584TIP3   OH229242   0.343   2.753  16.138  0.2406  0.3639  0.3816
 2584TIP3    H129243   0.378   2.664  16.137  2.0423  1.0389 -1.0459
 2584TIP3    H229244   0.339   2.776  16.231  1.5743 -0.5403  0.6925
 2585TIP3   OH229245   3.576   2.933  11.866  0.4637  0.3261 -0.0539
 2585TIP3    H129246   3.610   2.850  11.900 -1.7658 -0.6552 -0.0543
 2585TIP3    H229247   3.511   2.907  11.801 -0.9680  2.0335  0.6311
 2586TIP3   OH229248   1.830   2.957   1.347  0.6743 -0.5987  0.0980
 2586TIP3    H129249   1.735   2.951   1.335  0.5850 -0.3832  0.6560
 2586TIP3    H229250   1.844   2.933   1.439  0.7624  2.9154  1.1360
 2587TIP3   OH229251   1.498   3.385  14.646  0.1172  0.2854  0.1282
 2587TIP3    H129252   1.555   3.364  14.572  0.3465 -0.4407  0.5060
 2587TIP3    H229253   1.484   3.301  14.691 -0.8030  0.5450  0.3557
 2588TIP3   OH229254   5.579   4.838   5.033  0.1933 -0.3539  0.1195
 2588TIP3    H129255   5.576   4.917   5.087 -0.9032 -0.9910  1.0270
 2588TIP3    H229256   5.500   4.790   5.057  0.1892 -1.1265 -1.3579
 2589TIP3   OH229257   5.443   2.211   1.323 -0.3498  0.6386 -0.2705
 2589TIP3    H129258   5.461   2.303   1.302 -0.5800  0.5862 -0.7042
 2589TIP3    H229259   5.523   2.165   1.297  0.0119  0.7974  0.5377
 2590TIP3   OH229260   5.940   1.496   2.249  0.3738  0.2058 -0.2008
 2590TIP3    H129261   5.945   1.412   2.295  1.6160  1.5545  2.3134
 2590TIP3    H229262   5.854   1.532   2.272  0.4553  0.2951 -0.0377
 2591TIP3   OH229263   6.037   0.916  13.619  1.1426  0.0372  0.5098
 2591TIP3    H129264   6.025   0.994  13.674  1.0163  0.0083  0.5216
 2591TIP3    H229265   5.981   0.931  13.543  1.4959  0.1882  0.2725
 2592TIP3   OH229266   0.266   5.010   4.168  0.2556  0.1350  0.5963
 2592TIP3    H129267   0.278   5.082   4.230  0.7846  0.7743 -0.2367
 2592TIP3    H229268   0.353   4.994   4.132 -0.1292  0.1376 -0.3785
 2593TIP3   OH229269   5.988   6.300   3.344  0.1654  0.1231  0.2355
 2593TIP3    H129270   6.064   6.264   3.391  0.9209 -0.6751 -1.5377
 2593TIP3    H229271   5.969   6.236   3.276 -2.3490  0.1553  0.8124
 2594TIP3   OH229272   0.110   2.230  15.123  0.0139 -0.3131  0.3120
 2594TIP3    H129273   0.117   2.175  15.201  0.7169  1.5864  1.6638
 2594TIP3    H229274   0.193   2.278  15.120 -0.3434  0.2616 -1.1298
 2595TIP3   OH229275   3.650   2.050   2.828 -0.2873  0.2184  0.3821
 2595TIP3    H129276   3.673   1.960   2.804 -0.1909  0.4209 -0.3058
 2595TIP3    H229277   3.554   2.051   2.826 -0.2805  0.2334 -0.0042
 2596TIP3   OH229278   4.109   1.728  13.098  0.7220 -0.3058  0.1261
 2596TIP3    H129279   4.082   1.787  13.168  0.2413 -1.0172  0.5438
 2596TIP3    H229280   4.102   1.641  13.135  1.9274 -0.6206 -0.3181
 2597TIP3   OH229281   1.807   5.948  16.621 -0.0124 -0.4462  0.0804
 2597TIP3    H129282   1.791   6.035  16.583  1.9319 -0.0022  0.1430
 2597TIP3    H229283   1.896   5.927  16.593 -0.0222 -1.8935  1.0748
 2598TIP3   OH229284   1.684   2.566   3.774  0.1875 -0.1952 -0.1310
 2598TIP3    H129285   1.663   2.558   3.867 -2.8615 -1.7734 -0.8417
 2598TIP3    H229286   1.636   2.643   3.744  0.2659 -0.3243 -0.6096
 2599TIP3   OH229287   2.678   1.616   1.559  0.5265 -0.5492  0.2216
 2599TIP3    H129288   2.768   1.649   1.548  0.6182 -0.9231 -0.1948
 2599TIP3    H229289   2.689   1.528   1.595  0.2751 -0.0533  1.5518
 2600TIP3   OH229290   0.418   2.065  12.067  0.4151  0.3368 -0.3389
 2600TIP3    H129291   0.374   1.982  12.047  2.0318 -0.7036  0.2271
 2600TIP3    H229292   0.446   2.056  12.158  0.2667  1.6925 -0.1416
 2601TIP3   OH229293   0.287   5.463   5.300  0.0058 -0.5508  0.0701
 2601TIP3    H129294   0.322   5.412   5.372 -1.7017 -0.2548  1.1799
 2601TIP3    H229295   0.360   5.474   5.240  1.6065 -0.4379  1.9525
 2602TIP3   OH229296   5.338   5.262   1.471  0.2309  0.2226  0.5953
 2602TIP3    H129297   5.281   5.327   1.511 -0.1482  0.5338 -0.4262
 2602TIP3    H229298   5.278   5.201   1.428  0.5974 -0.5905  1.2074
 2603TIP3   OH229299   4.244   1.421   5.054  0.1427 -0.5687 -0.1136
 2603TIP3    H129300   4.317   1.464   5.098 -0.1922  0.5156 -0.5729
 2603TIP3    H229301   4.168   1.441   5.110 -0.0942 -0.1471 -0.5815
 2604TIP3   OH229302   4.898   2.376  11.656  0.0709 -0.4171  0.6191
 2604TIP3    H129303   4.940   2.397  11.573 -0.1076  0.9456  0.8414
 2604TIP3    H229304   4.915   2.283  11.669  1.3630 -0.3255 -0.2250
 2605TIP3   OH229305   2.501   5.575  16.674  0.0029  0.2757  0.5556
 2605TIP3    H129306   2.437   5.646  16.661  0.1037  0.7207  2.2092
 2605TIP3    H229307   2.581   5.620  16.701  0.8395 -0.3293 -0.8008
 2606TIP3   OH229308   5.534   4.467   3.625  0.0378 -0.1805  0.6040
 2606TIP3    H129309   5.546   4.383   3.580  0.4226  0.7279 -1.0981
 2606TIP3    H229310   5.611   4.477   3.680  0.6521 -0.3521 -0.2078
 2607TIP3   OH229311   5.577   4.677  13.219  0.6196  0.0876 -0.2381
 2607TIP3    H129312   5.621   4.708  13.139  0.0027 -0.5917 -0.8591
 2607TIP3    H229313   5.646   4.672  13.284  1.1930  0.3868 -0.8122
 2608TIP3   OH229314   1.464   1.323   1.887 -0.2898  0.1035  0.1482
 2608TIP3    H129315   1.529   1.296   1.951  1.0548  1.2812 -0.6647
 2608TIP3    H229316   1.514   1.366   1.818 -1.8699  0.4586 -0.8381
 2609TIP3   OH229317   0.092   4.939  10.417  0.3108  0.4308  0.0180
 2609TIP3    H129318   0.167   4.890  10.451  1.0439  2.3941  1.4127
 2609TIP3    H229319   0.119   4.965  10.328  0.8530  0.2774  0.1338
 2610TIP3   OH229320   4.588   5.247   3.537 -0.3608  0.0972 -1.0039
 2610TIP3    H129321   4.534   5.188   3.485  0.0301 -0.2528 -1.0142
 2610TIP3    H229322   4.642   5.190   3.591 -0.4123  0.4522 -0.5657
 2611TIP3   OH229323   4.729   0.894  11.475 -0.1858 -0.0678 -0.4881
 2611TIP3    H129324   4.670   0.925  11.406  0.3170 -0.3491 -1.0637
 2611TIP3    H229325   4.674   0.839  11.530 -0.9715  1.4379  0.2760
 2612TIP3   OH229326   2.789   3.554   1.464  0.1740  0.2138 -0.2984
 2612TIP3    H129327   2.828   3.616   1.402  0.8417 -1.3289 -1.4958
 2612TIP3    H229328   2.703   3.591   1.484  0.3972  1.3195 -1.2833
 2613TIP3   OH229329   5.686   1.195   3.919  0.5451 -0.7196 -0.3454
 2613TIP3    H129330   5.656   1.114   3.877  1.2733 -1.0759 -0.1838
 2613TIP3    H229331   5.689   1.259   3.847  1.9291 -1.3590 -0.8933
 2614TIP3   OH229332   2.330   0.583  11.852  0.2280 -0.1773  0.2950
 2614TIP3    H129333   2.265   0.534  11.802 -1.4840  1.6522  0.6300
 2614TIP3    H229334   2.361   0.521  11.918  0.6754 -1.8361 -1.3710
 2615TIP3   OH229335   1.721   2.089  13.229  0.1902 -0.0442  0.1186
 2615TIP3    H129336   1.813   2.114  13.227  0.0677  0.3902 -0.2471
 2615TIP3    H229337   1.703   2.071  13.321  0.1398  1.8349  0.5233
 2616TIP3   OH229338   4.516   6.610   4.626 -0.2652 -0.1543 -0.0838
 2616TIP3    H129339   4.475   6.525   4.609 -0.0390 -0.4464  0.7657
 2616TIP3    H229340   4.482   6.636   4.712  1.3806 -0.4662  0.7135
 2617TIP3   OH229341   0.301   0.167   2.710 -0.2970 -0.0881 -0.3858
 2617TIP3    H129342   0.338   0.087   2.672  0.1159  0.0482 -0.2685
 2617TIP3    H229343   0.370   0.200   2.768  0.3961  1.5245 -2.0501
 2618TIP3   OH229344   6.600   4.843  11.566 -0.2125  0.2333  0.3794
 2618TIP3    H129345   6.658   4.845  11.490  0.0736  1.2732  0.6057
 2618TIP3    H229346   6.564   4.754  11.567  1.2861 -0.4120  0.1647
 2619TIP3   OH229347   4.531   2.356  12.267  0.0924 -0.3779 -0.2237
 2619TIP3    H129348   4.494   2.423  12.324 -0.2765  1.5430 -2.5232
 2619TIP3    H229349   4.594   2.404  12.213  0.3131 -2.0325 -1.5038
 2620TIP3   OH229350   3.623   6.332   0.145 -0.1587 -0.2266 -0.2551
 2620TIP3    H129351   3.608   6.251   0.194 -0.9294  0.5679  0.8867
 2620TIP3    H229352   3.563   6.395   0.184  0.9515  1.1090 -0.6126
 2621TIP3   OH229353   3.966   1.396   0.291 -0.0231  0.3522 -0.1589
 2621TIP3    H129354   4.016   1.335   0.344  0.5315  0.2365 -0.8010
 2621TIP3    H229355   3.961   1.476   0.344  1.1985  0.5046 -0.2461
 2622TIP3   OH229356   4.900   1.091   2.575  0.4792  0.5925 -0.0509
 2622TIP3    H129357   4.928   1.003   2.553  0.0612 -0.1403  2.0833
 2622TIP3    H229358   4.949   1.148   2.516 -0.6525 -1.1104 -2.7994
 2623TIP3   OH229359   3.338   2.301  12.121  0.5052 -0.0784 -0.0621
 2623TIP3    H129360   3.254   2.309  12.166 -0.5525  0.2658 -2.0122
 2623TIP3    H229361   3.396   2.261  12.186 -1.3591 -1.0262  1.0929
 2624TIP3   OH229362   4.796   4.770   3.729 -0.1899 -0.4318  0.5915
 2624TIP3    H129363   4.794   4.696   3.669 -1.0977 -0.6976  0.9260
 2624TIP3    H229364   4.873   4.821   3.703  0.5561 -1.5840  0.4839
 2625TIP3   OH229365   0.396   4.975   6.142 -0.1777 -0.1612 -0.4146
 2625TIP3    H129366   0.416   5.020   6.225 -0.3209  0.1706 -0.5597
 2625TIP3    H229367   0.415   4.883   6.160 -1.2165 -0.2506  0.3209
 2626TIP3   OH229368   0.840   4.443  14.538 -0.3399 -0.6566  0.5934
 2626TIP3    H129369   0.746   4.430  14.554 -0.9299  0.6838 -1.3555
 2626TIP3    H229370   0.849   4.537  14.528  0.8591 -0.9086 -1.0703
 2627TIP3   OH229371   5.361   5.832  13.990 -0.1470 -0.1887 -0.1470
 2627TIP3    H129372   5.319   5.846  13.906 -2.8431 -2.8898  0.5463
 2627TIP3    H229373   5.444   5.788  13.969 -1.0463 -1.3412 -1.4245
 2628TIP3   OH229374   4.375   0.702  16.982 -0.4564  0.1063 -0.8432
 2628TIP3    H129375   4.436   0.640  17.022  1.5757  2.1492 -0.5840
 2628TIP3    H229376   4.421   0.735  16.905 -1.3585  1.4873 -0.8291
 2629TIP3   OH229377   3.343   0.547  11.813  0.0496  0.5123  0.2919
 2629TIP3    H129378   3.420   0.519  11.862  0.2309  1.3190  0.4848
 2629TIP3    H229379   3.318   0.470  11.761  0.8967  0.1942  0.3367
 2630TIP3   OH229380   2.927   5.678  16.923  0.4590 -0.3753 -0.0446
 2630TIP3    H129381   2.973   5.735  16.984 -0.7640 -0.5216  1.0567
 2630TIP3    H229382   2.988   5.606  16.905  0.0539 -1.5656  2.8321
 2631TIP3   OH229383   5.218   4.979  12.077 -0.1736 -0.1809  0.4131
 2631TIP3    H129384   5.242   5.071  12.077  2.5057 -0.7984 -0.6476
 2631TIP3    H229385   5.198   4.960  12.169 -1.4293  1.5263  0.5598
 2632TIP3   OH229386   0.283   4.020  13.037  0.0695  0.3823 -0.2663
 2632TIP3    H129387   0.350   4.077  13.074 -1.3104  1.8005  0.1400
 2632TIP3    H229388   0.260   3.960  13.109  1.3667 -0.6056 -0.6324
 2633TIP3   OH229389   4.477   2.466  17.050  0.5847  0.4652  0.6138
 2633TIP3    H129390   4.504   2.467  16.959  1.8625 -2.2731  0.8736
 2633TIP3    H229391   4.555   2.492  17.099  0.5719 -0.2541  1.0259
 2634TIP3   OH229392   0.507   3.308   0.297  0.6069 -0.5247  0.3242
 2634TIP3    H129393   0.566   3.246   0.340  0.9909  0.6570  1.5702
 2634TIP3    H229394   0.419   3.278   0.323  0.8012 -0.3582  1.2191
 2635TIP3   OH229395   3.252   3.278   2.082  0.0043 -0.3378  0.0593
 2635TIP3    H129396   3.235   3.330   2.003 -0.9222 -1.1148 -0.2756
 2635TIP3    H229397   3.347   3.283   2.095 -0.1484  2.3338  0.6829
 2636TIP3   OH229398   6.547   2.175  12.559  0.3720  0.2150  0.0373
 2636TIP3    H129399   6.609   2.232  12.605 -0.6148 -0.3198  2.1869
 2636TIP3    H229400   6.463   2.222  12.564  0.4756  0.7961 -2.5608
 2637TIP3   OH229401   2.737   1.948  16.309  0.2468 -0.0609 -0.2796
 2637TIP3    H129402   2.823   1.953  16.269  0.2002 -0.4319 -0.4320
 2637TIP3    H229403   2.690   1.882  16.258  0.0534 -0.2509  0.1329
 2638TIP3   OH229404   4.829   4.016  10.957  0.3196 -0.2585 -0.4719
 2638TIP3    H129405   4.884   4.087  10.926  0.9250  0.0605  1.2124
 2638TIP3    H229406   4.831   4.024  11.053 -2.2067 -0.5543 -0.3078
 2639TIP3   OH229407   0.556   3.049   6.520  0.0509  0.5708  0.5467
 2639TIP3    H129408   0.591   3.073   6.606  1.4232 -2.6450  1.0531
 2639TIP3    H229409   0.490   2.982   6.540  0.8529 -0.7069 -0.8844
 2640TIP3   OH229410   2.395   4.233  10.407  0.0814  0.1136  0.2422
 2640TIP3    H129411   2.417   4.320  10.374 -1.5668  0.9829  1.3062
 2640TIP3    H229412   2.478   4.186  10.408  0.7032  0.9692 -2.2749
 2641TIP3   OH229413   4.125   3.255   1.631 -0.7094  0.4080  0.0394
 2641TIP3    H129414   4.120   3.241   1.726  2.6860  1.6644  0.5427
 2641TIP3    H229415   4.207   3.213   1.605 -0.8146  1.3969 -2.0417
 2642TIP3   OH229416   4.181   0.325  16.364  0.5447  0.5272  0.1177
 2642TIP3    H129417   4.104   0.305  16.311  0.3072  0.0539  0.6176
 2642TIP3    H229418   4.245   0.360  16.303  0.1528  0.3253 -0.4127
 2643TIP3   OH229419   3.795   2.657   3.936 -0.5876  0.5065  0.2002
 2643TIP3    H129420   3.712   2.641   3.892 -0.3184  0.3801 -0.2592
 2643TIP3    H229421   3.801   2.587   4.001  0.6343 -1.4283 -1.8648
 2644TIP3   OH229422   0.134   5.235   0.149 -0.5837  0.4857 -0.0039
 2644TIP3    H129423   0.107   5.145   0.130 -0.5176  0.8770 -2.1895
 2644TIP3    H229424   0.061   5.271   0.200  0.0743 -1.2151  2.2962
 2645TIP3   OH229425   2.716   1.225   2.082 -0.0097 -0.5092  0.3545
 2645TIP3    H129426   2.628   1.257   2.066  0.4059 -0.0902 -1.3336
 2645TIP3    H229427   2.764   1.300   2.117  0.1238 -0.1938 -0.4773
 2646TIP3   OH229428   1.532   4.465   6.263 -0.5763 -0.3284 -0.0747
 2646TIP3    H129429   1.611   4.420   6.233 -1.2637 -0.6467 -1.5149
 2646TIP3    H229430   1.462   4.426   6.210 -1.6093  0.3459  0.7799
 2647TIP3   OH229431   5.501   5.442   5.336  0.2099  0.9340 -0.1295
 2647TIP3    H129432   5.516   5.398   5.252  2.2555  0.3738  0.4634
 2647TIP3    H229433   5.413   5.417   5.361 -0.1630  0.4889 -1.7349
 2648TIP3   OH229434   0.553   5.562  14.730 -0.1260 -0.0764  0.2727
 2648TIP3    H129435   0.479   5.575  14.789 -2.5028 -1.4082 -2.2429
 2648TIP3    H229436   0.593   5.480  14.760 -1.0693 -0.5432  0.2723
 2649TIP3   OH229437   2.873   1.710  12.454  0.0135  0.1951 -0.7143
 2649TIP3    H129438   2.827   1.644  12.403  0.1786  0.4428 -1.1849
 2649TIP3    H229439   2.873   1.675  12.544  1.2012 -1.0554 -1.1647
 2650TIP3   OH229440   0.369   4.945  16.957 -0.1090 -0.9902 -0.2039
 2650TIP3    H129441   0.280   4.959  16.926 -0.9485 -2.6832  1.2936
 2650TIP3    H229442   0.423   4.947  16.878 -1.2709  1.1985 -1.0291
 2651TIP3   OH229443   4.270   1.516   3.311 -0.0031 -0.4336 -0.1555
 2651TIP3    H129444   4.272   1.588   3.247 -0.8219 -0.4959 -0.2684
 2651TIP3    H229445   4.284   1.438   3.258 -1.5401 -0.5681 -0.4234
 2652TIP3   OH229446   3.664   6.535  14.522  0.3205 -0.0818 -0.3812
 2652TIP3    H129447   3.641   6.578  14.440 -0.5271  1.6837  0.7059
 2652TIP3    H229448   3.651   6.442  14.506 -0.3908  0.2825 -2.0567
 2653TIP3   OH229449   0.886   1.898  15.998 -0.9147 -0.1227 -0.0454
 2653TIP3    H129450   0.808   1.894  16.053  0.1492 -1.8056  1.4776
 2653TIP3    H229451   0.951   1.944  16.052 -0.5067  0.2090 -0.8096
 2654TIP3   OH229452   3.224   5.511  16.501  0.2771  0.1665 -0.0424
 2654TIP3    H129453   3.277   5.584  16.534  0.5803 -0.6731  1.4317
 2654TIP3    H229454   3.202   5.461  16.579 -1.5309 -0.2925 -0.8025
 2655TIP3   OH229455   5.078   2.821   4.500 -0.0348  0.1796  0.3925
 2655TIP3    H129456   5.057   2.747   4.443  1.1458  0.7767 -0.8704
 2655TIP3    H229457   5.024   2.807   4.578 -1.3507 -0.9249 -0.6559
 2656TIP3   OH229458   2.592   6.452  11.661 -0.0017  0.2611  0.0607
 2656TIP3    H129459   2.610   6.497  11.578  1.2481  0.3848  0.3798
 2656TIP3    H229460   2.672   6.465  11.713 -0.1892 -1.0754  0.7188
 2657TIP3   OH229461   0.265   2.830  15.120  0.3424 -0.0373  0.0173
 2657TIP3    H129462   0.206   2.855  15.050 -0.4969 -0.8118  0.4335
 2657TIP3    H229463   0.304   2.912  15.149 -0.0303  0.4026 -0.6975
 2658TIP3   OH229464   0.866   0.117   5.093 -0.0312  0.0123  0.6436
 2658TIP3    H129465   0.828   0.101   5.006  1.5389 -0.9488  0.0941
 2658TIP3    H229466   0.791   0.117   5.152 -1.1402  0.6454 -0.6911
 2659TIP3   OH229467   3.666   5.819   3.340 -0.0510  0.0350 -0.5153
 2659TIP3    H129468   3.634   5.837   3.428  2.4369 -0.6269  0.6500
 2659TIP3    H229469   3.591   5.785   3.293 -1.3647 -0.0003  1.4948
 2660TIP3   OH229470   6.084   5.623  10.518  0.3435 -0.0493 -0.0741
 2660TIP3    H129471   6.156   5.647  10.577  0.4583  2.5781 -1.1333
 2660TIP3    H229472   6.098   5.530  10.500  2.0722 -0.1859  1.6065
 2661TIP3   OH229473   0.128   2.234   4.129  0.3370  0.3776  0.5308
 2661TIP3    H129474   0.216   2.248   4.093 -0.7441  0.9761 -2.0382
 2661TIP3    H229475   0.112   2.140   4.118  0.1464  0.4986 -0.3028
 2662TIP3   OH229476   2.356   5.167  13.310 -0.0110 -0.0709  0.2816
 2662TIP3    H129477   2.269   5.206  13.310  0.0377  0.0365  0.1069
 2662TIP3    H229478   2.342   5.078  13.345 -0.5326 -0.7976 -1.6406
 2663TIP3   OH229479   5.888   4.176  14.795  0.1091  0.1035  0.5029
 2663TIP3    H129480   5.979   4.152  14.815  0.1728  0.0963  0.2112
 2663TIP3    H229481   5.895   4.242  14.726 -0.1227 -0.4341 -0.0526
 2664TIP3   OH229482   5.434   1.274  14.313  0.0434  0.4218 -0.2971
 2664TIP3    H129483   5.339   1.287  14.317  0.0395  0.1777  2.5669
 2664TIP3    H229484   5.470   1.362  14.317 -0.0263  0.4798 -0.7880
 2665TIP3   OH229485   1.514   1.973   1.013 -0.2992 -0.1292  0.3055
 2665TIP3    H129486   1.480   2.028   1.084  0.9933  2.1612 -0.7344
 2665TIP3    H229487   1.528   2.034   0.940  1.8106 -1.7359 -0.7338
 2666TIP3   OH229488   3.457   0.822  12.068  1.0199 -0.0513 -0.2455
 2666TIP3    H129489   3.430   0.846  12.157 -0.0447  0.1427 -0.6155
 2666TIP3    H229490   3.456   0.726  12.068  0.5178 -0.0468 -0.2006
 2667TIP3   OH229491   6.185   3.654  12.686  0.2378  0.1012  0.1324
 2667TIP3    H129492   6.090   3.666  12.681  0.1402 -0.5924  0.2100
 2667TIP3    H229493   6.222   3.735  12.649 -0.3787  0.3821  0.1223
 2668TIP3   OH229494   6.629   0.629  14.053  0.2451  0.2925 -0.4202
 2668TIP3    H129495   6.641   0.721  14.073 -1.0740  0.1131  1.5156
 2668TIP3    H229496   6.544   0.625  14.009  0.5059  0.0512 -0.9026
 2669TIP3   OH229497   1.129   5.944   1.659  0.4299  0.7550 -0.0737
 2669TIP3    H129498   1.060   5.880   1.679 -0.9621  2.4398  0.7467
 2669TIP3    H229499   1.204   5.914   1.709 -0.2127 -0.2206  0.3403
 2670TIP3   OH229500   0.062   5.722  12.425 -0.0497 -0.1373 -0.1037
 2670TIP3    H129501   0.051   5.639  12.472  0.5890 -0.3150 -0.2612
 2670TIP3    H229502   0.004   5.783  12.471 -1.3620 -0.9171 -0.6339
 2671TIP3   OH229503   4.272   2.105   0.905 -0.0228  0.0934  0.0699
 2671TIP3    H129504   4.328   2.175   0.871 -0.6721  1.5825  1.8701
 2671TIP3    H229505   4.252   2.051   0.829  0.4459  1.9020 -1.4185
 2672TIP3   OH229506   2.520   3.265   2.300  0.0962 -0.7218  0.0476
 2672TIP3    H129507   2.478   3.196   2.351  0.6527 -1.6495 -0.7148
 2672TIP3    H229508   2.582   3.219   2.243  0.7980  0.4442 -0.1731
 2673TIP3   OH229509   5.927   3.902   0.026  0.3357 -0.2517  0.1811
 2673TIP3    H129510   6.000   3.856   0.069  1.0413  1.0457  0.4280
 2673TIP3    H229511   5.962   3.927  -0.059  1.1488  2.6080  1.2393
 2674TIP3   OH229512   4.966   6.449  11.642  0.0481 -0.0078  0.4836
 2674TIP3    H129513   5.023   6.378  11.612 -2.0505 -0.4176 -3.0513
 2674TIP3    H229514   4.954   6.431  11.735  1.3871 -2.9913  0.2152
 2675TIP3   OH229515   6.586   0.072   5.085 -0.2060  0.5268 -0.0430
 2675TIP3    H129516   6.635   0.097   5.007  0.4382  0.5068  0.3461
 2675TIP3    H229517   6.649   0.023   5.138 -0.6197  0.5855  0.5136
 2676TIP3   OH229518   4.814   1.263  16.886  0.8406 -0.3472 -0.5490
 2676TIP3    H129519   4.737   1.206  16.886  0.9626 -0.5281 -1.6052
 2676TIP3    H229520   4.863   1.236  16.964  0.8663 -1.6548 -1.0001
 2677TIP3   OH229521   1.574   2.890   5.847 -0.2304  0.1378 -0.6513
 2677TIP3    H129522   1.561   2.826   5.777 -1.0973 -2.1660  1.4992
 2677TIP3    H229523   1.666   2.879   5.873 -0.1456  0.3938 -0.8341
 2678TIP3   OH229524   0.304   2.860  12.142 -0.4126  0.2436  0.4385
 2678TIP3    H129525   0.368   2.931  12.139 -0.6054  0.3735 -1.0971
 2678TIP3    H229526   0.227   2.899  12.184  0.0304  0.4591  1.0746
 2679TIP3   OH229527   4.817   5.168  11.261  0.0046 -0.1860 -0.0314
 2679TIP3    H129528   4.853   5.081  11.280 -0.7390 -0.9651 -1.8756
 2679TIP3    H229529   4.862   5.196  11.181  0.6305  1.4029  0.8471
 2680TIP3   OH229530   0.834   3.166  12.064  0.1540  0.3655 -0.1632
 2680TIP3    H129531   0.798   3.240  12.114 -0.8761 -0.7817  0.8777
 2680TIP3    H229532   0.871   3.108  12.131  0.4170 -0.3434 -0.9115
 2681TIP3   OH229533   3.766   4.774  14.853  0.0983  0.4312  0.0074
 2681TIP3    H129534   3.847   4.746  14.810  0.3873  1.5735 -0.2459
 2681TIP3    H229535   3.698   4.764  14.787  0.1964  0.3147 -0.0751
 2682TIP3   OH229536   3.549   3.155   5.421  0.2347  0.0870 -0.2937
 2682TIP3    H129537   3.579   3.211   5.492  1.4859  0.1841 -0.8706
 2682TIP3    H229538   3.543   3.068   5.459 -2.0283  0.6132  0.6943
 2683TIP3   OH229539   3.588   4.839  14.342 -0.2201  0.0359  0.7899
 2683TIP3    H129540   3.493   4.853  14.345 -0.5284 -0.9114 -1.9355
 2683TIP3    H229541   3.614   4.869  14.255  1.8771 -0.3321  1.2428
 2684TIP3   OH229542   5.349   4.905   3.187 -0.2824  0.7121  0.5946
 2684TIP3    H129543   5.391   4.845   3.249 -0.8586  1.0436  1.3231
 2684TIP3    H229544   5.260   4.871   3.178 -0.2031  0.6591 -0.0749
 2685TIP3   OH229545   3.554   0.063  15.897 -0.6181  0.0879  0.6054
 2685TIP3    H129546   3.610   0.096  15.826 -1.0686 -0.0420  0.1793
 2685TIP3    H229547   3.612   0.056  15.972 -0.2282  0.6689  0.3737
 2686TIP3   OH229548   2.817   2.713   4.934 -0.1827 -0.0120 -0.0215
 2686TIP3    H129549   2.848   2.670   4.854  0.4075  0.9902 -0.3595
 2686TIP3    H229550   2.726   2.684   4.943 -0.9150  1.3092 -2.1692
 2687TIP3   OH229551   0.228   4.591  15.594 -0.0828 -0.6309 -0.0113
 2687TIP3    H129552   0.188   4.504  15.603 -0.3128 -0.5396 -0.1522
 2687TIP3    H229553   0.238   4.603  15.500 -0.4408 -0.3273 -0.0116
 2688TIP3   OH229554   5.078   2.915   2.694  0.0256  0.2258 -0.1154
 2688TIP3    H129555   5.022   2.890   2.620 -1.8082 -1.3389  1.6538
 2688TIP3    H229556   5.136   2.840   2.706 -2.5949 -1.6235  2.5416
 2689TIP3   OH229557   6.611   4.063  10.494  0.3339 -0.7801 -0.0779
 2689TIP3    H129558   6.519   4.089  10.502 -0.0132 -1.2988 -1.8371
 2689TIP3    H229559   6.659   4.133  10.539 -0.9198 -0.8210  1.4399
 2690TIP3   OH229560   2.857   0.097  12.530 -0.0662 -0.3102 -0.5113
 2690TIP3    H129561   2.928   0.107  12.593 -0.3817 -2.2685  0.2339
 2690TIP3    H229562   2.886   0.025  12.473 -0.3197  0.6323 -1.8651
 2691TIP3   OH229563   3.836   3.039  14.110  0.2977 -0.5790  0.1312
 2691TIP3    H129564   3.752   3.032  14.065  0.4198  0.2025 -0.2361
 2691TIP3    H229565   3.826   2.985  14.188 -0.4477 -0.7267 -0.0603
 2692TIP3   OH229566   2.428   5.538   4.559 -0.3119 -0.4658  0.1565
 2692TIP3    H129567   2.512   5.547   4.516  0.4420  0.2948  1.6997
 2692TIP3    H229568   2.448   5.542   4.653 -2.1297  0.6234  0.5597
 2693TIP3   OH229569   0.499   0.200  15.387 -0.2780 -0.4940  0.0288
 2693TIP3    H129570   0.500   0.286  15.344 -0.0925 -0.1526  0.6871
 2693TIP3    H229571   0.452   0.143  15.327  0.6373 -0.2226 -0.9728
 2694TIP3   OH229572   5.138   3.195  12.420 -0.0320  0.2618  0.0622
 2694TIP3    H129573   5.108   3.286  12.416  1.2378  0.7540  0.8293
 2694TIP3    H229574   5.106   3.155  12.340 -2.0391  0.9201  0.4916
 2695TIP3   OH229575   3.954   6.759   4.088 -0.4087  0.1366  0.1400
 2695TIP3    H129576   3.919   6.843   4.117  0.8652  1.1662 -1.1549
 2695TIP3    H229577   3.977   6.773   3.996  2.6096 -0.6688  0.6470
 2696TIP3   OH229578   3.747   1.719   4.860  0.0654 -0.0439 -0.2346
 2696TIP3    H129579   3.694   1.718   4.780 -1.2025  1.3474  0.5480
 2696TIP3    H229580   3.720   1.641   4.908 -0.0777 -0.2097 -0.5811
 2697TIP3   OH229581   5.879   6.390  11.098 -0.3168  0.5308  0.0250
 2697TIP3    H129582   5.859   6.465  11.153  2.1457  0.1809  1.5191
 2697TIP3    H229583   5.928   6.427  11.024  0.0684  0.4931  0.2635
 2698TIP3   OH229584   6.507   0.163   3.365  0.7927 -0.0213 -0.6041
 2698TIP3    H129585   6.578   0.166   3.301  1.1246 -0.3030 -0.2572
 2698TIP3    H229586   6.467   0.077   3.352 -0.5135  0.7385 -1.8746
 2699TIP3   OH229587   5.804   0.987  12.103 -0.1105 -0.1939  0.1976
 2699TIP3    H129588   5.785   1.027  12.188  2.9291  1.6860  0.1153
 2699TIP3    H229589   5.722   0.994  12.055 -2.2575 -2.2107  3.1900
 2700TIP3   OH229590   2.402   3.162  12.584 -0.2618 -0.6187 -0.4744
 2700TIP3    H129591   2.329   3.170  12.645  0.2524 -0.4463  0.1153
 2700TIP3    H229592   2.368   3.198  12.502 -0.3033  1.0188  0.2363
 2701TIP3   OH229593   0.638   3.251   5.984  1.1415  0.4866 -0.0760
 2701TIP3    H129594   0.692   3.314   5.936  1.7209  0.1477  0.1199
 2701TIP3    H229595   0.646   3.277   6.076 -0.5563  1.5809 -0.2049
 2702TIP3   OH229596   1.462   6.709   1.186  0.2909  0.5166  0.2695
 2702TIP3    H129597   1.441   6.738   1.097 -1.3574 -0.8369  0.1679
 2702TIP3    H229598   1.524   6.638   1.174 -0.0594  0.2236  0.1874
 2703TIP3   OH229599   5.547   5.419  12.926  0.3102 -0.2777  0.1196
 2703TIP3    H129600   5.577   5.483  12.861  1.2705 -1.8948 -1.1207
 2703TIP3    H229601   5.538   5.469  13.007  0.1368  1.5940 -0.9963
 2704TIP3   OH229602   0.105   5.699   5.862 -0.0761 -0.5335 -0.6646
 2704TIP3    H129603   0.174   5.755   5.828 -0.0112 -1.8011 -2.7766
 2704TIP3    H229604   0.149   5.642   5.925  0.4354 -0.1563 -0.6804
 2705TIP3   OH229605   3.961   0.709   4.261 -0.0031  0.2944 -0.1606
 2705TIP3    H129606   4.050   0.701   4.296 -0.8470 -2.3398  1.7120
 2705TIP3    H229607   3.921   0.779   4.314  0.0456 -0.7257  1.3003
 2706TIP3   OH229608   1.789   6.493  12.613 -0.2377 -0.9936 -0.0706
 2706TIP3    H129609   1.833   6.470  12.530  1.4548 -0.8153  0.7250
 2706TIP3    H229610   1.860   6.527  12.668 -0.9449 -2.7305  2.0711
 2707TIP3   OH229611   3.560   2.780   0.270  0.5280  0.8339  0.1899
 2707TIP3    H129612   3.598   2.693   0.279  1.4190  1.1594 -0.3580
 2707TIP3    H229613   3.520   2.797   0.356  2.9879  1.1153  1.3589
 2708TIP3   OH229614   4.449   1.154   4.282 -0.6473  0.1162  0.0554
 2708TIP3    H129615   4.416   1.098   4.352 -0.7197 -1.5328 -1.2263
 2708TIP3    H229616   4.373   1.201   4.251 -1.2721 -1.4378 -0.8975
 2709TIP3   OH229617   1.402   4.111   2.030 -0.5649 -0.7165  0.3649
 2709TIP3    H129618   1.475   4.172   2.015  0.2454 -1.4870  1.0535
 2709TIP3    H229619   1.443   4.024   2.032 -1.5312 -1.1826  0.5856
 2710TIP3   OH229620   2.113   6.175  13.229 -0.5930  0.0397 -0.1041
 2710TIP3    H129621   2.036   6.141  13.275 -1.9853 -0.0966 -2.3829
 2710TIP3    H229622   2.163   6.097  13.205  0.3512  0.1324  1.4424
 2711TIP3   OH229623   2.083   3.902  11.280 -0.5662  0.3652 -0.2542
 2711TIP3    H129624   2.027   3.875  11.352  0.7454 -2.9880 -0.2986
 2711TIP3    H229625   2.147   3.961  11.319 -2.0794  1.5830  0.4671
 2712TIP3   OH229626   5.322   5.578   4.272 -0.1844  0.5187  0.0716
 2712TIP3    H129627   5.399   5.626   4.302 -0.0645  1.1807 -1.2192
 2712TIP3    H229628   5.358   5.512   4.212 -0.2697 -1.7322  2.3665
 2713TIP3   OH229629   6.412   1.483  11.372  0.0370  0.1570 -0.5770
 2713TIP3    H129630   6.330   1.454  11.331 -0.1869 -0.2240  0.1166
 2713TIP3    H229631   6.405   1.578  11.377 -1.6330  0.0023  1.9952
 2714TIP3   OH229632   4.896   1.812   3.107  0.3685 -0.3762  0.2937
 2714TIP3    H129633   4.880   1.897   3.065 -0.2426 -0.0743  1.1059
 2714TIP3    H229634   4.991   1.801   3.104  0.3228 -0.5770 -1.5348
 2715TIP3   OH229635   6.488   1.790  15.475  0.4898  0.4945  0.1645
 2715TIP3    H129636   6.462   1.739  15.399  2.3420 -0.9347  0.4178
 2715TIP3    H229637   6.406   1.813  15.518 -0.4525 -1.4115 -0.5123
 2716TIP3   OH229638   3.727   0.992   3.961  0.3650  0.3314  0.0725
 2716TIP3    H129639   3.705   1.018   4.051 -0.6876 -3.8982  1.2874
 2716TIP3    H229640   3.820   1.011   3.953  0.1708  2.1807  1.4677
 2717TIP3   OH229641   3.957   5.153   3.773  0.0235  0.0473 -0.2441
 2717TIP3    H129642   3.930   5.131   3.684 -0.3593  0.7801 -0.3190
 2717TIP3    H229643   3.878   5.188   3.814  0.0548 -0.7768  0.5580
 2718TIP3   OH229644   1.069   0.704   5.209  0.3973 -0.2478  0.0475
 2718TIP3    H129645   1.061   0.608   5.215  1.1261 -0.3121  0.0796
 2718TIP3    H229646   1.163   0.720   5.217  0.0530  0.7199  3.5999
 2719TIP3   OH229647   1.407   2.087   0.750 -0.4898 -0.6776 -0.1048
 2719TIP3    H129648   1.338   2.153   0.753  1.0311  0.9997  0.0609
 2719TIP3    H229649   1.387   2.034   0.674 -0.6146  1.3528 -1.5596
 2720TIP3   OH229650   0.783   6.749   2.170 -0.2803 -0.2453  0.3447
 2720TIP3    H129651   0.723   6.818   2.200 -0.9491 -0.7135  0.1077
 2720TIP3    H229652   0.870   6.785   2.184 -0.6281  0.9862 -0.5706
 2721TIP3   OH229653   3.763   4.678  15.610  0.5101  0.2573  0.4753
 2721TIP3    H129654   3.832   4.730  15.568  0.8834 -1.5572 -1.2689
 2721TIP3    H229655   3.811   4.616  15.665  0.2866 -0.7307 -0.4197
 2722TIP3   OH229656   2.793   1.010   1.914  0.9452 -0.4609 -0.2201
 2722TIP3    H129657   2.724   0.987   1.851  0.2390 -0.5853  0.5865
 2722TIP3    H229658   2.753   1.075   1.972  1.8742  0.3276 -0.4325
 2723TIP3   OH229659   1.073   2.086  10.794  0.1329 -0.0246 -0.6959
 2723TIP3    H129660   1.155   2.077  10.842 -0.4228  0.2973  0.3492
 2723TIP3    H229661   1.059   2.180  10.787 -1.7280  0.0256  2.0324
 2724TIP3   OH229662   0.391   2.700  15.567 -0.2821  0.1718  0.2704
 2724TIP3    H129663   0.334   2.765  15.526  0.1440  0.8564  0.7332
 2724TIP3    H229664   0.341   2.619  15.564 -0.9106  0.5647 -0.1403
 2725TIP3   OH229665   5.414   6.199  10.449  0.2551  0.2698  0.7504
 2725TIP3    H129666   5.494   6.220  10.497  1.4220  0.1868 -1.0908
 2725TIP3    H229667   5.368   6.137  10.505  1.5659  0.1657  1.7495
 2726TIP3   OH229668   0.551   2.676   0.537 -0.1722  0.2983 -0.1392
 2726TIP3    H129669   0.635   2.721   0.524 -0.9404  1.3716 -1.5680
 2726TIP3    H229670   0.566   2.587   0.505  0.2188  0.7083 -1.1323
 2727TIP3   OH229671   1.514   2.945   4.527  0.1570  0.0347  0.0368
 2727TIP3    H129672   1.573   2.888   4.478  1.9593  1.1505  0.7876
 2727TIP3    H229673   1.556   3.031   4.524 -1.5423  0.9285  0.4838
 2728TIP3   OH229674   4.938   0.575   2.531 -1.0256 -0.1028 -0.1969
 2728TIP3    H129675   5.021   0.549   2.492 -0.8720 -0.7384  0.5124
 2728TIP3    H229676   4.929   0.517   2.607 -1.4263  0.9258  0.5612
 2729TIP3   OH229677   3.566   3.304   5.668  0.0386  0.5347 -0.0703
 2729TIP3    H129678   3.516   3.385   5.664  2.1358  1.8749 -0.4304
 2729TIP3    H229679   3.615   3.310   5.750  0.6222 -0.1198 -0.3630
 2730TIP3   OH229680   6.442   1.820  15.994  0.0964  0.3945 -0.0283
 2730TIP3    H129681   6.372   1.756  15.981 -0.3171  0.8144  0.1099
 2730TIP3    H229682   6.503   1.804  15.921  0.5871 -0.9093  0.6345
 2731TIP3   OH229683   6.388   2.271   0.807 -0.3996  0.8101  0.2045
 2731TIP3    H129684   6.424   2.214   0.740 -0.6930  1.9864 -0.9994
 2731TIP3    H229685   6.295   2.279   0.785 -1.0745 -0.7241  2.2050
 2732TIP3   OH229686   0.438   2.023   0.994  0.2055  0.0789 -0.0966
 2732TIP3    H129687   0.389   1.945   0.968  0.3736  0.0234 -0.2459
 2732TIP3    H229688   0.382   2.096   0.966 -0.0412  0.0131  0.2146
 2733TIP3   OH229689   4.726   5.672   1.854  0.5129 -0.3475  0.4988
 2733TIP3    H129690   4.703   5.580   1.840 -0.1671 -0.0386 -0.5777
 2733TIP3    H229691   4.674   5.698   1.930  1.4110 -1.0844  1.3940
 2734TIP3   OH229692   3.525   1.381   1.888  0.3707  0.5879 -0.3000
 2734TIP3    H129693   3.482   1.323   1.951 -1.7522  0.4323 -1.7675
 2734TIP3    H229694   3.618   1.358   1.893 -0.3222 -2.8783 -0.6682
 2735TIP3   OH229695   6.187   3.393   6.182 -0.2688 -0.1246  0.1916
 2735TIP3    H129696   6.122   3.369   6.248 -1.3045  0.8434 -0.4579
 2735TIP3    H229697   6.267   3.410   6.233 -0.3853 -1.6823  0.9607
 2736TIP3   OH229698   1.475   5.697  15.225  0.0031 -0.5503 -0.3421
 2736TIP3    H129699   1.433   5.739  15.151  2.3270 -0.2853 -1.5936
 2736TIP3    H229700   1.539   5.761  15.256 -1.1314 -0.4932  2.2043
 2737TIP3   OH229701   3.553   3.207   3.879  0.3525 -0.0794 -0.4447
 2737TIP3    H129702   3.566   3.282   3.938  3.0223 -0.6583 -0.1856
 2737TIP3    H229703   3.628   3.209   3.820  0.2733 -2.2929 -0.7134
 2738TIP3   OH229704   6.755   3.794  10.605 -0.0164 -0.1790 -0.3457
 2738TIP3    H129705   6.737   3.723  10.667 -1.8309 -0.9177 -1.6279
 2738TIP3    H229706   6.836   3.769  10.562  0.6640 -0.2159  0.9281
 2739TIP3   OH229707   3.217   3.227  15.178 -0.4104 -0.2086  0.0143
 2739TIP3    H129708   3.125   3.199  15.181  0.5577 -3.8174  0.5453
 2739TIP3    H229709   3.267   3.146  15.171  2.7495  1.6991 -2.1803
 2740TIP3   OH229710   6.355   5.098  12.709 -0.1078 -0.4168 -0.0733
 2740TIP3    H129711   6.385   5.104  12.618  0.7473 -1.3383  0.1303
 2740TIP3    H229712   6.423   5.142  12.759 -0.5583  0.0519  0.1367
 2741TIP3   OH229713   2.801   3.827  15.110 -0.3344 -0.3848  0.5859
 2741TIP3    H129714   2.764   3.911  15.081 -2.1775 -1.7196 -1.3307
 2741TIP3    H229715   2.796   3.830  15.205 -2.7932  0.7144  0.5071
 2742TIP3   OH229716   0.231   3.165   0.940  0.1181 -0.4391  0.4026
 2742TIP3    H129717   0.270   3.081   0.918  1.5148  0.1222  0.6469
 2742TIP3    H229718   0.271   3.189   1.024  0.1125  0.6898  0.1005
 2743TIP3   OH229719   4.263   4.665  11.929  0.2444  0.2514 -0.1791
 2743TIP3    H129720   4.315   4.630  11.856  0.9243  0.6514  0.1056
 2743TIP3    H229721   4.173   4.663  11.897  0.7157  2.3333 -1.8287
 2744TIP3   OH229722   4.194   6.814   1.501 -0.5506 -0.2326 -0.0771
 2744TIP3    H129723   4.220   6.738   1.448  0.1500  0.0310 -0.1238
 2744TIP3    H229724   4.267   6.826   1.562 -0.7645  0.2664  0.0779
 2745TIP3   OH229725   1.972   1.046   3.334  0.3473  0.0138 -0.5015
 2745TIP3    H129726   1.934   0.998   3.260  1.4942  0.9573 -1.7479
 2745TIP3    H229727   2.060   1.070   3.305  0.0894  2.2151  0.3531
 2746TIP3   OH229728   3.218   1.928  15.444 -0.2859  0.5374  0.0894
 2746TIP3    H129729   3.187   1.885  15.524 -0.0053  0.5998  0.2333
 2746TIP3    H229730   3.175   1.880  15.373 -0.5788  0.5173  0.2797
 2747TIP3   OH229731   5.107   4.510  14.703 -0.6714  0.7656  0.4900
 2747TIP3    H129732   5.174   4.450  14.670  1.6466  2.3438  1.9708
 2747TIP3    H229733   5.087   4.568  14.630 -0.2488  0.3901  0.0742
 2748TIP3   OH229734   6.710   1.595   2.412 -0.4473  0.3838 -0.1036
 2748TIP3    H129735   6.768   1.544   2.469 -0.5688  0.1548 -0.1806
 2748TIP3    H229736   6.623   1.557   2.427 -0.7422  1.3527  0.7272
 2749TIP3   OH229737   3.781   2.816  15.754 -0.1629  0.2112 -0.0046
 2749TIP3    H129738   3.803   2.907  15.736 -0.3454  0.3799  0.5922
 2749TIP3    H229739   3.686   2.817  15.771 -0.5487 -0.3939 -1.8528
 2750TIP3   OH229740   1.173   5.193  14.855 -0.1479  0.0320 -0.1882
 2750TIP3    H129741   1.126   5.110  14.847  0.7048 -0.4070 -0.8367
 2750TIP3    H229742   1.253   5.170  14.902  1.6001 -0.1777 -3.0460
 2751TIP3   OH229743   5.304   4.639  15.115 -0.4187  0.2414 -0.2716
 2751TIP3    H129744   5.286   4.661  15.023 -0.9828  0.2543 -0.1590
 2751TIP3    H229745   5.329   4.722  15.155 -2.0712  0.6284  0.0359
 2752TIP3   OH229746   3.971   4.305   5.697 -0.0175 -0.0966 -0.3075
 2752TIP3    H129747   3.904   4.291   5.764  1.1643  0.6944  1.1089
 2752TIP3    H229748   3.966   4.399   5.678  0.3491 -0.1249 -0.5590
 2753TIP3   OH229749   2.419   6.092   2.282 -0.5393  0.0574  0.3050
 2753TIP3    H129750   2.421   6.000   2.309 -0.1344 -0.0802 -0.1929
 2753TIP3    H229751   2.340   6.126   2.324  0.4308  0.0439  2.2856
 2754TIP3   OH229752   5.646   1.960   0.282 -0.1702  0.5586 -0.1639
 2754TIP3    H129753   5.628   1.888   0.222  0.4312  1.1690 -1.1070
 2754TIP3    H229754   5.560   1.985   0.315 -0.5303  0.2951 -0.8795
 2755TIP3   OH229755   1.170   3.891   1.815  0.3601  0.3391  0.1161
 2755TIP3    H129756   1.125   3.820   1.769  0.5275 -0.1833  0.7418
 2755TIP3    H229757   1.214   3.848   1.888  2.3584  0.7202 -0.7879
 2756TIP3   OH229758   0.992   1.627   0.470 -0.4954 -0.8613  0.2900
 2756TIP3    H129759   0.944   1.706   0.445  0.0380 -0.5061  0.3829
 2756TIP3    H229760   1.078   1.638   0.429 -0.7070 -1.8075 -0.4374
 2757TIP3   OH229761   3.091   5.751  14.436  0.1193 -0.4668  0.2431
 2757TIP3    H129762   3.123   5.702  14.361 -0.6485  0.2459 -0.5690
 2757TIP3    H229763   2.996   5.740  14.434 -0.0506  0.8165  0.1993
 2758TIP3   OH229764   2.339   1.354  13.903 -0.6313 -0.0111 -0.5133
 2758TIP3    H129765   2.429   1.338  13.877 -0.7209 -0.0031 -0.8307
 2758TIP3    H229766   2.288   1.290  13.853 -0.7447 -0.4163  0.1067
 2759TIP3   OH229767   0.052   4.177  16.263  0.1040  0.3059  0.0981
 2759TIP3    H129768   0.100   4.194  16.344  1.6114  2.9946 -1.2279
 2759TIP3    H229769  -0.031   4.223  16.274 -0.3104 -0.5575  0.6505
 2760TIP3   OH229770   6.387   1.080  16.308  0.0177 -0.3322  0.4727
 2760TIP3    H129771   6.307   1.122  16.279 -0.7059  0.0149  2.7608
 2760TIP3    H229772   6.447   1.152  16.326 -0.3759 -0.3475  2.0206
 2761TIP3   OH229773   4.739   3.050  12.912  0.6635  0.6965  0.0813
 2761TIP3    H129774   4.773   2.973  12.867 -0.4131 -0.1989  0.7412
 2761TIP3    H229775   4.662   3.075  12.861 -0.8058 -0.5733  1.5884
 2762TIP3   OH229776   3.689   6.608  13.248 -0.0072 -0.0499  0.3985
 2762TIP3    H129777   3.604   6.576  13.276 -0.7094  0.1653 -1.3503
 2762TIP3    H229778   3.669   6.680  13.189  1.3467 -0.5706 -0.7474
 2763TIP3   OH229779   5.025   6.079  15.195  0.0686  0.3100 -0.1205
 2763TIP3    H129780   4.934   6.092  15.222 -0.4333 -1.8439 -0.6138
 2763TIP3    H229781   5.022   6.005  15.134  2.2107 -0.0945  0.1888
 2764TIP3   OH229782   6.605   1.047  12.883 -0.7681 -0.4077  0.3540
 2764TIP3    H129783   6.582   0.954  12.881  1.2625 -0.9915  1.3928
 2764TIP3    H229784   6.588   1.074  12.973 -0.5306 -0.0014  0.2802
 2765TIP3   OH229785   2.794   0.513  14.243  0.4693  0.7644 -0.0691
 2765TIP3    H129786   2.746   0.560  14.176  0.0271 -0.1430 -0.4073
 2765TIP3    H229787   2.730   0.500  14.314  0.4531  0.2828 -0.1690
 2766TIP3   OH229788   5.567   3.015  13.005 -0.3490  0.3944  0.0964
 2766TIP3    H129789   5.533   3.086  13.059 -1.9799 -1.0231  1.0441
 2766TIP3    H229790   5.493   2.989  12.950  0.6329  0.3287 -1.2458
 2767TIP3   OH229791   3.163   4.817   2.544  0.2840 -0.6360 -0.0599
 2767TIP3    H129792   3.138   4.860   2.463  0.9782 -0.9431 -0.4544
 2767TIP3    H229793   3.082   4.780   2.578 -0.2749  0.7865  0.1787
 2768TIP3   OH229794   0.884   2.118  11.263  0.3606 -0.0676 -0.1734
 2768TIP3    H129795   0.840   2.067  11.195  1.2864 -0.7657 -0.2660
 2768TIP3    H229796   0.973   2.130  11.230  0.1172  1.7912 -0.2373
 2769TIP3   OH229797   2.215   6.739  14.957 -0.1203 -0.6867 -0.0623
 2769TIP3    H129798   2.293   6.793  14.968  0.5060 -1.1592 -1.9460
 2769TIP3    H229799   2.247   6.657  14.919 -1.2710 -1.7563  1.1819
 2770TIP3   OH229800   3.702   4.486  12.208 -0.0463 -0.1295  0.0980
 2770TIP3    H129801   3.671   4.396  12.201  0.9025 -0.5443  1.0069
 2770TIP3    H229802   3.639   4.528  12.266 -0.5032 -0.1950 -0.3453
 2771TIP3   OH229803   3.321   4.184  16.612 -0.0555  0.0094  0.5826
 2771TIP3    H129804   3.328   4.173  16.517  0.3908  0.4381  0.5611
 2771TIP3    H229805   3.409   4.213  16.639 -0.1718 -0.1420  1.1282
 2772TIP3   OH229806   4.264   1.376  12.274 -0.3308  0.4039 -0.3243
 2772TIP3    H129807   4.212   1.316  12.327 -1.9313  0.9146 -1.2361
 2772TIP3    H229808   4.199   1.432  12.231  1.0436  1.8281 -0.6394
 2773TIP3   OH229809   0.764   3.870  13.385  0.1428  0.7505  0.1514
 2773TIP3    H129810   0.732   3.815  13.457  0.9326 -0.9040 -0.6941
 2773TIP3    H229811   0.730   3.828  13.306  1.4942  0.9468 -0.5771
 2774TIP3   OH229812   3.796   3.796   2.244 -0.4747  0.2623  0.0599
 2774TIP3    H129813   3.784   3.773   2.152  0.8612 -1.4326  0.2558
 2774TIP3    H229814   3.760   3.722   2.293  1.8615 -0.5241  0.7699
 2775TIP3   OH229815   0.496   5.092   2.599 -0.1447  0.7715 -0.1359
 2775TIP3    H129816   0.503   5.188   2.606 -0.4046  0.6752  1.9737
 2775TIP3    H229817   0.576   5.066   2.553  0.1584  1.9636 -0.3250
 2776TIP3   OH229818   4.130   0.027   3.290 -0.0438  0.4700 -0.1268
 2776TIP3    H129819   4.077   0.106   3.292  0.5017  0.8185  1.6001
 2776TIP3    H229820   4.073  -0.039   3.250 -1.3103  1.1675  0.4870
 2777TIP3   OH229821   3.682   1.604   0.962  0.0467 -0.1865 -0.4211
 2777TIP3    H129822   3.674   1.579   0.870 -2.8097 -1.6864  0.1465
 2777TIP3    H229823   3.709   1.696   0.959 -2.0489  0.4449 -2.8275
 2778TIP3   OH229824   4.362   0.114   5.676 -0.3150 -0.5142 -0.2715
 2778TIP3    H129825   4.310   0.134   5.754  0.1272  0.5323 -0.2333
 2778TIP3    H229826   4.421   0.045   5.704  0.4246  0.4403  0.5816
 2779TIP3   OH229827   6.420   6.715  10.671  0.0773 -0.6721  0.3225
 2779TIP3    H129828   6.488   6.772  10.706  0.6860 -1.0028 -0.3014
 2779TIP3    H229829   6.467   6.651  10.618 -0.7262 -0.8647 -0.1767
 2780TIP3   OH229830   0.883   5.724  13.807  0.1314 -0.0436  0.6545
 2780TIP3    H129831   0.859   5.773  13.728 -0.7355 -0.6707  0.5163
 2780TIP3    H229832   0.924   5.644  13.774 -0.5671 -0.4781  0.8190
 2781TIP3   OH229833   6.211   6.567   0.180 -0.0799 -0.2376  0.1702
 2781TIP3    H129834   6.279   6.542   0.242 -1.5208 -0.3429  1.7769
 2781TIP3    H229835   6.198   6.661   0.195 -0.6636 -0.3319  0.2870
 2782TIP3   OH229836   1.739   6.515  13.073  0.1965 -0.6123 -0.3045
 2782TIP3    H129837   1.718   6.473  12.989 -3.4406 -0.8367  0.5573
 2782TIP3    H229838   1.750   6.608  13.050  0.3815 -0.8337 -1.1589
 2783TIP3   OH229839   1.226   2.497   2.124 -0.2733 -0.0261 -0.0559
 2783TIP3    H129840   1.309   2.544   2.116 -0.8715  1.1014  0.1415
 2783TIP3    H229841   1.200   2.511   2.215 -0.9778  0.1565 -0.2819
 2784TIP3   OH229842   3.928   0.130  15.792  0.1262 -0.8989 -0.5874
 2784TIP3    H129843   3.844   0.124  15.746 -0.2110 -0.5821 -0.0274
 2784TIP3    H229844   3.937   0.045  15.835 -1.1349 -0.1110  1.3890
 2785TIP3   OH229845   0.062   2.713  11.347  0.3462  0.3465  1.0191
 2785TIP3    H129846   0.149   2.708  11.385  0.8146 -1.7023 -0.1292
 2785TIP3    H229847   0.070   2.668  11.263 -2.1358 -1.3039  1.5435
 2786TIP3   OH229848   2.232   2.411  15.715  0.8609 -0.1653 -0.2059
 2786TIP3    H129849   2.161   2.451  15.664  0.6661 -2.4373 -1.8980
 2786TIP3    H229850   2.221   2.445  15.803 -0.5029  1.8244 -1.0634
 2787TIP3   OH229851   1.581   0.303   4.169  0.1716  0.1979 -0.0378
 2787TIP3    H129852   1.504   0.264   4.127  0.4002  0.7171 -0.9787
 2787TIP3    H229853   1.635   0.228   4.194 -1.1767 -0.2572  1.7993
 2788TIP3   OH229854   0.561   4.448   5.054  0.2865 -0.5716  0.1864
 2788TIP3    H129855   0.589   4.529   5.096 -1.3490 -0.4013  1.0115
 2788TIP3    H229856   0.524   4.476   4.970  3.4101 -0.8979 -1.4906
 2789TIP3   OH229857   3.833   0.931   5.102  0.1686 -0.1009 -0.0138
 2789TIP3    H129858   3.794   0.846   5.083 -0.8785  0.3401  0.0865
 2789TIP3    H229859   3.926   0.912   5.118 -0.0685 -1.2252  0.0978
 2790TIP3   OH229860   5.463   5.819   4.249 -0.5507  0.1704 -0.1820
 2790TIP3    H129861   5.483   5.749   4.187  0.6117  0.4546 -0.1579
 2790TIP3    H229862   5.442   5.894   4.193 -1.5190 -0.1168 -0.2096
 2791TIP3   OH229863   0.319   0.451   4.789  0.4273 -0.7781  0.7504
 2791TIP3    H129864   0.225   0.467   4.776  0.4931 -1.2284 -0.3627
 2791TIP3    H229865   0.338   0.490   4.874 -0.1149  2.0981 -0.3327
 2792TIP3   OH229866   0.295   2.227   0.878  0.0008  0.2431 -0.4131
 2792TIP3    H129867   0.219   2.249   0.932  1.2751  1.3250  1.0246
 2792TIP3    H229868   0.335   2.311   0.857  3.0010 -0.3449  2.2025
 2793TIP3   OH229869   4.070   0.092  11.137  0.0410  0.5557 -0.7280
 2793TIP3    H129870   3.987   0.052  11.161  0.1854  0.3870 -0.5094
 2793TIP3    H229871   4.076   0.080  11.042  0.3874 -0.5201 -0.5798
 2794TIP3   OH229872   5.796   4.402   2.039  0.0635 -0.2378  0.3897
 2794TIP3    H129873   5.721   4.386   1.982  0.9735 -2.3789 -0.2960
 2794TIP3    H229874   5.786   4.339   2.111  0.6432  0.2134  0.8837
 2795TIP3   OH229875   0.842   2.501  16.547 -0.1409 -0.2721 -0.2883
 2795TIP3    H129876   0.925   2.509  16.500 -0.5381  0.2299 -0.9049
 2795TIP3    H229877   0.823   2.407  16.545  0.7434 -0.4844  0.4466
 2796TIP3   OH229878   6.423   0.135  16.097 -0.3374 -0.4583  0.0795
 2796TIP3    H129879   6.349   0.086  16.131  0.1112 -0.7975  0.5910
 2796TIP3    H229880   6.388   0.223  16.081 -1.5032 -1.2775 -2.1979
 2797TIP3   OH229881   2.686   5.253  15.600  0.4047  0.0278 -0.4702
 2797TIP3    H129882   2.609   5.250  15.542 -0.1908 -0.4579  0.3163
 2797TIP3    H229883   2.761   5.246  15.541 -0.1477  0.6537 -1.2706
 2798TIP3   OH229884   1.777   0.067  11.402  0.1334 -0.2222  0.2424
 2798TIP3    H129885   1.765   0.054  11.308 -2.3550 -0.9303  0.6000
 2798TIP3    H229886   1.701   0.118  11.429  1.8296  1.7711  1.5891
 2799TIP3   OH229887   2.153   1.319   4.924  0.2464 -0.1361 -0.0218
 2799TIP3    H129888   2.128   1.321   5.016 -1.7813 -2.0856 -0.4442
 2799TIP3    H229889   2.244   1.287   4.925  0.5269  0.6246  1.3071
 2800TIP3   OH229890   6.268   1.460   4.267 -0.7620 -0.1995 -0.9399
 2800TIP3    H129891   6.296   1.548   4.294 -0.4398 -0.3789 -0.6873
 2800TIP3    H229892   6.175   1.471   4.244 -0.7143  0.2143 -0.9501
 2801TIP3   OH229893   0.438   1.723   1.629 -0.5112  0.1379  0.4844
 2801TIP3    H129894   0.494   1.800   1.639  0.2197 -0.3726  0.4145
 2801TIP3    H229895   0.472   1.679   1.551 -0.9283 -0.2523  0.5198
 2802TIP3   OH229896   2.877   0.196   0.565 -0.5755 -0.1526  0.0501
 2802TIP3    H129897   2.902   0.221   0.653 -2.2249 -0.6935  0.7228
 2802TIP3    H229898   2.945   0.134   0.536  0.3107  0.5179  0.6785
 2803TIP3   OH229899   4.733   4.083   4.409  0.1107  0.1267 -0.1874
 2803TIP3    H129900   4.648   4.124   4.423 -0.4287 -1.6048  2.1762
 2803TIP3    H229901   4.796   4.143   4.450 -0.4134 -0.3016  1.2880
 2804TIP3   OH229902   5.968   6.198   0.976 -0.2161 -0.2157  0.4165
 2804TIP3    H129903   5.901   6.146   1.020  0.0240  0.5132  1.7012
 2804TIP3    H229904   6.046   6.142   0.978 -1.0502 -1.6553 -2.3440
 2805TIP3   OH229905   4.736   4.948   1.861 -0.0354  0.0998 -0.1044
 2805TIP3    H129906   4.689   4.951   1.945  2.1458  2.6412  1.2017
 2805TIP3    H229907   4.797   4.875   1.870 -0.7819 -0.5156 -0.0461
 2806TIP3   OH229908   3.609   3.392   5.288 -0.0606  1.0948 -0.3999
 2806TIP3    H129909   3.549   3.332   5.331 -0.9440  1.8691 -0.5211
 2806TIP3    H229910   3.633   3.348   5.206 -2.1450  1.6564 -1.3761
 2807TIP3   OH229911   6.419   3.989   4.049  0.1609 -0.4671  0.1624
 2807TIP3    H129912   6.432   4.049   4.123 -1.1272 -0.8458  0.7191
 2807TIP3    H229913   6.404   4.047   3.975  0.8721 -0.0851  0.3101
 2808TIP3   OH229914   5.631   0.929   2.045  0.2606 -0.4751  0.2806
 2808TIP3    H129915   5.649   1.023   2.047  0.1244 -0.3746 -1.5501
 2808TIP3    H229916   5.707   0.891   2.001 -0.9634 -0.8350 -1.6186
 2809TIP3   OH229917   4.584   0.730   3.788  0.6099 -0.3093  0.8802
 2809TIP3    H129918   4.563   0.733   3.695 -0.8140 -0.0961  1.1799
 2809TIP3    H229919   4.571   0.639   3.813 -0.4494 -0.0960  1.1570
 2810TIP3   OH229920   0.300   0.288   0.665 -0.0730  0.3056  0.3850
 2810TIP3    H129921   0.257   0.228   0.605 -1.2083  0.1881  1.2948
 2810TIP3    H229922   0.357   0.341   0.609  1.3188 -1.8771 -0.3845
 2811TIP3   OH229923   0.229   5.078   3.906  0.2382 -0.4909 -0.2390
 2811TIP3    H129924   0.225   5.044   3.995 -1.5152 -1.1264 -0.5139
 2811TIP3    H229925   0.266   5.007   3.854 -0.8129 -0.9866 -0.3485
 2812TIP3   OH229926   5.903   3.691   2.853  0.3742 -0.0255 -1.4011
 2812TIP3    H129927   5.919   3.711   2.761  0.7152 -1.5282 -1.6986
 2812TIP3    H229928   5.813   3.657   2.855 -1.2039  3.7307 -0.5033
 2813TIP3   OH229929   1.030   0.687   0.256 -0.6813 -0.1827 -0.3351
 2813TIP3    H129930   1.117   0.654   0.279 -0.4182  0.1211 -0.8633
 2813TIP3    H229931   1.045   0.741   0.178 -0.9004  2.1460  1.1238
 2814TIP3   OH229932   2.153   4.842  14.635 -0.3463 -0.1823 -0.5478
 2814TIP3    H129933   2.094   4.800  14.698  0.4148  2.0880  1.8460
 2814TIP3    H229934   2.117   4.929  14.623  2.5415  1.4537  1.3121
 2815TIP3   OH229935   6.651   3.254   0.345 -0.1302  0.5817  0.1052
 2815TIP3    H129936   6.593   3.296   0.281 -0.0298 -1.2522 -1.2419
 2815TIP3    H229937   6.725   3.223   0.294  0.0183 -0.8270  1.1184
 2816TIP3   OH229938   5.627   1.269   0.719 -0.1667  0.3969 -0.2876
 2816TIP3    H129939   5.543   1.305   0.745 -0.4474  0.7754 -1.6583
 2816TIP3    H229940   5.684   1.282   0.795 -1.2113  0.5545  0.4776
 2817TIP3   OH229941   4.953   2.224   2.465  0.4537  0.4688  0.4198
 2817TIP3    H129942   5.047   2.234   2.477  0.0692  2.0863  2.9745
 2817TIP3    H229943   4.928   2.157   2.529 -0.2053  0.5863  0.2898
 2818TIP3   OH229944   4.790   4.520   3.560  0.4104  0.0778 -0.5173
 2818TIP3    H129945   4.738   4.543   3.482  0.9632 -1.1349 -1.2654
 2818TIP3    H229946   4.806   4.426   3.552 -1.1528 -0.5146  2.0695
 2819TIP3   OH229947   6.202   4.867   2.399  0.5274  0.4484  0.2995
 2819TIP3    H129948   6.277   4.815   2.427 -0.1266 -0.4664  0.4226
 2819TIP3    H229949   6.138   4.802   2.370  0.5114  1.2778 -1.6754
 2820TIP3   OH229950   1.064   2.117  11.531 -0.1565 -0.2478  0.0957
 2820TIP3    H129951   1.065   2.209  11.558 -0.3726 -0.7585  2.0549
 2820TIP3    H229952   0.993   2.111  11.468  0.7412  1.1693 -1.1123
 2821TIP3   OH229953   1.392   6.773  12.473  1.0309 -0.2798 -0.0982
 2821TIP3    H129954   1.336   6.816  12.538  0.5502 -0.8246 -0.1507
 2821TIP3    H229955   1.394   6.681  12.499 -0.4073 -0.8120 -1.7093
 2822TIP3   OH229956   0.808   5.420   3.269 -0.1715 -0.0969 -0.2462
 2822TIP3    H129957   0.829   5.331   3.241 -1.4401 -0.6980  0.6165
 2822TIP3    H229958   0.810   5.416   3.364  0.9321  1.1230 -0.1833
 2823TIP3   OH229959   2.766   2.120   1.061  0.3981 -0.0298 -0.0113
 2823TIP3    H129960   2.855   2.086   1.071 -0.0878 -1.9045 -1.5012
 2823TIP3    H229961   2.711   2.042   1.051 -1.2890  1.1141 -0.0429
 2824TIP3   OH229962   4.723   5.672   0.941  0.1330 -0.5158  0.0268
 2824TIP3    H129963   4.790   5.642   0.881  1.6151  1.5310  0.5301
 2824TIP3    H229964   4.768   5.680   1.025 -1.2473 -0.9133  0.8410
 2825TIP3   OH229965   0.528   5.525   2.339  0.1246 -0.2719 -0.3640
 2825TIP3    H129966   0.540   5.525   2.244 -0.1592 -0.7380 -0.4021
 2825TIP3    H229967   0.454   5.584   2.353 -0.8486 -1.4108 -0.5743
 2826TIP3   OH229968   3.108   6.167  11.574  0.3708  0.8118 -0.1510
 2826TIP3    H129969   3.091   6.261  11.582 -0.0136  0.7455 -0.1805
 2826TIP3    H229970   3.195   6.162  11.534  0.6969  1.1491  0.5026
 2827TIP3   OH229971   2.722   2.255   0.783  0.1336 -0.2702 -0.2582
 2827TIP3    H129972   2.783   2.328   0.777 -1.3805  1.1077  0.4498
 2827TIP3    H229973   2.740   2.216   0.869 -0.1229  0.2746  0.0461
 2828TIP3   OH229974   3.517   3.581   3.412  0.0854  0.8494 -0.3155
 2828TIP3    H129975   3.447   3.520   3.388  0.9139  0.0882 -0.8712
 2828TIP3    H229976   3.590   3.557   3.355  1.0709  1.0952  0.7972
 2829TIP3   OH229977   2.907   4.517   3.266  0.6232  0.3340  0.0419
 2829TIP3    H129978   2.945   4.469   3.340  0.4131  0.0767 -0.0135
 2829TIP3    H229979   2.982   4.542   3.212  0.7131 -0.2427 -0.1080
 2830TIP3   OH229980   0.138   5.416  12.870 -0.8112 -0.1230 -0.1113
 2830TIP3    H129981   0.174   5.494  12.828 -1.6812 -0.1834 -0.9988
 2830TIP3    H229982   0.115   5.445  12.958 -0.4096  0.4096 -0.1752
 2831TIP3   OH229983   5.844   5.628  12.037  0.2580  0.1981 -0.1237
 2831TIP3    H129984   5.768   5.570  12.033  0.4659 -0.0391 -0.8777
 2831TIP3    H229985   5.909   5.586  11.981  1.0165  0.3027  0.6530
 2832TIP3   OH229986   2.755   0.990  15.244 -0.6701  0.0544  0.3759
 2832TIP3    H129987   2.848   0.967  15.247 -1.0560 -1.9137 -0.9859
 2832TIP3    H229988   2.725   0.982  15.334  0.2284 -0.4256  0.6404
 2833TIP3   OH229989   6.003   0.032  15.417  0.0241 -0.3957 -0.2370
 2833TIP3    H129990   5.937  -0.014  15.469 -1.1757  1.7784  0.2567
 2833TIP3    H229991   6.059   0.074  15.481 -0.2353  0.6293 -0.6669
 2834TIP3   OH229992   2.874   5.530   5.608 -0.2789  1.2288 -0.0778
 2834TIP3    H129993   2.942   5.585   5.569  1.5095 -0.1047  1.0056
 2834TIP3    H229994   2.863   5.566   5.697  1.0151 -0.2025  0.6921
 2835TIP3   OH229995   5.199   0.427   6.252 -0.2827  0.2430  0.4454
 2835TIP3    H129996   5.109   0.460   6.257 -0.3954 -0.2098  2.1826
 2835TIP3    H229997   5.252   0.499   6.285 -0.3323 -0.4973  2.2634
 2836TIP3   OH229998   4.759   0.323   1.313  0.4543  0.9914  0.0790
 2836TIP3    H129999   4.801   0.238   1.326  1.0563  1.4061  0.9735
 2836TIP3    H230000   4.666   0.304   1.314  0.5896  0.1787 -0.9786
 2837TIP3   OH230001   6.119   3.691   6.556 -0.0069 -0.0954  0.4447
 2837TIP3    H130002   6.196   3.735   6.591  0.6083  0.0427 -1.0486
 2837TIP3    H230003   6.093   3.743   6.480 -0.8705 -0.8059  0.2330
 2838TIP3   OH230004   0.851   3.006  11.501 -0.2739  0.4625 -0.2235
 2838TIP3    H130005   0.756   3.002  11.515 -0.3288  0.1253 -0.6515
 2838TIP3    H230006   0.888   3.010  11.589 -0.7412  2.1960 -0.0502
 2839TIP3   OH230007   1.196   5.638   4.434 -0.9503  0.8893 -0.3831
 2839TIP3    H130008   1.215   5.691   4.512 -1.8676  0.0799  0.4169
 2839TIP3    H230009   1.137   5.692   4.382 -0.1926  1.5078 -0.6152
 2840TIP3   OH230010   2.159   2.942  11.787 -0.3160  0.2230 -0.3008
 2840TIP3    H130011   2.105   2.887  11.729  0.9662 -0.7183 -0.6479
 2840TIP3    H230012   2.203   2.880  11.844  0.2077  0.9947  0.1444
 2841TIP3   OH230013   3.929   2.836  11.648 -0.8799  0.1607 -0.4271
 2841TIP3    H130014   3.891   2.748  11.655 -0.8375  0.0446 -1.4043
 2841TIP3    H230015   3.859   2.895  11.676 -1.1120 -0.1561 -0.3364
 2842TIP3   OH230016   2.445   5.336   5.548 -0.9653 -0.2894  0.5798
 2842TIP3    H130017   2.520   5.351   5.605 -0.5017 -1.3700  0.2753
 2842TIP3    H230018   2.476   5.359   5.461 -1.7742  1.6919  0.7543
 2843TIP3   OH230019   2.400   0.530   4.953  0.1171 -0.2701  0.1758
 2843TIP3    H130020   2.382   0.586   4.877 -1.6279 -0.9107  0.0742
 2843TIP3    H230021   2.345   0.565   5.022 -0.3497 -1.3349  0.3561
 2844TIP3   OH230022   0.527   3.645  14.907  0.0278 -0.7622  0.0426
 2844TIP3    H130023   0.545   3.683  14.993 -0.0533 -1.9729  0.6174
 2844TIP3    H230024   0.609   3.600  14.884 -0.3634 -1.4903  0.0596
 2845TIP3   OH230025   1.148   2.024   1.527  0.1272 -0.4727  0.0849
 2845TIP3    H130026   1.181   2.080   1.598 -3.1255  1.1610  0.4748
 2845TIP3    H230027   1.095   1.958   1.571  0.8335 -1.5776 -0.6667
 2846TIP3   OH230028   1.389   2.247  12.053 -0.5391  0.1560  0.1267
 2846TIP3    H130029   1.317   2.285  12.002 -1.5698  0.6148  1.8308
 2846TIP3    H230030   1.346   2.206  12.128  0.9675  0.0815  0.9883
 2847TIP3   OH230031   0.334   6.793   1.176 -0.0240 -0.0216  0.5943
 2847TIP3    H130032   0.308   6.869   1.124 -0.3160 -1.5742 -1.6626
 2847TIP3    H230033   0.409   6.756   1.128 -1.1651 -2.3023  0.4417
 2848TIP3   OH230034   5.823   0.179  13.525  0.1489  0.6783  0.2054
 2848TIP3    H130035   5.797   0.216  13.609  1.4740  0.7639  0.5945
 2848TIP3    H230036   5.784   0.237  13.460 -2.6691 -0.5441  0.6596
 2849TIP3   OH230037   3.001   4.043   6.234 -0.1657  0.3644  0.1960
 2849TIP3    H130038   2.985   4.039   6.328 -1.0096 -0.6599  0.0287
 2849TIP3    H230039   2.913   4.049   6.195  0.2002  1.6965 -0.5022
 2850TIP3   OH230040   2.016   1.961  10.711  0.1330 -0.0764  0.7203
 2850TIP3    H130041   1.952   1.916  10.656 -1.2018 -0.0934  2.2347
 2850TIP3    H230042   2.086   1.897  10.724  0.0298 -0.3860 -0.1808
 2851TIP3   OH230043   5.449   6.150   3.363 -0.6871 -0.3136 -0.6565
 2851TIP3    H130044   5.536   6.163   3.400 -1.3944  0.8998  0.6831
 2851TIP3    H230045   5.443   6.055   3.350 -0.4235 -0.9043  2.6115
 2852TIP3   OH230046   1.216   1.074   0.387 -0.4096  0.1431 -0.9872
 2852TIP3    H130047   1.275   1.001   0.370 -0.0108  0.4254 -0.8512
 2852TIP3    H230048   1.174   1.053   0.470  0.6449  0.6474 -0.3003
 2853TIP3   OH230049   1.527   0.786  13.058 -0.0306  0.1583  0.1066
 2853TIP3    H130050   1.564   0.778  13.146 -0.8390  0.5209  0.4824
 2853TIP3    H230051   1.603   0.805  13.002  0.7223 -1.5008  0.4776
 2854TIP3   OH230052   1.821   1.608   0.080  0.4120  0.6128 -0.0927
 2854TIP3    H130053   1.842   1.633   0.170  0.9910  0.8366 -0.2849
 2854TIP3    H230054   1.783   1.521   0.087  0.7606  0.4930  0.3371
 2855TIP3   OH230055   1.162   2.902   1.859 -0.2897  0.0527 -0.1877
 2855TIP3    H130056   1.141   2.935   1.947  0.6087 -2.6064  1.1219
 2855TIP3    H230057   1.258   2.899   1.856 -0.2497  1.4046 -1.8361
 2856TIP3   OH230058   1.829   1.437   4.776 -0.2785  0.0388  0.0821
 2856TIP3    H130059   1.857   1.453   4.866 -1.3297 -0.4768  0.5281
 2856TIP3    H230060   1.901   1.389   4.736  0.0569 -0.0341  0.7602
 2857TIP3   OH230061   2.086   2.442  17.137 -0.3476  0.4221 -0.0975
 2857TIP3    H130062   2.177   2.432  17.165 -0.5796 -2.0981 -0.0584
 2857TIP3    H230063   2.080   2.534  17.109  1.9748  0.8669  0.6271
 2858TIP3   OH230064   3.257   6.402   1.463  0.2453 -0.2153  0.3206
 2858TIP3    H130065   3.275   6.459   1.538  1.7430  1.1867 -1.0231
 2858TIP3    H230066   3.326   6.335   1.467  0.0185 -0.4359  0.4936
 2859TIP3   OH230067   1.949   2.674   3.646  0.0657  0.5039 -0.9210
 2859TIP3    H130068   1.906   2.747   3.603 -0.1251  0.0883 -1.4411
 2859TIP3    H230069   1.886   2.644   3.711 -0.6440 -0.4065 -2.0026
 2860TIP3   OH230070   2.645   3.306   3.205  0.2269  0.0642 -0.4777
 2860TIP3    H130071   2.636   3.344   3.117  0.6736  1.0731 -0.1067
 2860TIP3    H230072   2.707   3.234   3.193  3.2975  2.4744 -0.4325
 2861TIP3   OH230073   4.005   2.402  11.663 -0.2830  0.1958  0.1412
 2861TIP3    H130074   4.044   2.431  11.746 -0.2921 -0.1297  0.2592
 2861TIP3    H230075   4.071   2.423  11.597 -0.5745  1.1382  0.1307
 2862TIP3   OH230076   4.374   5.300  10.957  0.4117 -0.4975  0.2012
 2862TIP3    H130077   4.283   5.273  10.964  0.7396 -1.6358  0.2377
 2862TIP3    H230078   4.422   5.220  10.938  1.5034 -0.0592  0.9699
 2863TIP3   OH230079   3.953   5.595  13.572 -0.1194 -1.1110  0.1370
 2863TIP3    H130080   3.945   5.538  13.495 -0.8585  0.4198 -0.9858
 2863TIP3    H230081   3.863   5.621  13.592  0.1296 -0.9893  1.1289
 2864TIP3   OH230082   4.943   0.232  11.326 -0.5607 -0.1533  0.1847
 2864TIP3    H130083   4.901   0.212  11.410 -2.0871  0.5384 -0.3948
 2864TIP3    H230084   4.956   0.146  11.285 -0.4917 -0.4395  0.7862
 2865TIP3   OH230085   5.452   2.009   4.242 -0.4057 -0.7226  0.0957
 2865TIP3    H130086   5.441   1.979   4.152 -0.4332  0.2864 -0.2474
 2865TIP3    H230087   5.405   1.945   4.295 -0.5066 -1.2471 -0.6161
 2866TIP3   OH230088   5.229   3.000  15.973 -0.3073 -0.3300  0.0106
 2866TIP3    H130089   5.294   2.995  16.043 -0.5472  1.6170  0.4109
 2866TIP3    H230090   5.145   2.983  16.017 -0.2888 -0.8629 -0.1487
 2867TIP3   OH230091   6.511   4.856  15.027 -0.7918 -0.0646  0.1390
 2867TIP3    H130092   6.430   4.820  15.064  0.1828 -1.7695  0.7596
 2867TIP3    H230093   6.549   4.906  15.099 -1.8251  1.7530 -0.5193
 2868TIP3   OH230094   1.722   6.457   1.789 -0.3394  0.0500 -0.4115
 2868TIP3    H130095   1.652   6.516   1.818 -0.5188  0.3097 -1.3425
 2868TIP3    H230096   1.801   6.493   1.829 -0.5346  0.5953 -0.5055
 2869TIP3   OH230097   2.336   2.253  13.774 -0.0972 -0.4574  0.0404
 2869TIP3    H130098   2.426   2.226  13.759 -0.1508 -0.6371  0.0425
 2869TIP3    H230099   2.296   2.180  13.821  0.0769  0.1213  1.1160
 2870TIP3   OH230100   5.465   1.753  12.072  0.3275  0.6746 -0.8000
 2870TIP3    H130101   5.561   1.758  12.069  0.5897 -2.7344 -1.7002
 2870TIP3    H230102   5.447   1.674  12.123 -1.9087  0.0570 -2.4059
 2871TIP3   OH230103   0.817   1.587  15.593 -0.0321  0.6716 -0.4733
 2871TIP3    H130104   0.898   1.638  15.596  0.1243  0.4259 -0.4709
 2871TIP3    H230105   0.750   1.646  15.627  0.3811  0.4186  0.8323
 2872TIP3   OH230106   5.094   3.617  14.969  0.7659  0.3421 -0.5197
 2872TIP3    H130107   5.071   3.615  15.061 -1.1344 -0.3783 -0.9782
 2872TIP3    H230108   5.128   3.529  14.950 -1.5436 -0.4937 -1.1029
 2873TIP3   OH230109   2.866   1.663  15.729  0.0784  0.2210 -0.2846
 2873TIP3    H130110   2.817   1.605  15.672  1.2742 -1.0747 -0.0436
 2873TIP3    H230111   2.799   1.714  15.775 -0.9758 -0.6137 -0.8651
 2874TIP3   OH230112   2.018   4.278   4.826 -0.3066 -0.1325 -0.5413
 2874TIP3    H130113   1.948   4.222   4.792  0.1064  0.4485 -2.4699
 2874TIP3    H230114   2.096   4.252   4.777  0.7812 -0.4641  1.2589
 2875TIP3   OH230115   5.154   2.610   0.461 -0.2932 -0.2534 -0.7024
 2875TIP3    H130116   5.088   2.560   0.510  0.1135 -0.0063  0.1179
 2875TIP3    H230117   5.229   2.613   0.519 -0.0145  0.5886 -1.0989
 2876TIP3   OH230118   3.928   2.936  12.405 -0.3316  0.1369  0.7874
 2876TIP3    H130119   3.948   3.027  12.383  0.0567 -0.2737 -0.6474
 2876TIP3    H230120   3.897   2.897  12.324  1.1120 -1.4466  0.9304
 2877TIP3   OH230121   1.850   3.782  11.921 -0.0445 -0.0876  0.1747
 2877TIP3    H130122   1.855   3.831  12.004 -0.9153  1.7591 -0.8001
 2877TIP3    H230123   1.821   3.847  11.857  0.9892 -1.3650 -1.6823
 2878TIP3   OH230124   0.568   4.677   1.483  0.1551  0.4744  0.2030
 2878TIP3    H130125   0.654   4.640   1.501 -0.5139 -1.3178  0.0039
 2878TIP3    H230126   0.579   4.727   1.402  1.4419  2.0512  1.2948
 2879TIP3   OH230127   1.331   2.162  10.862  0.2572 -0.2368 -0.2843
 2879TIP3    H130128   1.352   2.084  10.811  0.0588 -1.5544  1.5325
 2879TIP3    H230129   1.374   2.234  10.816 -1.9296 -0.8804 -3.7003
 2880TIP3   OH230130   2.698   2.925   6.014 -0.1463  0.5548  0.7141
 2880TIP3    H130131   2.693   2.954   5.922 -0.5880 -1.2335  0.1371
 2880TIP3    H230132   2.789   2.937   6.038  1.3711 -3.7744 -1.7218
 2881TIP3   OH230133   3.610   5.780   5.862 -0.4335  0.1186  0.2506
 2881TIP3    H130134   3.579   5.694   5.891 -0.7974 -0.2991 -1.3276
 2881TIP3    H230135   3.547   5.842   5.899 -1.5272 -0.4929 -0.5593
 2882TIP3   OH230136   1.655   4.676   0.460  0.2143 -0.2155  0.3389
 2882TIP3    H130137   1.746   4.669   0.490 -0.0666 -2.7277  0.8348
 2882TIP3    H230138   1.660   4.659   0.366  0.1592 -1.7182  0.5861
 2883TIP3   OH230139   6.036   2.792   4.281 -0.2977  0.5009  0.1781
 2883TIP3    H130140   6.092   2.868   4.294 -0.2366  0.8756 -1.9632
 2883TIP3    H230141   5.993   2.807   4.197 -1.3362 -1.1924  0.3486
 2884TIP3   OH230142   5.658   2.621   5.360 -0.0817 -0.3948  0.2161
 2884TIP3    H130143   5.639   2.555   5.293 -0.4721 -0.1304  0.0635
 2884TIP3    H230144   5.678   2.700   5.310  0.3983 -0.3956  0.3986
 2885TIP3   OH230145   4.150   5.384   1.452  0.2381  0.3037  0.2801
 2885TIP3    H130146   4.223   5.370   1.391  0.8957  0.5856  0.9883
 2885TIP3    H230147   4.077   5.335   1.413  1.3630 -1.7810  0.6302
 2886TIP3   OH230148   3.093   2.540  15.642 -0.1328  0.0607  0.7297
 2886TIP3    H130149   3.044   2.570  15.719 -1.4697  0.9564 -0.4297
 2886TIP3    H230150   3.026   2.510  15.581  0.7475  1.1778 -0.8603
 2887TIP3   OH230151   4.655   4.286  13.648  0.2387  0.4616 -0.5749
 2887TIP3    H130152   4.687   4.360  13.597 -0.8863  0.4201 -1.3833
 2887TIP3    H230153   4.732   4.232  13.663  0.9119  1.3666 -0.7217
 2888TIP3   OH230154   5.944   2.056   5.093 -0.3032  0.6964  0.3835
 2888TIP3    H130155   5.969   2.055   5.000  0.9927  1.1139  0.7192
 2888TIP3    H230156   5.874   2.120   5.098 -0.0283  1.0516 -0.2238
 2889TIP3   OH230157   1.603   0.795   4.492 -0.1965 -0.4428  0.6243
 2889TIP3    H130158   1.570   0.727   4.433 -1.1216 -1.9162  2.7347
 2889TIP3    H230159   1.536   0.864   4.488  0.2502 -0.0386 -0.7430
 2890TIP3   OH230160   4.389   1.214  13.528 -0.2343  1.0586  0.3656
 2890TIP3    H130161   4.436   1.288  13.567  0.5171  0.4320  0.6790
 2890TIP3    H230162   4.451   1.178  13.464 -1.1490  1.5897 -0.8550
 2891TIP3   OH230163   2.529   4.967   3.266 -0.2122  0.1623  0.1746
 2891TIP3    H130164   2.493   4.881   3.288  0.7140 -0.5740 -1.0190
 2891TIP3    H230165   2.608   4.947   3.216 -1.5045  1.6691 -2.6932
 2892TIP3   OH230166   1.644   6.206   1.065 -0.6902  0.0833  0.0974
 2892TIP3    H130167   1.734   6.175   1.054 -0.9827 -1.4328  1.6682
 2892TIP3    H230168   1.599   6.175   0.986  0.5497  2.7059 -1.7986
 2893TIP3   OH230169   3.095   4.981   2.329  0.1505  0.1654  0.1687
 2893TIP3    H130170   3.080   5.044   2.400 -0.7487  0.7252 -0.4920
 2893TIP3    H230171   3.130   5.034   2.257 -0.7981 -0.0249 -0.4587
 2894TIP3   OH230172   1.895   0.694   1.714  0.3203  0.7350 -0.3714
 2894TIP3    H130173   1.849   0.695   1.798  0.9383 -0.0721 -0.0124
 2894TIP3    H230174   1.832   0.656   1.653  0.4220 -0.1679  0.0713
 2895TIP3   OH230175   4.723   6.823  14.366  0.3897 -0.0250  0.6576
 2895TIP3    H130176   4.642   6.845  14.320  0.1421 -2.5455 -0.2883
 2895TIP3    H230177   4.788   6.884  14.332 -1.0501  2.0036  1.3752
 2896TIP3   OH230178   1.250   2.941  16.836  0.1678  0.5059  0.1697
 2896TIP3    H130179   1.260   3.034  16.816  1.2274  0.2283 -0.7119
 2896TIP3    H230180   1.336   2.904  16.819 -0.4215 -0.7603 -0.1685
 2897TIP3   OH230181   6.507   4.719   4.549  0.0678  0.0091 -0.2639
 2897TIP3    H130182   6.564   4.792   4.525 -0.0858  0.3739  0.4430
 2897TIP3    H230183   6.562   4.663   4.604 -0.1998  0.2783  0.2856
 2898TIP3   OH230184   4.741   6.011  12.265 -0.1220  0.5677  0.0527
 2898TIP3    H130185   4.691   5.984  12.189  0.1599 -0.8433  0.3361
 2898TIP3    H230186   4.698   6.091  12.296  0.1405  1.5124 -1.9145
 2899TIP3   OH230187   0.806   4.190  15.532 -0.1630 -0.2281  0.1965
 2899TIP3    H130188   0.711   4.204  15.523  0.0370  0.1725 -1.7353
 2899TIP3    H230189   0.836   4.265  15.583 -0.5353  1.2336 -1.6161
 2900TIP3   OH230190   3.727   0.671   1.388  0.2689  0.2164 -0.0512
 2900TIP3    H130191   3.647   0.702   1.430 -0.2053  0.1171 -0.8719
 2900TIP3    H230192   3.700   0.643   1.301  1.3273  0.9081 -0.6288
 2901TIP3   OH230193   4.762   3.744  16.120 -0.4251  0.5144  0.9133
 2901TIP3    H130194   4.667   3.759  16.111 -0.5947 -1.2366 -1.0673
 2901TIP3    H230195   4.768   3.658  16.162  0.1608 -0.6167 -1.3072
 2902TIP3   OH230196   6.450   6.267   5.228  0.2973 -0.0294 -0.2572
 2902TIP3    H130197   6.429   6.207   5.299  1.4222  0.8637  0.8621
 2902TIP3    H230198   6.365   6.301   5.200 -0.0997  0.6534  1.6240
 2903TIP3   OH230199   5.829   0.126  10.560  0.0812  0.1171 -0.1519
 2903TIP3    H130200   5.760   0.184  10.591  0.9738  1.5121 -0.6816
 2903TIP3    H230201   5.783   0.052  10.520 -1.0756  0.1209  1.0949
 2904TIP3   OH230202   5.034   3.667  12.368  0.5858  0.3048 -0.0693
 2904TIP3    H130203   5.036   3.723  12.290 -0.4541 -0.0611 -0.3743
 2904TIP3    H230204   4.952   3.689  12.412 -0.5254 -1.8283 -0.8822
 2905TIP3   OH230205   1.193   1.812   0.862  0.1967 -0.1888  0.3129
 2905TIP3    H130206   1.276   1.774   0.832  0.2841 -0.3869  0.8023
 2905TIP3    H230207   1.179   1.774   0.949 -1.9852 -2.6640 -0.9421
 2906TIP3   OH230208   5.723   2.478  11.097  0.2657  0.5181  0.0189
 2906TIP3    H130209   5.765   2.560  11.071  1.4039  0.1153  0.5138
 2906TIP3    H230210   5.708   2.488  11.191 -0.4393  0.5221 -0.0937
 2907TIP3   OH230211   5.469   3.547   0.124 -0.1304 -0.2721 -0.4501
 2907TIP3    H130212   5.487   3.505   0.040  1.9825  0.6579 -0.5282
 2907TIP3    H230213   5.376   3.533   0.138 -0.6290 -0.1428 -3.1158
 2908TIP3   OH230214   3.430   1.982   5.506  0.0160 -0.2416  0.1129
 2908TIP3    H130215   3.445   2.075   5.522 -2.3319  0.7700 -2.6540
 2908TIP3    H230216   3.380   1.952   5.582  1.1021  0.6122  1.2121
 2909TIP3   OH230217   2.152   6.354  12.318 -0.6878 -0.0184 -0.3140
 2909TIP3    H130218   2.062   6.357  12.284 -0.0075  0.9448 -2.2044
 2909TIP3    H230219   2.157   6.430  12.377 -1.4371 -0.7932  0.7916
 2910TIP3   OH230220   6.693   5.180  12.196  0.0350  0.3652 -0.0237
 2910TIP3    H130221   6.783   5.149  12.190 -0.1600 -0.6215  1.5497
 2910TIP3    H230222   6.639   5.106  12.170 -0.3593  0.1854  1.2176
 2911TIP3   OH230223   5.310   4.411  17.153  0.4151 -0.2642  0.1292
 2911TIP3    H130224   5.260   4.365  17.220  0.3264  1.6416  1.4515
 2911TIP3    H230225   5.243   4.443  17.092  0.2234  0.3026  0.6275
 2912TIP3   OH230226   2.099   5.924  12.965  0.1661 -0.2984 -0.1544
 2912TIP3    H130227   2.069   6.014  12.950 -1.5989 -0.1268  3.3990
 2912TIP3    H230228   2.150   5.929  13.045 -0.6573 -2.5372  0.5753
 2913TIP3   OH230229   5.700   4.449   0.234  0.2327  0.2272  0.1653
 2913TIP3    H130230   5.715   4.498   0.152  0.9271  1.7927  1.1785
 2913TIP3    H230231   5.662   4.514   0.293 -2.3021 -1.4308  0.4672
 2914TIP3   OH230232   5.053   5.480  11.990 -0.0974  0.2518 -0.0860
 2914TIP3    H130233   4.986   5.519  12.046  0.9643 -0.5816  1.8789
 2914TIP3    H230234   5.017   5.395  11.964 -1.0866  1.1261 -1.7359
 2915TIP3   OH230235   0.334   1.746  16.577  0.5881  0.2618 -0.4943
 2915TIP3    H130236   0.405   1.760  16.639 -1.1658  0.0125  1.7326
 2915TIP3    H230237   0.351   1.660  16.539  1.5595  0.2910 -0.1383
 2916TIP3   OH230238   1.993   1.933  15.551 -0.4106 -0.1333  0.7485
 2916TIP3    H130239   2.029   2.020  15.568  0.8966 -0.6993  0.9951
 2916TIP3    H230240   1.899   1.943  15.566 -1.3355  2.5661 -4.4301
 2917TIP3   OH230241   4.573   3.767   0.009  0.4247 -0.2084  0.5977
 2917TIP3    H130242   4.521   3.835  -0.034  1.0086 -0.2464 -0.1860
 2917TIP3    H230243   4.600   3.807   0.092 -0.5159 -0.0501  0.8474
 2918TIP3   OH230244   3.093   6.323  11.220 -0.6344  0.3172 -0.3534
 2918TIP3    H130245   3.179   6.332  11.180 -1.3287  2.0534 -1.5970
 2918TIP3    H230246   3.107   6.345  11.313  0.2284  0.7072 -0.5668
 2919TIP3   OH230247   1.772   3.154  12.210 -0.1292  0.3629  0.7794
 2919TIP3    H130248   1.831   3.128  12.139  0.9506  0.5403  1.5807
 2919TIP3    H230249   1.772   3.079  12.270 -0.0900  0.6658  1.1679
 2920TIP3   OH230250   4.330   1.248  13.198  0.3140 -0.2280 -0.0784
 2920TIP3    H130251   4.294   1.159  13.197  0.2325 -0.2798  2.2579
 2920TIP3    H230252   4.254   1.304  13.212  0.5788  0.0434  0.2814
 2921TIP3   OH230253   1.132   2.209  14.825  0.2526  0.3646 -0.0935
 2921TIP3    H130254   1.098   2.289  14.785  0.1557  0.3617 -0.0178
 2921TIP3    H230255   1.147   2.150  14.752 -2.9539 -0.8406  0.0344
 2922TIP3   OH230256   2.879   6.766  10.896  0.0025 -0.4570 -0.3052
 2922TIP3    H130257   2.834   6.842  10.859 -1.5579 -1.2308 -0.0690
 2922TIP3    H230258   2.874   6.699  10.828 -0.7401 -1.0986  0.3524
 2923TIP3   OH230259   3.261   6.618  14.419 -0.2670  0.0002 -0.1726
 2923TIP3    H130260   3.215   6.643  14.499 -2.1347  2.1450 -1.7896
 2923TIP3    H230261   3.232   6.528  14.403 -1.7164  0.3307  0.3723
 2924TIP3   OH230262   3.086   3.234  13.531 -0.2689 -0.0885  0.2519
 2924TIP3    H130263   3.034   3.219  13.610  1.3004  2.5758  1.9229
 2924TIP3    H230264   3.168   3.188  13.547 -0.1129  0.0808 -0.0407
 2925TIP3   OH230265   5.347   1.533   3.785  0.1163 -0.7141 -0.5646
 2925TIP3    H130266   5.315   1.445   3.764  0.4385 -0.7058 -1.1160
 2925TIP3    H230267   5.399   1.522   3.864  1.6571 -1.3505 -1.6224
 2926TIP3   OH230268   4.850   1.799  15.506 -0.3333  0.0887 -0.2678
 2926TIP3    H130269   4.941   1.781  15.527 -1.0692 -3.1031  0.7906
 2926TIP3    H230270   4.803   1.787  15.589 -1.8736  0.2285 -1.0724
 2927TIP3   OH230271   2.705   3.897  10.653  0.7813 -0.4290  0.1078
 2927TIP3    H130272   2.747   3.893  10.567  1.6626 -2.4706  0.5734
 2927TIP3    H230273   2.635   3.832  10.648 -0.0130  0.3664  0.5492
 2928TIP3   OH230274   4.951   5.900  12.622  0.2942  0.5211 -0.0797
 2928TIP3    H130275   5.016   5.876  12.688  1.4756  1.3675 -0.8968
 2928TIP3    H230276   4.881   5.943  12.672  1.1581  1.1377  0.6171
 2929TIP3   OH230277   0.374   0.917  11.472 -0.2370 -0.4324 -0.1561
 2929TIP3    H130278   0.361   0.952  11.383  1.8955  0.2466 -0.2518
 2929TIP3    H230279   0.310   0.964  11.525 -1.8325 -1.1463 -1.3615
 2930TIP3   OH230280   1.485   3.163   2.192 -0.0164 -0.5548  0.5508
 2930TIP3    H130281   1.533   3.114   2.126 -1.7050 -1.3636 -0.1427
 2930TIP3    H230282   1.480   3.252   2.158  1.1761 -0.3958  0.7614
 2931TIP3   OH230283   3.239   1.944   0.037 -0.3497  0.1395 -0.0127
 2931TIP3    H130284   3.315   1.977  -0.012  0.0841 -1.2682 -0.3098
 2931TIP3    H230285   3.275   1.881   0.099 -1.0952  0.7204  1.0436
 2932TIP3   OH230286   3.530   4.404  15.853 -0.2721 -0.1928 -0.7287
 2932TIP3    H130287   3.579   4.349  15.792  1.4357  1.5301 -1.0005
 2932TIP3    H230288   3.597   4.450  15.903 -1.5906  1.8689 -0.7378
 2933TIP3   OH230289   4.614   1.558   3.043  0.2476 -0.0297 -0.0070
 2933TIP3    H130290   4.629   1.463   3.040 -1.4004 -0.2925 -1.1836
 2933TIP3    H230291   4.688   1.592   3.093  0.8586 -1.9353  0.4728
 2934TIP3   OH230292   6.366   0.234  14.751  0.2530  0.7572  1.1040
 2934TIP3    H130293   6.304   0.291  14.706  0.9104  1.4312  1.0362
 2934TIP3    H230294   6.407   0.183  14.681 -1.9731 -1.5418  1.3232
 2935TIP3   OH230295   4.390   2.808  10.866 -0.0291 -0.0863  0.1080
 2935TIP3    H130296   4.392   2.744  10.938 -1.4657 -3.8365 -2.8826
 2935TIP3    H230297   4.449   2.877  10.896  1.1608 -2.3942  3.9606
 2936TIP3   OH230298   2.256   1.153  13.731 -0.1780  0.3084  0.0362
 2936TIP3    H130299   2.235   1.114  13.646  0.5746 -1.6900  0.7077
 2936TIP3    H230300   2.351   1.161  13.730 -0.2097  0.7855  0.4929
 2937TIP3   OH230301   3.570   5.768   2.172 -0.0904  0.0594 -0.1786
 2937TIP3    H130302   3.482   5.757   2.207 -0.5310  1.5800 -0.6921
 2937TIP3    H230303   3.562   5.843   2.112  1.6430  0.5436  0.1400
 2938TIP3   OH230304   2.697   3.900   2.672  0.1588  0.2743  0.2854
 2938TIP3    H130305   2.605   3.892   2.647  0.7372 -1.7065 -1.3830
 2938TIP3    H230306   2.695   3.962   2.745 -2.5640 -0.1896  0.7403
 2939TIP3   OH230307   3.960   4.646  14.407  0.4599 -0.0407 -0.0021
 2939TIP3    H130308   4.001   4.569  14.368  1.4684 -0.4235  1.7077
 2939TIP3    H230309   3.907   4.612  14.478 -0.1983  0.7447 -0.0967
 2940TIP3   OH230310   5.798   6.071  14.425 -0.1660  0.7456  0.0375
 2940TIP3    H130311   5.777   6.160  14.397 -0.9356  0.7509  0.5927
 2940TIP3    H230312   5.733   6.051  14.493 -0.0916 -0.2906 -0.1775
 2941TIP3   OH230313   5.509   3.751   5.643  0.5423 -0.1812  0.9855
 2941TIP3    H130314   5.459   3.671   5.626 -0.5385  0.5149  0.7820
 2941TIP3    H230315   5.445   3.822   5.631  1.6646  0.7575  0.4011
 2942TIP3   OH230316   6.240   3.269   3.972  1.1966 -0.7584  0.2653
 2942TIP3    H130317   6.301   3.223   4.029  2.4268 -1.1340 -1.3150
 2942TIP3    H230318   6.288   3.347   3.943  0.5902 -0.5746 -0.2655
 2943TIP3   OH230319   5.041   2.892  15.243  0.8132 -0.2072 -0.9744
 2943TIP3    H130320   5.021   2.977  15.283  0.2924 -0.5159 -0.5536
 2943TIP3    H230321   5.136   2.891  15.234  0.9496 -0.1141  0.2774
 2944TIP3   OH230322   0.546   5.398   3.115 -0.1676  0.0557  0.3081
 2944TIP3    H130323   0.614   5.330   3.115  0.5505  0.7421 -0.8590
 2944TIP3    H230324   0.562   5.447   3.195  0.6941  0.1788  0.0762
 2945TIP3   OH230325   5.798   5.056  16.701 -0.1830  0.3374  0.3382
 2945TIP3    H130326   5.891   5.079  16.702  0.2597 -1.2925  1.2148
 2945TIP3    H230327   5.775   5.052  16.608  1.7799 -3.2357 -0.2043
 2946TIP3   OH230328   6.111   2.372   0.543  0.0327 -0.5276  1.1245
 2946TIP3    H130329   6.177   2.385   0.475  0.0588 -0.8903  1.0783
 2946TIP3    H230330   6.112   2.454   0.593  1.1568 -0.8612  1.6807
 2947TIP3   OH230331   4.989   0.293   4.077 -0.1687  0.3975  0.4830
 2947TIP3    H130332   4.980   0.237   4.154 -2.2570 -0.0105 -0.0080
 2947TIP3    H230333   4.909   0.345   4.075 -0.0052  0.6595 -1.1982
 2948TIP3   OH230334   2.584   1.241   0.522 -0.2770 -0.2914 -0.4922
 2948TIP3    H130335   2.542   1.171   0.571 -0.0108 -2.5893 -3.2773
 2948TIP3    H230336   2.568   1.218   0.430  2.2240  1.8293 -1.5685
 2949TIP3   OH230337   6.646   2.311   2.344 -0.1425  0.5858  0.0732
 2949TIP3    H130338   6.735   2.287   2.318 -0.1489 -1.6699  1.7623
 2949TIP3    H230339   6.652   2.404   2.366  1.0030  1.2909 -2.7303
 2950TIP3   OH230340   6.023   1.875   2.965  0.2808  0.5630  0.1058
 2950TIP3    H130341   6.082   1.862   2.891  0.0392  0.8556 -0.1445
 2950TIP3    H230342   5.936   1.882   2.925 -0.1131 -1.2378  0.5791
 2951TIP3   OH230343   5.723   3.722  14.416 -0.0505  0.6213  0.6509
 2951TIP3    H130344   5.654   3.689  14.474 -1.3987  0.4417 -0.9828
 2951TIP3    H230345   5.760   3.644  14.376 -0.5244  0.8279 -0.2237
 2952TIP3   OH230346   4.393   5.944  13.191 -0.7816 -0.1118 -0.1162
 2952TIP3    H130347   4.428   5.924  13.104  0.6190  1.6502  0.0028
 2952TIP3    H230348   4.416   5.868  13.244 -2.6922 -1.7805 -1.4727
 2953TIP3   OH230349   2.293   6.359  14.542  0.2603 -0.0077  0.0786
 2953TIP3    H130350   2.231   6.289  14.560 -0.5542  0.9818  1.2811
 2953TIP3    H230351   2.239   6.432  14.511  0.9858  0.3995 -0.2681
 2954TIP3   OH230352   4.529   6.258  15.871  0.0037 -0.5757  0.3872
 2954TIP3    H130353   4.598   6.306  15.825 -0.4447 -0.3853 -0.0965
 2954TIP3    H230354   4.501   6.318  15.940 -0.4837 -0.1747 -0.1529
 2955TIP3   OH230355   0.236   5.639   4.042  0.3570 -0.2885  0.2576
 2955TIP3    H130356   0.245   5.676   3.954  2.9871 -1.4723 -0.0580
 2955TIP3    H230357   0.170   5.571   4.032 -1.0723  1.1047 -0.2143
 2956TIP3   OH230358   5.893   0.353  14.509  0.2100  0.6747  0.0785
 2956TIP3    H130359   5.861   0.266  14.530 -1.0646  0.8545 -1.0006
 2956TIP3    H230360   5.820   0.411  14.530  0.3790  1.2749 -0.9047
 2957TIP3   OH230361   5.126   4.961   5.017 -0.0571 -0.5721  0.3859
 2957TIP3    H130362   5.089   4.913   5.091 -0.8643  0.8641  0.9561
 2957TIP3    H230363   5.097   5.051   5.030 -0.0739 -0.2478 -1.5875
 2958TIP3   OH230364   5.288   1.994  14.997 -0.0244  0.2629 -0.3701
 2958TIP3    H130365   5.279   1.902  15.024 -0.8858  1.3987  3.9413
 2958TIP3    H230366   5.200   2.019  14.968 -0.3760  0.2910  0.6872
 2959TIP3   OH230367   6.120   1.169   6.952  0.0943  0.0753  0.0947
 2959TIP3    H130368   6.158   1.132   6.872  0.5784 -0.3591  0.5156
 2959TIP3    H230369   6.045   1.219   6.922  0.4644  0.1851 -0.6679
 2960TIP3   OH230370   2.566   6.157   2.616  0.1543 -0.0378 -0.0502
 2960TIP3    H130371   2.638   6.095   2.619 -0.0649 -0.3743 -1.2747
 2960TIP3    H230372   2.606   6.240   2.590  0.4645  0.4008  1.6910
 2961TIP3   OH230373   5.026   2.941  12.142 -0.1966  0.8906  0.0707
 2961TIP3    H130374   5.048   2.848  12.145  0.7241  1.1288  2.5730
 2961TIP3    H230375   5.109   2.984  12.121  0.0650  1.2868  1.7702
 2962TIP3   OH230376   1.173   3.634  14.664 -0.1531  0.3755  0.2113
 2962TIP3    H130377   1.079   3.624  14.676 -0.7536  2.2745 -2.0916
 2962TIP3    H230378   1.185   3.727  14.645  2.0925  0.0361 -0.3616
 2963TIP3   OH230379   0.182   5.005   2.434 -0.2633 -0.2320 -0.5491
 2963TIP3    H130380   0.167   5.007   2.528 -1.6530 -2.9403 -0.6003
 2963TIP3    H230381   0.132   5.079   2.399 -0.2125  0.4404  0.7523
 2964TIP3   OH230382   1.924   2.760   3.941  0.0502  0.3075  0.3011
 2964TIP3    H130383   1.848   2.818   3.947  1.1257  1.7009  1.4323
 2964TIP3    H230384   1.971   2.790   3.863  0.6816  1.1127  0.9656
 2965TIP3   OH230385   0.252   1.237   5.264  0.0185  0.2161  0.4207
 2965TIP3    H130386   0.332   1.267   5.309 -0.1741 -1.4998  2.0326
 2965TIP3    H230387   0.186   1.234   5.334 -0.1271 -3.2217  0.2591
 2966TIP3   OH230388   5.816   4.622  13.361 -0.0989  0.0762  0.2454
 2966TIP3    H130389   5.827   4.687  13.430 -0.6308 -0.2258  0.6189
 2966TIP3    H230390   5.841   4.539  13.401  1.2895  0.1367 -0.4409
 2967TIP3   OH230391   2.693   0.012  16.870  0.1457  0.2019  0.1220
 2967TIP3    H130392   2.777   0.049  16.843  0.6768 -1.4046 -0.5130
 2967TIP3    H230393   2.676   0.051  16.956  0.8122  1.6506 -0.3673
 2968TIP3   OH230394   3.888   3.902   4.262  0.1006 -0.4259 -0.1950
 2968TIP3    H130395   3.814   3.923   4.206  0.7993 -1.6348 -1.6573
 2968TIP3    H230396   3.855   3.836   4.323 -0.4230  0.2334  0.2567
 2969TIP3   OH230397   6.766   2.666   1.898  0.1034  0.3601 -0.2948
 2969TIP3    H130398   6.794   2.590   1.949 -1.1771 -1.2585 -1.8640
 2969TIP3    H230399   6.711   2.716   1.958  2.3659  1.1019  1.3289
 2970TIP3   OH230400   5.235   0.367   5.984 -0.1734  0.2199 -0.2816
 2970TIP3    H130401   5.224   0.358   6.079  0.1957 -3.1729 -0.4621
 2970TIP3    H230402   5.147   0.388   5.952 -0.4697  0.5669  0.7241
 2971TIP3   OH230403   2.068   5.504  11.617  0.0924 -0.1204  0.1364
 2971TIP3    H130404   2.009   5.443  11.663  0.5687  0.9682  2.3322
 2971TIP3    H230405   2.106   5.557  11.687  3.4865 -0.5736 -1.2081
 2972TIP3   OH230406   3.443   4.159  16.042  0.2137 -0.1730  0.2815
 2972TIP3    H130407   3.463   4.079  15.994  1.0394  0.4748 -0.4775
 2972TIP3    H230408   3.369   4.197  15.996  0.6933  0.1969 -0.1887
 2973TIP3   OH230409   3.703   5.055   3.482  0.4819  0.2556  0.8960
 2973TIP3    H130410   3.798   5.061   3.489  0.2864  2.1403  2.8255
 2973TIP3    H230411   3.671   5.142   3.503 -1.6762  0.0221 -0.9189
 2974TIP3   OH230412   2.573   5.527  12.351 -0.5145  0.3196 -0.1885
 2974TIP3    H130413   2.597   5.619  12.355  3.3152 -0.5028 -0.6472
 2974TIP3    H230414   2.620   5.486  12.423  1.9588 -1.9038 -2.7960
 2975TIP3   OH230415   0.867   5.100   0.465  0.7774 -0.5649 -0.0682
 2975TIP3    H130416   0.938   5.162   0.451 -0.0968  0.5487  0.2748
 2975TIP3    H230417   0.874   5.039   0.391  2.4985 -0.9137  0.3437
 2976TIP3   OH230418   5.098   4.995  15.224  0.5289 -0.1795  0.3970
 2976TIP3    H130419   5.124   5.070  15.171  1.7077 -0.5784  0.3953
 2976TIP3    H230420   5.178   4.967  15.269 -0.1269 -0.7685  1.2411
 2977TIP3   OH230421   2.166   0.573   1.930  0.0655 -0.3564 -0.0814
 2977TIP3    H130422   2.152   0.651   1.876  3.4847 -0.9803 -2.1870
 2977TIP3    H230423   2.081   0.529   1.930 -1.7640  2.8528  0.4971
 2978TIP3   OH230424   2.836   2.406   1.687  0.4224  0.1430  0.5187
 2978TIP3    H130425   2.780   2.427   1.612  0.2234 -1.3713  0.2018
 2978TIP3    H230426   2.922   2.443   1.664  0.5615 -0.9206 -0.8313
 2979TIP3   OH230427   5.511   3.377  12.769  1.3384  0.1591 -0.0005
 2979TIP3    H130428   5.508   3.463  12.726  1.7260  0.9322  1.4376
 2979TIP3    H230429   5.566   3.324  12.712  2.0279  1.2149 -0.3504
 2980TIP3   OH230430   0.602   2.341   3.455 -0.5743  0.1013  0.5693
 2980TIP3    H130431   0.585   2.347   3.361  0.3253  0.9182  0.4450
 2980TIP3    H230432   0.543   2.272   3.485 -1.5689  0.4891 -0.4199
 2981TIP3   OH230433   4.336   2.027   1.629  0.0839  1.0362 -0.0102
 2981TIP3    H130434   4.337   2.010   1.723 -2.7719  0.2805 -0.0193
 2981TIP3    H230435   4.425   2.054   1.608  1.1491 -0.1199  2.6416
 2982TIP3   OH230436   5.985   6.380  12.689 -0.1724 -0.2914  0.3141
 2982TIP3    H130437   6.036   6.332  12.624  0.7451  1.0058  0.0437
 2982TIP3    H230438   6.006   6.338  12.772 -1.0482 -1.7057 -0.1380
 2983TIP3   OH230439   1.166   3.231   2.400  0.6224  0.3712 -0.1997
 2983TIP3    H130440   1.131   3.149   2.436  0.6737  1.0500  1.4782
 2983TIP3    H230441   1.159   3.220   2.306  0.3040 -1.4297 -0.0075
 2984TIP3   OH230442   2.051   1.905  11.940 -0.3836 -0.3553 -0.1002
 2984TIP3    H130443   2.129   1.896  11.886  0.2568  1.7273  0.4079
 2984TIP3    H230444   2.003   1.978  11.901 -0.9039 -0.1076  0.9504
 2985TIP3   OH230445   3.932   0.425  13.532 -0.1928  0.2046 -0.7747
 2985TIP3    H130446   4.010   0.375  13.507  0.1375 -0.9363  2.0722
 2985TIP3    H230447   3.939   0.507  13.483  2.9179  0.2196 -0.5455
 2986TIP3   OH230448   3.794   2.967   5.382 -0.1677  0.1670  0.6315
 2986TIP3    H130449   3.814   2.892   5.326 -0.2972 -0.9837  2.0635
 2986TIP3    H230450   3.723   3.012   5.338 -0.9833 -1.3137  0.3799
 2987TIP3   OH230451   4.741   5.486   5.268 -0.0339 -0.3710 -0.3452
 2987TIP3    H130452   4.658   5.491   5.222 -0.8698 -0.0125  1.1135
 2987TIP3    H230453   4.807   5.479   5.200 -1.4226 -3.5078 -1.5317
 2988TIP3   OH230454   6.355   2.808  13.157  0.4264 -0.0588 -0.4119
 2988TIP3    H130455   6.411   2.885  13.154 -0.9112  0.9554 -0.4876
 2988TIP3    H230456   6.320   2.800  13.068  0.4718 -0.6860 -0.3776
 2989TIP3   OH230457   4.924   5.957  16.666  0.4678 -0.6993 -0.4736
 2989TIP3    H130458   4.875   5.946  16.747 -0.0322 -0.6931 -0.7757
 2989TIP3    H230459   4.906   5.878  16.616  1.0692 -0.8724 -0.4319
 2990TIP3   OH230460   2.797   0.886  16.450 -0.3723  0.3487 -0.7436
 2990TIP3    H130461   2.733   0.890  16.379 -2.4525 -1.7479  0.8348
 2990TIP3    H230462   2.776   0.961  16.506 -0.6932  0.3173 -0.8224
 2991TIP3   OH230463   5.247   1.794   5.003  0.3310  0.0649 -0.8626
 2991TIP3    H130464   5.222   1.769   4.914  0.2024  2.2061 -1.4783
 2991TIP3    H230465   5.191   1.869   5.024  0.6332 -0.1536  0.8765
 2992TIP3   OH230466   1.867   2.069  12.633 -0.2619 -0.2540 -0.2976
 2992TIP3    H130467   1.925   2.059  12.708  0.2959  1.8504 -0.4047
 2992TIP3    H230468   1.869   1.983  12.590  2.3395 -0.4268  0.0170
 2993TIP3   OH230469   1.944   6.455  17.019  0.2340  0.3240  0.5666
 2993TIP3    H130470   1.932   6.388  16.951  1.8026 -2.0220  2.4133
 2993TIP3    H230471   1.869   6.445  17.076  0.8784 -0.5174  1.3005
 2994TIP3   OH230472   2.255   1.333  15.876 -0.3818  0.2292  0.4048
 2994TIP3    H130473   2.209   1.271  15.819 -2.7947 -0.9066  3.2673
 2994TIP3    H230474   2.343   1.298  15.884 -0.9757 -1.4564 -0.0251
 2995TIP3   OH230475   4.106   3.764  14.951 -0.4140  0.4740 -0.1360
 2995TIP3    H130476   4.038   3.730  15.009  0.1276  2.1543  1.5588
 2995TIP3    H230477   4.137   3.687  14.903 -3.4709 -0.3502 -1.0060
 2996TIP3   OH230478   0.108   1.018  15.757  0.1579  0.1498 -0.2057
 2996TIP3    H130479   0.178   1.029  15.822  0.2574 -0.9610 -0.1065
 2996TIP3    H230480   0.139   1.066  15.680  1.7718 -1.5595 -0.6977
 2997TIP3   OH230481   5.779   3.471   1.385 -0.5779  0.1250  0.0802
 2997TIP3    H130482   5.866   3.498   1.416 -0.0451 -0.7495 -0.6142
 2997TIP3    H230483   5.721   3.492   1.458  0.0309  1.6793  0.1704
 2998TIP3   OH230484   5.284   0.155   6.549  0.0165 -0.1700  0.3054
 2998TIP3    H130485   5.291   0.214   6.624 -0.2360 -0.5351  0.6191
 2998TIP3    H230486   5.345   0.084   6.568  0.1030 -0.1586  0.0704
 2999TIP3   OH230487   4.205   0.423   0.598  0.0123  0.1362  0.1551
 2999TIP3    H130488   4.271   0.492   0.600  1.2520 -1.0064 -0.2028
 2999TIP3    H230489   4.132   0.461   0.548  0.7729  1.0799 -0.2673
 3000TIP3   OH230490   1.455   1.812  15.484  0.2732 -0.2873 -0.3887
 3000TIP3    H130491   1.407   1.791  15.404 -1.1889 -0.9009  0.5952
 3000TIP3    H230492   1.409   1.888  15.520 -0.7302 -1.5499  1.1367
 3001TIP3   OH230493   5.255   1.135   3.211  0.3804  0.3368  0.1964
 3001TIP3    H130494   5.302   1.142   3.294  0.1533  1.6116  0.2460
 3001TIP3    H230495   5.256   1.224   3.176  0.6896 -0.2342 -1.2970
 3002TIP3   OH230496   2.649   3.757   2.330 -0.3614 -0.0373 -0.0010
 3002TIP3    H130497   2.628   3.850   2.337  0.0244  0.1392 -1.0273
 3002TIP3    H230498   2.585   3.723   2.267 -1.2718 -0.7411  1.2442
 3003TIP3   OH230499   2.006   3.766   2.963  0.1489  0.4387  0.3659
 3003TIP3    H130500   1.965   3.820   2.897  0.9403  0.6399  0.0253
 3003TIP3    H230501   2.091   3.742   2.925 -0.3679 -1.4384  0.2915
 3004TIP3   OH230502   1.873   6.244   2.413  0.2710  0.5458  0.3598
 3004TIP3    H130503   1.812   6.252   2.341 -0.8956  1.2353  1.3940
 3004TIP3    H230504   1.941   6.184   2.380  0.3804  1.6941 -1.6687
 3005TIP3   OH230505   0.233   0.325   1.582 -0.0702 -0.2931 -0.9141
 3005TIP3    H130506   0.148   0.346   1.620  0.4030 -1.8220  1.1527
 3005TIP3    H230507   0.227   0.356   1.492 -2.2109  1.1181 -0.3695
 3006TIP3   OH230508   5.021   5.343   3.166 -0.3792 -0.0022 -0.2554
 3006TIP3    H130509   5.006   5.413   3.103  0.4785  1.3564  1.0034
 3006TIP3    H230510   4.963   5.272   3.137 -0.4535  0.7936 -2.1900
 3007TIP3   OH230511   2.062   5.954  12.179  0.1873  0.2669  0.0691
 3007TIP3    H130512   1.994   5.969  12.245  0.5479  0.6935  0.3515
 3007TIP3    H230513   2.032   5.877  12.131  0.3414 -0.6204  1.3244
 3008TIP3   OH230514   3.260   2.750  14.444  0.3082 -0.1461 -0.5127
 3008TIP3    H130515   3.293   2.744  14.534  0.4052 -0.2072 -0.5525
 3008TIP3    H230516   3.331   2.715  14.390  0.5816  0.6487 -0.6845
 3009TIP3   OH230517   1.782   0.547  16.953 -0.1770 -0.5103 -0.8649
 3009TIP3    H130518   1.877   0.533  16.947 -0.1436 -0.2981 -0.8496
 3009TIP3    H230519   1.757   0.510  17.037 -0.0384 -0.1917 -0.6825
 3010TIP3   OH230520   0.327   3.165  16.504 -0.5854 -0.0894 -0.5858
 3010TIP3    H130521   0.269   3.096  16.471  2.4070 -3.1584  0.0008
 3010TIP3    H230522   0.339   3.144  16.596  0.7961  0.8946 -0.5210
 3011TIP3   OH230523   4.402   5.527   3.015  0.2041 -0.0730 -0.0755
 3011TIP3    H130524   4.319   5.500   3.055 -0.4840  2.0948  0.0906
 3011TIP3    H230525   4.379   5.544   2.923  0.5964 -0.0119 -0.1623
 3012TIP3   OH230526   0.368   6.035  11.067 -0.3539 -0.5184 -0.5968
 3012TIP3    H130527   0.409   5.968  11.013 -0.3278 -0.5428 -0.5464
 3012TIP3    H230528   0.294   6.066  11.015 -0.9106 -1.2304 -0.2308
 3013TIP3   OH230529   1.004   1.402   5.051 -0.4368 -0.0671 -0.0962
 3013TIP3    H130530   0.914   1.410   5.081 -1.5224 -0.9749 -2.7521
 3013TIP3    H230531   1.004   1.322   4.998  1.7053  0.4037 -0.8952
 3014TIP3   OH230532   0.001   5.730  17.172 -0.1874 -0.3867  0.3341
 3014TIP3    H130533  -0.066   5.775  17.224  1.0027  0.1206  1.5150
 3014TIP3    H230534  -0.022   5.638  17.178 -1.4172 -0.1302 -0.2422
 3015TIP3   OH230535   1.366   5.039  13.559  0.0235  0.4267 -0.4960
 3015TIP3    H130536   1.345   4.962  13.612  0.0731  1.5274  1.2301
 3015TIP3    H230537   1.452   5.021  13.523  0.1535 -0.2153  0.1214
 3016TIP3   OH230538   0.616   3.728   0.803  0.1632 -0.3614  0.2977
 3016TIP3    H130539   0.708   3.743   0.823  0.1157 -0.6591  0.7542
 3016TIP3    H230540   0.604   3.764   0.715  0.6841 -0.2110  0.2873
 3017TIP3   OH230541   3.747   6.576   1.398  0.5044 -0.4945 -0.0545
 3017TIP3    H130542   3.780   6.516   1.465  0.6000 -0.9801 -0.5276
 3017TIP3    H230543   3.671   6.531   1.361 -0.6384  0.5532  0.9339
 3018TIP3   OH230544   0.091   3.748   0.154 -0.0658  0.4075  0.7774
 3018TIP3    H130545   0.047   3.810   0.212 -0.3554 -1.8831  3.1780
 3018TIP3    H230546   0.019   3.698   0.114  0.2214  0.2271  0.4784
 3019TIP3   OH230547   6.093   5.309   0.116  0.4244 -0.5033 -0.4132
 3019TIP3    H130548   6.172   5.278   0.162  0.6989  0.0954 -0.4765
 3019TIP3    H230549   6.055   5.229   0.080  0.3931 -0.9496  0.5572
 3020TIP3   OH230550   6.575   3.622  15.112  0.4913  0.4657  0.1148
 3020TIP3    H130551   6.609   3.710  15.129 -1.3342  1.2412  0.0997
 3020TIP3    H230552   6.551   3.589  15.198 -1.4057  1.1746 -0.0765
 3021TIP3   OH230553   0.132   0.542   1.091 -0.1781  0.5147 -0.1893
 3021TIP3    H130554   0.038   0.554   1.077 -0.5162  1.4046  2.2981
 3021TIP3    H230555   0.150   0.454   1.059 -1.7634  0.4989 -1.1327
 3022TIP3   OH230556   2.454   0.526  15.309  0.3553  0.5846  0.2214
 3022TIP3    H130557   2.518   0.531  15.380  0.5099  1.8412  0.0130
 3022TIP3    H230558   2.375   0.490  15.351  0.8393  0.1030  0.7362
 3023TIP3   OH230559   0.357   5.122  10.705  0.5962 -0.0079  0.4009
 3023TIP3    H130560   0.373   5.216  10.714 -2.1950  0.6610 -0.5145
 3023TIP3    H230561   0.323   5.095  10.791  0.0167  0.1834  0.2397
 3024TIP3   OH230562   4.436   0.086   1.610 -0.2247  0.1538 -0.0257
 3024TIP3    H130563   4.514   0.139   1.627  0.4721 -1.1476  1.0023
 3024TIP3    H230564   4.408   0.113   1.523  1.8560  0.1052 -0.7708
 3025TIP3   OH230565   6.253   1.283  14.124 -0.4221  0.2756 -0.4885
 3025TIP3    H130566   6.325   1.330  14.167 -0.5533 -1.3328  1.6799
 3025TIP3    H230567   6.296   1.228  14.059 -0.2552  3.0812 -3.0169
 3026TIP3   OH230568   5.694   4.909   4.815  0.0184  0.6146 -0.0080
 3026TIP3    H130569   5.647   4.888   4.896  1.7875  2.4803  1.6066
 3026TIP3    H230570   5.766   4.847   4.813 -0.5969 -0.0971 -0.7398
 3027TIP3   OH230571   5.705   6.347  12.056  0.2523 -0.2884  0.1573
 3027TIP3    H130572   5.776   6.369  12.116  0.2163  0.9748 -0.2337
 3027TIP3    H230573   5.733   6.264  12.016  1.6775  0.3433 -0.2235
 3028TIP3   OH230574   1.977   1.089  17.147 -0.3670  0.4212 -0.0878
 3028TIP3    H130575   1.938   1.008  17.180 -0.0892  0.3288  0.0181
 3028TIP3    H230576   2.030   1.061  17.072 -1.9729  0.7806 -1.4378
 3029TIP3   OH230577   2.120   5.816   1.315 -0.0485  0.0379  0.1885
 3029TIP3    H130578   2.146   5.902   1.348  1.5372 -0.2826 -0.1131
 3029TIP3    H230579   2.182   5.756   1.356 -0.1807 -0.7598 -0.7535
 3030TIP3   OH230580   6.081   2.298   2.684  0.0254 -0.0145 -0.3099
 3030TIP3    H130581   6.008   2.348   2.721 -1.0229 -1.7634  0.0775
 3030TIP3    H230582   6.154   2.360   2.683 -1.1012  1.3914  0.5361
 3031TIP3   OH230583   5.145   4.594   4.864 -0.3232 -0.0223 -0.4644
 3031TIP3    H130584   5.060   4.607   4.821  0.0248 -1.0287 -1.5081
 3031TIP3    H230585   5.135   4.512   4.912  0.1766 -0.3548 -0.9185
 3032TIP3   OH230586   4.116   3.108  13.694  0.0848  0.5236  0.4260
 3032TIP3    H130587   4.028   3.077  13.717  1.0888 -0.7083  2.9448
 3032TIP3    H230588   4.118   3.198  13.727 -0.4776  0.8587 -0.4115
 3033TIP3   OH230589   3.164   2.284  14.521  0.0472 -0.5994  0.0384
 3033TIP3    H130590   3.100   2.214  14.510 -1.7537  0.7473  1.3903
 3033TIP3    H230591   3.149   2.317  14.610  0.6592  1.6513 -0.6260
 3034TIP3   OH230592   6.017   2.502   1.713 -0.6183 -0.8588 -0.3782
 3034TIP3    H130593   6.078   2.433   1.738  1.3899  1.1344  0.5809
 3034TIP3    H230594   6.072   2.569   1.671 -2.1811  0.8945  0.2434
 3035TIP3   OH230595   0.633   4.295  16.512  0.0563 -0.5340  0.0582
 3035TIP3    H130596   0.707   4.255  16.556  2.3873  1.8621 -1.3476
 3035TIP3    H230597   0.654   4.389  16.510 -2.5067  0.1161 -1.3752
 3036TIP3   OH230598   4.793   0.469   1.045  0.2503 -0.1639 -0.0659
 3036TIP3    H130599   4.735   0.410   0.996  0.7784 -0.2497 -0.5860
 3036TIP3    H230600   4.785   0.439   1.136 -0.5058 -0.1854 -0.1283
 3037TIP3   OH230601   6.066   4.263   1.344  0.3344 -0.2035  0.2263
 3037TIP3    H130602   6.136   4.246   1.281  0.6856  1.3117  0.1654
 3037TIP3    H230603   6.079   4.197   1.412  0.0368 -1.7872 -1.1713
 3038TIP3   OH230604   6.242   4.495   2.796  0.3934  0.2473  0.1583
 3038TIP3    H130605   6.242   4.496   2.700  0.1960 -0.0637  0.1530
 3038TIP3    H230606   6.307   4.561   2.821  0.7420  0.0394 -0.1920
 3039TIP3   OH230607   4.910   5.048   0.507 -0.3628  0.2596 -0.2928
 3039TIP3    H130608   4.953   5.092   0.580 -2.2056  2.1185 -0.2362
 3039TIP3    H230609   4.975   5.048   0.437  0.5751  0.7225  0.5615
 3040TIP3   OH230610   4.646   4.053   0.166  0.0303  0.3098  0.5190
 3040TIP3    H130611   4.622   4.024   0.254 -1.2387  0.3850  0.2108
 3040TIP3    H230612   4.742   4.052   0.166  0.0383 -0.8291  1.5177
 3041TIP3   OH230613   4.486   4.764   3.373  0.2364  0.2812  0.8819
 3041TIP3    H130614   4.394   4.736   3.376 -0.4474  2.1351 -0.4479
 3041TIP3    H230615   4.498   4.812   3.455  0.4264 -1.0263  1.6406
 3042TIP3   OH230616   2.765   0.055   6.505 -0.1450 -0.2551 -0.1579
 3042TIP3    H130617   2.770   0.150   6.518 -0.4903 -0.1809 -0.5176
 3042TIP3    H230618   2.739   0.046   6.413 -0.7959 -0.6830  0.0624
 3043TIP3   OH230619   2.470   1.015   4.283 -0.5324  0.4123  0.0271
 3043TIP3    H130620   2.496   0.975   4.366  0.4918  0.1950 -0.3714
 3043TIP3    H230621   2.538   1.080   4.266 -0.4269  0.0835 -0.8840
 3044TIP3   OH230622   1.193   6.626  11.725 -0.1742  0.4659 -0.2557
 3044TIP3    H130623   1.117   6.595  11.676  0.8876  1.5055 -2.7428
 3044TIP3    H230624   1.162   6.706  11.768 -1.3563 -0.9066  1.5766
 3045TIP3   OH230625   4.577   6.381  16.699  0.0979 -0.4948 -0.1351
 3045TIP3    H130626   4.629   6.301  16.686  2.3808  0.9937 -0.7581
 3045TIP3    H230627   4.641   6.452  16.695 -1.8263  1.3835  0.5963
 3046TIP3   OH230628   5.926   1.478   6.049  0.3015  0.0237  0.6000
 3046TIP3    H130629   5.986   1.543   6.085  0.4119  1.2704 -1.6603
 3046TIP3    H230630   5.840   1.517   6.057  0.2322 -0.0668  0.3186
 3047TIP3   OH230631   0.274   4.492   0.028  0.1939  0.3506  0.2548
 3047TIP3    H130632   0.363   4.458   0.036 -0.0049 -0.1384  0.4514
 3047TIP3    H230633   0.219   4.413   0.021 -0.1859  0.6560 -0.2218
 3048TIP3   OH230634   0.228   2.076   3.321 -0.2124  0.1972 -0.5284
 3048TIP3    H130635   0.142   2.060   3.282 -0.4687 -0.1869  0.1726
 3048TIP3    H230636   0.270   2.138   3.262 -1.1867  0.8292 -0.5749
 3049TIP3   OH230637   6.471   6.570  15.549 -0.1283  0.2205  0.0202
 3049TIP3    H130638   6.559   6.548  15.579 -0.0415  0.8832  0.2646
 3049TIP3    H230639   6.485   6.634  15.479 -0.4120  0.3045  0.0404
 3050TIP3   OH230640   4.143   1.838   4.625  0.9517  0.3477 -0.4117
 3050TIP3    H130641   4.132   1.815   4.533  0.7136 -0.4921 -0.1864
 3050TIP3    H230642   4.238   1.844   4.637  0.9658  1.2652 -0.8886
 3051TIP3   OH230643   3.707   5.746   4.061  0.3185 -0.2194 -0.2439
 3051TIP3    H130644   3.714   5.651   4.054 -1.7061 -0.4193  0.0597
 3051TIP3    H230645   3.788   5.778   4.021  0.4108 -2.0190 -1.6670
 3052TIP3   OH230646   0.671   4.333  12.341  0.1439 -0.2351 -0.1005
 3052TIP3    H130647   0.734   4.301  12.405  0.8376  0.9393 -0.1752
 3052TIP3    H230648   0.717   4.404  12.296 -2.2428  2.8515  1.9403
 3053TIP3   OH230649   1.850   3.210   2.067 -0.2838  0.7018 -0.3390
 3053TIP3    H130650   1.930   3.163   2.088  0.3873  1.8237 -0.3070
 3053TIP3    H230651   1.783   3.142   2.058  0.2449 -0.1237  1.5263
 3054TIP3   OH230652   1.410   1.136   4.616 -0.1613 -0.2787  0.2822
 3054TIP3    H130653   1.486   1.192   4.633 -1.0813  0.8298  0.9072
 3054TIP3    H230654   1.343   1.167   4.677 -0.6039 -2.3295  0.9232
 3055TIP3   OH230655   0.136   4.752   6.160 -0.2020  0.0905  0.1823
 3055TIP3    H130656   0.109   4.661   6.169  1.5534 -0.2866  2.9297
 3055TIP3    H230657   0.230   4.751   6.177 -0.1772  2.4444  0.5743
 3056TIP3   OH230658   0.323   3.440  14.376  0.4625  0.1468 -0.4514
 3056TIP3    H130659   0.372   3.464  14.455  2.7891  0.9102 -2.0261
 3056TIP3    H230660   0.255   3.507  14.369  0.6579  0.4688  0.5143
 3057TIP3   OH230661   2.552   0.688  12.273 -0.2098 -0.2701  0.3175
 3057TIP3    H130662   2.637   0.728  12.292  0.0392 -0.4836 -0.3269
 3057TIP3    H230663   2.494   0.721  12.342 -0.3190  2.1342 -0.8054
 3058TIP3   OH230664   6.175   3.919  12.224  0.3348 -0.3300 -0.1996
 3058TIP3    H130665   6.107   3.858  12.195 -0.1062 -0.0461  0.2106
 3058TIP3    H230666   6.159   3.999  12.173  0.0307 -0.0855  0.2780
 3059TIP3   OH230667   1.417   5.276  12.319  0.0113  0.0101  0.0700
 3059TIP3    H130668   1.405   5.319  12.234 -0.0607 -0.3255 -0.0914
 3059TIP3    H230669   1.469   5.198  12.299 -1.1273 -0.7896  0.1125
 3060TIP3   OH230670   3.757   2.728   4.308  0.0642 -0.6130 -0.2040
 3060TIP3    H130671   3.687   2.748   4.245  0.6857 -0.0267 -0.7215
 3060TIP3    H230672   3.792   2.814   4.333  0.4751 -0.8940  0.2031
 3061TIP3   OH230673   4.856   5.956  14.070 -0.5097  0.5132  0.5689
 3061TIP3    H130674   4.870   5.876  14.018 -0.7778  0.4540  0.5892
 3061TIP3    H230675   4.819   6.019  14.009  0.2397  0.8159  0.4079
 3062TIP3   OH230676   6.301   0.484  16.887  0.2458 -0.1021  0.5657
 3062TIP3    H130677   6.322   0.433  16.808 -0.0008  1.4169 -0.5262
 3062TIP3    H230678   6.316   0.575  16.861 -3.4966  0.7934  0.9965
 3063TIP3   OH230679   4.542   0.885   4.209  0.1639  0.2790 -0.4215
 3063TIP3    H130680   4.535   0.862   4.302  1.5456 -0.4454 -0.4800
 3063TIP3    H230681   4.501   0.972   4.203 -0.6905 -0.0164  0.7014
 3064TIP3   OH230682   2.021   3.633  11.766  0.0996  0.2855 -0.1217
 3064TIP3    H130683   1.959   3.663  11.833  1.9661  0.3750  1.6762
 3064TIP3    H230684   2.055   3.713  11.727 -0.2716  0.2599 -0.5054
 3065TIP3   OH230685   1.365   0.269   6.481 -1.0064  0.0274  0.1830
 3065TIP3    H130686   1.298   0.205   6.456 -0.8036 -0.3689  0.6411
 3065TIP3    H230687   1.443   0.241   6.435 -1.7345  1.9923 -2.4998
 3066TIP3   OH230688   5.221   6.437  15.571 -0.2170  0.0092 -0.2185
 3066TIP3    H130689   5.214   6.454  15.477 -0.3773  0.0727 -0.1955
 3066TIP3    H230690   5.134   6.459  15.606 -0.4690 -0.9801 -0.2077
 3067TIP3   OH230691   5.457   6.006  11.744 -0.0001 -0.5082 -0.2203
 3067TIP3    H130692   5.502   6.070  11.689 -1.2653  1.6346  1.0947
 3067TIP3    H230693   5.375   5.986  11.697  0.3753 -1.1839 -0.6095
 3068TIP3   OH230694   1.052   1.636  14.954  0.5224 -0.1275  0.6639
 3068TIP3    H130695   1.078   1.707  15.013  0.6151  2.1898 -1.9567
 3068TIP3    H230696   0.957   1.640  14.953  0.5100  2.7548 -2.3790
 3069TIP3   OH230697   2.969   1.657  10.380 -0.5088 -0.2990  0.0440
 3069TIP3    H130698   2.986   1.673  10.288  0.8196  0.8371  0.4486
 3069TIP3    H230699   2.903   1.722  10.404 -0.6005 -0.3666 -0.0243
 3070TIP3   OH230700   4.096   4.286  11.154  0.2580 -0.4304 -0.0574
 3070TIP3    H130701   4.035   4.249  11.217  0.1393  0.4404  0.3554
 3070TIP3    H230702   4.082   4.236  11.074 -1.8988  0.5662 -0.3614
 3071TIP3   OH230703   4.757   5.056   3.641 -0.2483  0.6503 -0.1011
 3071TIP3    H130704   4.836   5.092   3.600  0.6186 -0.4463  0.5619
 3071TIP3    H230705   4.766   4.961   3.630 -0.4827  0.3875  1.7437
 3072TIP3   OH230706   3.182   4.297  15.528  0.2839 -0.1703  0.0863
 3072TIP3    H130707   3.093   4.264  15.510  0.8860 -1.4791 -0.6531
 3072TIP3    H230708   3.238   4.249  15.467  1.3960  1.3681 -0.1636
 3073TIP3   OH230709   6.258   5.905   6.834  0.0129  0.0481 -0.3142
 3073TIP3    H130710   6.321   5.959   6.786  1.3778 -1.2362 -0.0434
 3073TIP3    H230711   6.252   5.824   6.783  1.4449 -1.3259  1.5366
 3074TIP3   OH230712   3.771   0.062   1.923  0.1393  0.3435 -0.0892
 3074TIP3    H130713   3.834   0.106   1.864  0.6184 -1.2625 -0.8236
 3074TIP3    H230714   3.746   0.130   1.986 -0.2683  2.0845 -2.0353
 3075TIP3   OH230715   5.541   1.916   6.188  0.3254  0.3117  0.1887
 3075TIP3    H130716   5.619   1.971   6.180  1.1821 -0.9846 -0.6722
 3075TIP3    H230717   5.524   1.911   6.283  0.1078  2.1615  0.2873
 3076TIP3   OH230718   2.647   2.895  12.358  0.4780 -0.2866 -0.4737
 3076TIP3    H130719   2.734   2.901  12.319  1.1768  1.6824  1.1702
 3076TIP3    H230720   2.588   2.932  12.291  1.2436  0.4051 -0.7850
 3077TIP3   OH230721   1.080   2.902   0.820  0.0734  0.0272 -0.1747
 3077TIP3    H130722   1.169   2.875   0.796  0.5730  1.0335  0.4266
 3077TIP3    H230723   1.024   2.865   0.753  1.0350 -0.0230 -0.9717
 3078TIP3   OH230724   0.498   2.172   4.358  0.2618 -0.1930 -0.1756
 3078TIP3    H130725   0.526   2.225   4.283  0.2919 -1.2295 -0.9395
 3078TIP3    H230726   0.516   2.226   4.435  1.0480  0.5629 -0.8684
 3079TIP3   OH230727   0.767   4.690   6.073 -0.6597  0.6010  0.0569
 3079TIP3    H130728   0.737   4.779   6.091  0.5692  1.5346 -2.0838
 3079TIP3    H230729   0.727   4.668   5.989  0.0126 -0.3762 -0.0204
 3080TIP3   OH230730   6.823   6.630  15.024 -0.6344  0.0991  0.2091
 3080TIP3    H130731   6.882   6.580  14.968 -1.5069 -0.4059 -0.2812
 3080TIP3    H230732   6.826   6.719  14.989 -0.4633 -0.0098 -0.0569
 3081TIP3   OH230733   0.617   2.117   5.741  0.3156  0.6757  0.0403
 3081TIP3    H130734   0.543   2.173   5.718  0.2481  0.0311 -1.4248
 3081TIP3    H230735   0.578   2.035   5.771  0.4276  0.6579  0.1399
 3082TIP3   OH230736   5.936   6.373  11.760 -0.5142 -0.5569 -0.1659
 3082TIP3    H130737   5.963   6.284  11.737 -1.3513 -0.1587 -3.0330
 3082TIP3    H230738   6.019   6.422  11.768 -0.1231 -1.1157 -0.7389
 3083TIP3   OH230739   6.441   0.716   5.635 -0.1291  0.4488 -0.4092
 3083TIP3    H130740   6.470   0.625   5.627  0.5014  0.4744  1.1650
 3083TIP3    H230741   6.350   0.709   5.664  0.0621  0.2954  0.1782
 3084TIP3   OH230742   5.643   1.924  17.020 -0.3479 -0.3989 -0.6649
 3084TIP3    H130743   5.671   1.833  17.018  0.1374 -0.2733  0.1326
 3084TIP3    H230744   5.692   1.963  17.092  0.8907  0.9493 -2.1416
 3085TIP3   OH230745   6.162   5.040  15.979  0.2671 -0.2781 -0.0791
 3085TIP3    H130746   6.234   5.074  15.925  1.2810 -3.0797 -0.6559
 3085TIP3    H230747   6.182   5.069  16.068  1.2912  0.2383 -0.4619
 3086TIP3   OH230748   3.460   1.941   4.567 -0.0076  0.5300  0.4166
 3086TIP3    H130749   3.452   2.030   4.532 -1.4582 -0.0513 -0.8077
 3086TIP3    H230750   3.370   1.907   4.568  0.1780 -0.0908  3.1948
 3087TIP3   OH230751   2.359   0.197   3.770  0.1244  0.4909  0.2670
 3087TIP3    H130752   2.366   0.268   3.707  1.7971 -0.8865 -1.2370
 3087TIP3    H230753   2.279   0.151   3.746  1.1809 -0.5303 -1.5122
 3088TIP3   OH230754   0.918   1.393   0.110 -0.0864  0.0870 -0.1738
 3088TIP3    H130755   0.962   1.335   0.173  1.6896 -0.1306 -1.5284
 3088TIP3    H230756   0.868   1.454   0.164  0.8372 -0.5017  1.4188
 3089TIP3   OH230757   1.585   3.883  16.634 -0.0726  0.0174  0.1993
 3089TIP3    H130758   1.617   3.964  16.674  0.4470 -0.2001  0.2372
 3089TIP3    H230759   1.629   3.879  16.550 -0.5968  0.0966 -0.0829
 3090TIP3   OH230760   0.840   1.287  12.975  0.0276 -0.1186  0.1674
 3090TIP3    H130761   0.800   1.302  12.889  0.8805 -2.6885 -0.7774
 3090TIP3    H230762   0.929   1.324  12.966  0.2557 -0.7460 -0.2188
 3091TIP3   OH230763   5.264   6.362   4.629 -0.5526 -0.1357 -0.1150
 3091TIP3    H130764   5.314   6.369   4.710 -0.0196  0.8196 -0.5036
 3091TIP3    H230765   5.212   6.443   4.626 -1.3377 -0.6352 -0.2319
 3092TIP3   OH230766   5.469   2.300   4.681  0.2822 -0.2083  0.5279
 3092TIP3    H130767   5.423   2.290   4.765 -0.9648  2.7429  0.3295
 3092TIP3    H230768   5.413   2.359   4.631  2.9026  1.2212 -0.8747
 3093TIP3   OH230769   2.379   3.380  16.912 -0.7625 -0.0522 -0.1192
 3093TIP3    H130770   2.430   3.308  16.951 -2.7594 -1.0644  0.7712
 3093TIP3    H230771   2.414   3.389  16.824 -0.8283 -2.5610 -0.4736
 3094TIP3   OH230772   1.145   0.845   1.871  0.4948 -0.2018  0.0969
 3094TIP3    H130773   1.096   0.880   1.797  0.9463 -0.8443 -0.5164
 3094TIP3    H230774   1.222   0.901   1.877 -1.2233  2.1845  2.3910
 3095TIP3   OH230775   6.051   0.505   3.065  0.0986  0.1888 -0.3886
 3095TIP3    H130776   6.086   0.417   3.080  2.0105  0.6810 -1.6038
 3095TIP3    H230777   6.033   0.508   2.971  0.9372  1.3798 -0.5260
 3096TIP3   OH230778   3.175   5.874  16.721 -0.2161  0.5183  0.4485
 3096TIP3    H130779   3.093   5.857  16.674  0.0373 -0.3148  0.3007
 3096TIP3    H230780   3.201   5.962  16.691 -0.7177  0.5237  0.0067
 3097TIP3   OH230781   0.450   0.462  13.708  0.0158 -0.2071  0.1669
 3097TIP3    H130782   0.439   0.515  13.787  0.7671 -1.2053  0.9601
 3097TIP3    H230783   0.536   0.488  13.674  0.2469 -0.6917  0.3818
 3098TIP3   OH230784   1.893   1.656  15.533 -0.2484  0.0302 -0.0710
 3098TIP3    H130785   1.944   1.729  15.497 -0.9577  0.8016  0.4324
 3098TIP3    H230786   1.839   1.697  15.601 -2.2713 -0.5741 -1.2367
 3099TIP3   OH230787   0.877   6.123   1.126  0.2784  0.0126  0.3334
 3099TIP3    H130788   0.787   6.155   1.116  0.2727 -0.1755 -0.2500
 3099TIP3    H230789   0.871   6.030   1.107  0.5345 -0.0796  0.6926
 3100TIP3   OH230790   4.923   0.612   0.125 -0.7098  0.1323 -0.8627
 3100TIP3    H130791   5.018   0.618   0.122 -0.5449  0.4019  1.8413
 3100TIP3    H230792   4.904   0.589   0.216 -3.2581  0.5741 -1.2128
 3101TIP3   OH230793   6.200   6.486  12.865 -0.2524  0.0267  0.5078
 3101TIP3    H130794   6.157   6.515  12.785 -0.7006 -1.9692 -0.0160
 3101TIP3    H230795   6.134   6.498  12.934 -1.4526 -2.2730 -0.1599
 3102TIP3   OH230796   1.866   4.045   5.920  0.0559 -0.1422  0.1232
 3102TIP3    H130797   1.838   4.103   5.849 -1.1199 -0.3496  0.3845
 3102TIP3    H230798   1.804   3.972   5.918  0.8239 -0.8237  0.5203
 3103TIP3   OH230799   6.178   4.873   4.839  0.5578  0.4913  0.5619
 3103TIP3    H130800   6.239   4.811   4.881 -0.2090 -0.3276  0.4992
 3103TIP3    H230801   6.202   4.869   4.746  0.3330  0.0602  0.5166
 3104TIP3   OH230802   3.582   3.049   3.137  0.1747 -0.0163 -0.3039
 3104TIP3    H130803   3.599   2.970   3.086 -1.0204 -0.0839 -0.6252
 3104TIP3    H230804   3.516   3.097   3.087 -0.2376  0.4449  0.6472
 3105TIP3   OH230805   4.669   2.192   2.594 -0.0742 -0.6882  0.6358
 3105TIP3    H130806   4.690   2.185   2.501  0.1378  3.1227  0.2206
 3105TIP3    H230807   4.575   2.207   2.598  0.0156 -0.1496  0.9440
 3106TIP3   OH230808   3.787   2.588  11.644 -0.6794 -0.2027  0.3636
 3106TIP3    H130809   3.852   2.518  11.643  1.3097  1.5346  0.5582
 3106TIP3    H230810   3.726   2.563  11.714 -0.1532 -1.8134  0.2908
 3107TIP3   OH230811   0.057   5.334  12.621 -0.1433  0.4634 -0.3252
 3107TIP3    H130812   0.137   5.373  12.584  0.0152 -0.0431 -0.5199
 3107TIP3    H230813   0.072   5.333  12.715  0.1865  0.1309 -0.3812
 3108TIP3   OH230814   5.138   1.319  11.603  0.5430 -0.0248 -0.3861
 3108TIP3    H130815   5.073   1.328  11.533  0.6567  1.7151 -0.3220
 3108TIP3    H230816   5.221   1.307  11.558  0.5800  0.8260 -0.5560
 3109TIP3   OH230817   4.430   0.492   5.360  0.1624 -0.7050  0.4756
 3109TIP3    H130818   4.369   0.502   5.432  0.4559  0.5323  0.5695
 3109TIP3    H230819   4.517   0.494   5.401  0.3687  0.9969  0.0252
 3110TIP3   OH230820   5.741   3.232  12.691  0.0164  0.5189  0.2071
 3110TIP3    H130821   5.770   3.187  12.771 -0.5692  0.5330  0.4374
 3110TIP3    H230822   5.802   3.204  12.624  0.9565  1.0600  0.8125
 3111TIP3   OH230823   5.396   0.884  10.780  0.3293 -0.2667  0.1166
 3111TIP3    H130824   5.451   0.806  10.787  0.6630  0.0867  2.2433
 3111TIP3    H230825   5.457   0.954  10.757  0.5919 -0.1200  1.1772
 3112TIP3   OH230826   0.514   3.466  15.786  0.1554 -0.6957  0.3068
 3112TIP3    H130827   0.599   3.428  15.763  0.0594 -0.0706 -1.1690
 3112TIP3    H230828   0.465   3.466  15.704  0.6809  3.9748 -0.2622
 3113TIP3   OH230829   1.440   1.906   2.526 -0.1455 -0.2359 -0.4384
 3113TIP3    H130830   1.521   1.861   2.550 -0.2173  0.0954  0.4671
 3113TIP3    H230831   1.463   1.959   2.449  0.1978 -1.0143 -0.8794
 3114TIP3   OH230832   4.548   2.456  16.778 -0.0581  0.4592  0.1572
 3114TIP3    H130833   4.585   2.543  16.789 -0.2062  0.6988 -1.1311
 3114TIP3    H230834   4.506   2.458  16.692  0.0366 -0.9169  0.0560
 3115TIP3   OH230835   2.242   5.676  12.290 -0.4725  0.1238 -0.3095
 3115TIP3    H130836   2.218   5.604  12.233 -0.3741 -0.5516  0.4833
 3115TIP3    H230837   2.167   5.687  12.348  0.8983 -1.8859  2.0729
 3116TIP3   OH230838   0.533   2.453  16.978 -0.1557 -0.5383 -0.8790
 3116TIP3    H130839   0.575   2.537  16.997 -1.0454 -0.4249  0.8797
 3116TIP3    H230840   0.465   2.445  17.045  1.5461 -3.8297  0.7499
 3117TIP3   OH230841   2.468   0.337   3.547 -0.4123  1.0562  0.3058
 3117TIP3    H130842   2.411   0.410   3.572 -2.8015 -0.5728  0.0063
 3117TIP3    H230843   2.428   0.302   3.468  1.2386 -0.0114 -0.1027
 3118TIP3   OH230844   3.390   2.027   0.354 -0.2680  0.1973 -0.1354
 3118TIP3    H130845   3.428   2.044   0.441 -0.9575 -0.3832  0.2883
 3118TIP3    H230846   3.442   2.081   0.295  0.1550  0.6757  0.6508
 3119TIP3   OH230847   3.519   5.238   5.769 -0.1536  0.6964  0.8299
 3119TIP3    H130848   3.448   5.185   5.808  0.7584 -0.3838  1.0757
 3119TIP3    H230849   3.564   5.177   5.710 -1.0707  2.1003 -1.4516
 3120TIP3   OH230850   6.139   1.744   0.723  0.4321  0.2585  0.5965
 3120TIP3    H130851   6.190   1.818   0.689  0.9774 -1.3629 -2.4304
 3120TIP3    H230852   6.183   1.720   0.805 -0.0231  3.4281  1.9355
 3121TIP3   OH230853   4.275   3.626   6.656  0.0682 -0.1978  0.4593
 3121TIP3    H130854   4.360   3.648   6.693  0.6388  0.3715 -1.1394
 3121TIP3    H230855   4.294   3.570   6.581 -1.1018 -1.8011  1.2592
 3122TIP3   OH230856   5.983   2.153   4.053  0.4085  0.2520 -0.0886
 3122TIP3    H130857   5.961   2.235   4.008 -1.0705  0.0692  0.2528
 3122TIP3    H230858   6.027   2.100   3.986  0.3011  0.8714 -0.6641
 3123TIP3   OH230859   1.435   1.417  13.988  0.1761 -0.5029 -0.3792
 3123TIP3    H130860   1.413   1.395  13.897 -0.3591  0.3880 -0.4862
 3123TIP3    H230861   1.479   1.502  13.982  0.7249 -0.7443  0.1429
 3124TIP3   OH230862   3.918   5.178  11.720  0.1204 -0.1201 -0.7383
 3124TIP3    H130863   3.977   5.173  11.645  1.3438  0.0682  0.1890
 3124TIP3    H230864   3.830   5.170  11.682  0.5055  2.7598 -2.5165
 3125TIP3   OH230865   3.192   1.664  10.768  0.7630  0.6165  0.1276
 3125TIP3    H130866   3.147   1.737  10.809 -3.4582 -0.6081 -1.6939
 3125TIP3    H230867   3.232   1.701  10.689  0.9109  1.3766  0.5513
 3126TIP3   OH230868   5.633   3.190  15.697  0.1347  0.8125 -0.7286
 3126TIP3    H130869   5.589   3.106  15.689  0.8496  0.4800 -1.3759
 3126TIP3    H230870   5.720   3.168  15.732 -0.0757  1.4125  0.2120
 3127TIP3   OH230871   0.091   1.908  17.130  0.1307  0.3236  0.6186
 3127TIP3    H130872   0.007   1.902  17.084 -0.3786  0.6568  1.4902
 3127TIP3    H230873   0.154   1.930  17.061 -0.4555 -0.1165 -0.0755
 3128TIP3   OH230874   1.864   2.691  13.947  0.2483 -0.5254 -0.0127
 3128TIP3    H130875   1.912   2.618  13.987 -0.8453 -0.8159  0.8323
 3128TIP3    H230876   1.843   2.749  14.020 -0.1788 -0.1064 -0.4585
 3129TIP3   OH230877   1.367   1.857   4.292  0.1726  0.1287  0.1955
 3129TIP3    H130878   1.435   1.910   4.332  1.3150  0.3215 -1.8705
 3129TIP3    H230879   1.360   1.780   4.348  1.6522  0.3974  0.7816
 3130TIP3   OH230880   3.145   0.829  11.067 -0.0605  0.1010 -0.1433
 3130TIP3    H130881   3.168   0.912  11.109  2.0790 -0.6433  0.3193
 3130TIP3    H230882   3.050   0.829  11.063 -0.1109  2.4858 -0.0054
 3131TIP3   OH230883   2.214   3.014   1.246  0.1720 -0.8813  0.4116
 3131TIP3    H130884   2.280   3.076   1.275 -1.0590  0.5096  0.3374
 3131TIP3    H230885   2.263   2.950   1.194  1.3202  0.7632 -0.6303
 3132TIP3   OH230886   2.363   5.432   4.035  0.0385 -0.0280 -0.1694
 3132TIP3    H130887   2.340   5.432   3.942  0.6608 -0.1600 -0.3294
 3132TIP3    H230888   2.449   5.474   4.039 -0.0573  0.1325  0.3688
 3133TIP3   OH230889   3.429   2.426  13.189  0.3428  0.0045 -0.2339
 3133TIP3    H130890   3.451   2.389  13.275 -2.1449  2.3152  1.5637
 3133TIP3    H230891   3.495   2.493  13.175  1.0867 -0.7482 -0.4513
 3134TIP3   OH230892   4.784   5.652   2.453  0.3832 -0.3973 -0.1087
 3134TIP3    H130893   4.803   5.735   2.498  0.2707 -0.9936  1.0617
 3134TIP3    H230894   4.690   5.640   2.464  0.5915 -1.2821  0.7880
 3135TIP3   OH230895   3.380   4.033  10.421 -0.3524 -0.8514  0.5187
 3135TIP3    H130896   3.385   4.077  10.506 -1.5212 -0.8434  0.5989
 3135TIP3    H230897   3.459   3.979  10.418 -0.1755 -0.6773  1.5156
 3136TIP3   OH230898   4.863   4.944   1.569  0.6421 -0.0239 -0.0452
 3136TIP3    H130899   4.844   4.908   1.656  0.2252 -1.3215 -0.6435
 3136TIP3    H230900   4.850   5.038   1.579  0.1581 -0.1993  1.1924
 3137TIP3   OH230901   4.643   5.759  15.768 -0.1400 -0.0436 -0.1131
 3137TIP3    H130902   4.581   5.819  15.811 -2.4496 -0.9487 -1.9179
 3137TIP3    H230903   4.713   5.815  15.737 -1.3224  1.4827 -0.1594
 3138TIP3   OH230904   3.439   2.436   0.540  0.2984 -0.4945 -0.3130
 3138TIP3    H130905   3.430   2.531   0.549  0.2939 -0.1697 -3.1050
 3138TIP3    H230906   3.533   2.420   0.553  0.2998 -0.1383  0.1752
 3139TIP3   OH230907   4.284   4.785   0.688 -0.2326 -0.0580  0.2535
 3139TIP3    H130908   4.320   4.765   0.601 -1.8094  0.9966 -0.7048
 3139TIP3    H230909   4.358   4.776   0.748  0.7235 -1.5894 -1.0741
 3140TIP3   OH230910   3.043   5.136   2.564  0.5770  0.0321  0.3364
 3140TIP3    H130911   3.123   5.118   2.612  0.4189 -1.0964  0.2113
 3140TIP3    H230912   3.008   5.215   2.603  1.4541  0.2109  0.7727
 3141TIP3   OH230913   2.382   1.309  14.659 -0.0103  0.0319 -0.1785
 3141TIP3    H130914   2.303   1.329  14.709 -0.1509 -2.3965  0.6885
 3141TIP3    H230915   2.350   1.281  14.574 -0.2529 -2.2442  0.5986
 3142TIP3   OH230916   0.315   6.763   0.833  0.1325 -0.2764 -0.4412
 3142TIP3    H130917   0.398   6.715   0.832  1.7724  2.3486 -0.0920
 3142TIP3    H230918   0.341   6.854   0.845 -2.9074  0.5298  0.6816
 3143TIP3   OH230919   0.485   5.575   2.079 -0.0074 -0.2804 -0.1429
 3143TIP3    H130920   0.392   5.560   2.094 -0.1747  2.0508  1.8320
 3143TIP3    H230921   0.489   5.626   1.998 -0.5296  0.1872  0.1190
 3144TIP3   OH230922   2.875   1.256  15.531 -0.5238  0.1262  0.4302
 3144TIP3    H130923   2.818   1.299  15.468  0.1131 -0.8619 -0.8622
 3144TIP3    H230924   2.929   1.196  15.479  0.2739 -0.4723  1.8636
 3145TIP3   OH230925   3.753   6.415  15.193  0.0424 -0.5111  0.2733
 3145TIP3    H130926   3.833   6.427  15.142  0.1907 -0.9983  0.3860
 3145TIP3    H230927   3.784   6.384  15.278 -0.0508  2.0513  1.3377
 3146TIP3   OH230928   6.480   6.049  11.463  0.3678  0.3465  0.2285
 3146TIP3    H130929   6.562   6.034  11.416 -0.1716 -1.6195 -0.1354
 3146TIP3    H230930   6.497   6.018  11.552 -0.5481 -1.9905 -0.3568
 3147TIP3   OH230931   4.939   4.522   4.339 -0.3949 -0.0872  0.2789
 3147TIP3    H130932   4.980   4.588   4.283  2.3594 -1.9696 -0.1349
 3147TIP3    H230933   4.898   4.461   4.279 -1.4384  0.2967  0.5800
 3148TIP3   OH230934   5.257   5.357  10.615  0.0334 -0.0783  0.0719
 3148TIP3    H130935   5.280   5.316  10.532 -1.4696  1.9637 -1.4512
 3148TIP3    H230936   5.320   5.429  10.624 -1.9380  1.9191 -1.1945
 3149TIP3   OH230937   1.244   1.332   4.063  0.5204 -0.1208 -0.3014
 3149TIP3    H130938   1.265   1.422   4.091  0.7876 -0.5044  0.7987
 3149TIP3    H230939   1.199   1.343   3.980  1.3857  0.9823 -0.6502
 3150TIP3   OH230940   5.620   6.464  16.565 -0.1863  0.1918  0.9333
 3150TIP3    H130941   5.594   6.407  16.493 -0.6077  1.9441 -0.3742
 3150TIP3    H230942   5.548   6.458  16.628 -1.2638  0.8820 -0.1907
 3151TIP3   OH230943   3.136   2.610   4.947  0.8143 -0.0116  0.2601
 3151TIP3    H130944   3.138   2.668   5.022  2.2047  2.1152 -1.2941
 3151TIP3    H230945   3.224   2.573   4.943  0.3756 -1.0956  0.3750
 3152TIP3   OH230946   2.665   0.363   1.037  0.2068 -0.2934 -0.4013
 3152TIP3    H130947   2.578   0.328   1.057  0.3403 -0.4099 -0.0052
 3152TIP3    H230948   2.660   0.455   1.063  0.6792 -0.6730  1.1601
 3153TIP3   OH230949   5.771   1.262   0.379 -0.1098 -0.6030  0.0507
 3153TIP3    H130950   5.864   1.248   0.360  0.0981  2.3138 -1.7155
 3153TIP3    H230951   5.771   1.317   0.458 -0.2162  0.6559 -0.8025
 3154TIP3   OH230952   0.405   5.196  15.058 -0.1642 -0.1171  0.0423
 3154TIP3    H130953   0.449   5.164  14.979  0.6910  1.2376 -0.0597
 3154TIP3    H230954   0.453   5.155  15.130 -0.7634 -1.1301 -0.1190
 3155TIP3   OH230955   4.662   6.149   5.055  0.1222 -0.6382 -0.3455
 3155TIP3    H130956   4.597   6.126   4.990  1.4224 -0.6593 -1.7048
 3155TIP3    H230957   4.671   6.245   5.048  1.2516 -0.7854 -1.2195
 3156TIP3   OH230958   2.667   1.432   5.866  0.1431 -0.5397  1.2287
 3156TIP3    H130959   2.605   1.459   5.798 -0.3194  0.1382  1.8873
 3156TIP3    H230960   2.623   1.456   5.948  0.6353 -1.4459  1.7708
 3157TIP3   OH230961   0.974   4.797   0.956 -0.2603 -0.6323 -0.2710
 3157TIP3    H130962   0.933   4.733   0.899  0.2191 -0.0247 -1.3294
 3157TIP3    H230963   1.000   4.868   0.898 -0.6849  0.4874  0.8441
 3158TIP3   OH230964   2.224   3.872   5.135  0.5966  0.5365  0.0955
 3158TIP3    H130965   2.132   3.893   5.123  0.0042 -1.6766  0.3702
 3158TIP3    H230966   2.264   3.954   5.166 -0.8954  2.0017 -1.6581
 3159TIP3   OH230967   6.695   2.343   5.354  0.9342  0.2887  0.1598
 3159TIP3    H130968   6.768   2.281   5.353  0.4385 -0.3600 -2.3777
 3159TIP3    H230969   6.733   2.425   5.322  0.5103 -0.1723 -1.6112
 3160TIP3   OH230970   3.934   0.448   4.919 -0.4548  0.3063  0.0391
 3160TIP3    H130971   3.937   0.440   5.015 -0.6925 -0.9068 -0.0487
 3160TIP3    H230972   3.865   0.389   4.892 -0.1635  0.3889 -0.9218
 3161TIP3   OH230973   3.451   5.024   5.100  0.0152  0.2391  0.1871
 3161TIP3    H130974   3.463   4.948   5.156  0.4763 -0.0985 -0.3539
 3161TIP3    H230975   3.522   5.019   5.037 -1.2366 -0.1401 -1.2589
 3162TIP3   OH230976   6.654   0.341  13.439  0.3093 -0.1347  0.0253
 3162TIP3    H130977   6.695   0.375  13.360  0.2634 -0.0773  0.0258
 3162TIP3    H230978   6.665   0.411  13.504  0.3915 -0.2028  0.0842
 3163TIP3   OH230979   4.243   0.524   5.925 -0.2225 -0.8034 -0.1824
 3163TIP3    H130980   4.318   0.488   5.972  0.9203 -1.7686 -2.5645
 3163TIP3    H230981   4.178   0.453   5.925 -0.1083 -0.9085 -0.2870
 3164TIP3   OH230982   1.212   3.726  13.075  0.0880  0.5325  0.1410
 3164TIP3    H130983   1.254   3.778  13.006  0.6490  1.2789  1.0286
 3164TIP3    H230984   1.124   3.762  13.082 -1.1461 -1.6348 -2.3717
 3165TIP3   OH230985   0.111   5.189  14.956  0.3649 -0.1403 -0.2296
 3165TIP3    H130986   0.076   5.109  14.917  0.9798 -1.1830  1.2579
 3165TIP3    H230987   0.200   5.166  14.982 -0.0008  0.4792  1.7173
 3166TIP3   OH230988   4.986   2.012   0.351  0.0595 -0.7428  0.3428
 3166TIP3    H130989   5.063   2.061   0.379  0.9122  0.3786 -3.4450
 3166TIP3    H230990   4.920   2.079   0.330 -0.5902 -1.4997 -0.0996
 3167TIP3   OH230991   5.156   4.440   2.856  0.0237 -0.4400 -0.0471
 3167TIP3    H130992   5.191   4.365   2.903 -0.4484 -0.4110  0.3536
 3167TIP3    H230993   5.168   4.418   2.764 -1.3537 -1.6171  0.0205
 3168TIP3   OH230994   3.548   4.708   4.787  0.0457  0.1548 -0.0257
 3168TIP3    H130995   3.613   4.644   4.815  0.6106  0.3666 -0.7944
 3168TIP3    H230996   3.597   4.768   4.731 -0.1990  1.9637  1.5962
 3169TIP3   OH230997   0.141   2.510   0.354 -0.1290 -0.2007  0.1056
 3169TIP3    H130998   0.117   2.434   0.300 -0.1366  0.3249 -0.6524
 3169TIP3    H230999   0.212   2.478   0.409 -1.1267 -1.1766  0.8729
 3170TIP3   OH231000   5.502   6.065  15.543  0.2575 -0.3073 -0.0792
 3170TIP3    H131001   5.445   5.989  15.535 -0.5238  0.2782 -0.2411
 3170TIP3    H231002   5.454   6.124  15.602  1.3974 -0.4360  1.0100
 3171TIP3   OH231003   6.827   5.988  15.695 -0.1866  0.4290  0.3802
 3171TIP3    H131004   6.824   6.081  15.718 -1.0085  1.0846 -2.0305
 3171TIP3    H231005   6.761   5.948  15.751 -1.9677  1.8844 -0.5389
 3172TIP3   OH231006   2.080   2.801  12.886 -0.7514  0.5573  0.1344
 3172TIP3    H131007   2.048   2.759  12.806 -0.5479 -0.1898  0.4401
 3172TIP3    H231008   2.002   2.812  12.940 -0.6611 -0.2727  0.4337
 3173TIP3   OH231009   0.225   1.745   4.634 -0.0541 -0.1217 -0.0626
 3173TIP3    H131010   0.246   1.665   4.682  0.3641  0.1843  0.2837
 3173TIP3    H231011   0.262   1.815   4.688  0.8133  0.2091 -1.0333
 3174TIP3   OH231012   4.929   2.180   1.420 -0.4620 -0.0294 -0.5551
 3174TIP3    H131013   5.004   2.205   1.367  0.9739 -0.3303  1.2301
 3174TIP3    H231014   4.960   2.107   1.473 -1.8511  0.1531  0.5704
 3175TIP3   OH231015   3.348   5.976   1.637  0.1145 -0.0061  0.5136
 3175TIP3    H131016   3.300   5.930   1.567 -0.5695 -0.6657  1.3952
 3175TIP3    H231017   3.281   6.029   1.680  0.2518 -0.6078  1.4910
 3176TIP3   OH231018   0.425   4.662   3.690  0.0039 -0.7161 -0.3174
 3176TIP3    H131019   0.519   4.679   3.687 -0.3925  1.8025 -0.9372
 3176TIP3    H231020   0.404   4.655   3.783  0.5044  0.9636 -0.0503
 3177TIP3   OH231021   0.510   0.718  11.625  0.6563  0.3403 -0.0539
 3177TIP3    H131022   0.561   0.671  11.559 -1.1206 -0.8193 -0.6767
 3177TIP3    H231023   0.473   0.793  11.577 -0.8288 -0.6340 -0.4888
 3178TIP3   OH231024   4.580   4.488   0.476 -0.2964 -0.0348  0.3273
 3178TIP3    H131025   4.568   4.573   0.518  1.4317 -0.8150  2.6320
 3178TIP3    H231026   4.641   4.441   0.534 -0.4505 -2.4989 -1.3465
 3179TIP3   OH231027   4.718   6.071   1.440  0.2180  0.7207  0.2270
 3179TIP3    H131028   4.754   6.062   1.352  0.0908  1.2208  0.1217
 3179TIP3    H231029   4.788   6.115   1.490  0.1429  0.7794  0.2806
 3180TIP3   OH231030   5.840   0.768  13.747  0.2298 -0.1009 -0.1518
 3180TIP3    H131031   5.829   0.829  13.820  0.9356 -1.9256  1.5416
 3180TIP3    H231032   5.898   0.815  13.686 -0.4569  1.4951  0.3638
 3181TIP3   OH231033   4.038   1.652   3.835 -0.3365 -0.6361 -0.2451
 3181TIP3    H131034   4.021   1.676   3.743  1.1854  0.1677 -0.3539
 3181TIP3    H231035   4.063   1.734   3.877 -1.8472 -0.8348  1.1363
 3182TIP3   OH231036   6.627   5.418   5.543 -0.0028 -0.2047 -0.4094
 3182TIP3    H131037   6.668   5.345   5.497  1.4306  0.2351  0.1054
 3182TIP3    H231038   6.690   5.489   5.537 -0.6228  0.4589  0.5754
 3183TIP3   OH231039   2.125   5.408   0.376 -0.0061 -0.0626 -0.2426
 3183TIP3    H131040   2.217   5.399   0.354 -0.2916 -0.9445 -1.1890
 3183TIP3    H231041   2.083   5.330   0.337 -1.4504  1.3387 -1.6481
 3184TIP3   OH231042   0.942   5.790   5.469  0.1072  0.0368 -0.5410
 3184TIP3    H131043   1.033   5.812   5.448  0.6673 -2.7499 -1.4865
 3184TIP3    H231044   0.949   5.725   5.539 -1.0628 -0.9034 -1.2455
 3185TIP3   OH231045   5.764   4.352  12.312 -0.1421 -0.1638  0.1092
 3185TIP3    H131046   5.687   4.313  12.352 -1.4784  0.8586 -1.3442
 3185TIP3    H231047   5.803   4.282  12.261 -0.3243 -0.5790  0.5304
 3186TIP3   OH231048   6.012   1.498   2.941 -0.3936 -0.0771  0.5782
 3186TIP3    H131049   6.022   1.413   2.984 -1.2738 -0.8967 -0.7988
 3186TIP3    H231050   5.976   1.478   2.855  1.6529  1.4802 -0.7328
 3187TIP3   OH231051   5.422   6.604   0.872 -0.4127  0.7190 -0.0378
 3187TIP3    H131052   5.429   6.680   0.814 -0.0488  0.5492 -0.2220
 3187TIP3    H231053   5.424   6.529   0.813  1.4098  0.4777  0.2658
 3188TIP3   OH231054   3.822   3.205  16.328  0.5632  0.0355 -0.1673
 3188TIP3    H131055   3.762   3.265  16.371  0.2400  0.8767 -1.6942
 3188TIP3    H231056   3.908   3.247  16.335  0.4986  0.2066 -0.3699
 3189TIP3   OH231057   3.612   1.300  12.614  0.5088 -0.1833 -0.5221
 3189TIP3    H131058   3.667   1.369  12.650  0.1743 -0.6051  0.8550
 3189TIP3    H231059   3.625   1.225  12.672 -2.1000 -0.0513  0.3853
 3190TIP3   OH231060   4.828   4.516  10.919 -0.3615  0.4101  0.0208
 3190TIP3    H131061   4.791   4.491  10.834 -1.7598  2.6219 -0.1250
 3190TIP3    H231062   4.762   4.575  10.957  1.2334  1.2377  1.6535
 3191TIP3   OH231063   5.075   3.569  12.717 -0.2381 -0.3130  0.3492
 3191TIP3    H131064   5.120   3.648  12.688  2.2620 -1.3608  1.0715
 3191TIP3    H231065   5.068   3.579  12.812 -1.0592 -0.4202  0.3053
 3192TIP3   OH231066   0.472   0.450   5.580  0.4816  0.0078 -0.0838
 3192TIP3    H131067   0.493   0.357   5.572 -0.7267 -0.2912  0.1453
 3192TIP3    H231068   0.543   0.486   5.633  0.4566 -0.9662  0.6161
 3193TIP3   OH231069   2.311   5.204  11.071  0.6583  0.0091 -0.1986
 3193TIP3    H131070   2.269   5.119  11.087 -0.1218  0.5547  0.7730
 3193TIP3    H231071   2.386   5.183  11.015  2.2006 -1.7517  2.3087
 3194TIP3   OH231072   0.926   5.460  15.307  0.6941  0.5444 -0.2240
 3194TIP3    H131073   0.880   5.391  15.353 -2.0805  1.4699 -1.3994
 3194TIP3    H231074   0.947   5.525  15.374  0.2163  0.1096  0.3508
 3195TIP3   OH231075   2.910   4.119  13.191 -0.4356 -0.2751  0.3706
 3195TIP3    H131076   2.889   4.105  13.284  1.5451 -1.9591  0.6399
 3195TIP3    H231077   2.846   4.066  13.144 -2.2829  1.5966  0.6396
 3196TIP3   OH231078   3.518   6.279   5.623 -0.4004 -0.3148  0.1973
 3196TIP3    H131079   3.594   6.245   5.577 -0.9764  0.7992 -1.6650
 3196TIP3    H231080   3.453   6.296   5.555 -2.0371 -0.4467  1.6357
 3197TIP3   OH231081   0.514   2.326   5.553  0.2174  0.5114 -0.2260
 3197TIP3    H131082   0.601   2.365   5.552  0.1348  0.9408  2.1434
 3197TIP3    H231083   0.458   2.394   5.591 -0.4245 -0.9465  1.5979
 3198TIP3   OH231084   3.349   6.110  10.891 -0.4017 -0.8029 -0.2761
 3198TIP3    H131085   3.427   6.092  10.840 -0.3243  1.6892 -1.1770
 3198TIP3    H231086   3.351   6.046  10.962  1.5457 -1.8494 -1.2057
 3199TIP3   OH231087   3.557   2.169   1.408 -0.4828  0.2443  0.6120
 3199TIP3    H131088   3.551   2.076   1.430 -2.6420  0.2835  0.4673
 3199TIP3    H231089   3.505   2.212   1.476 -1.8749  1.0163 -0.8683
 3200TIP3   OH231090   1.374   2.041  15.617  0.2404  0.1124  0.3157
 3200TIP3    H131091   1.301   2.069  15.672  0.0007 -1.9355  1.1164
 3200TIP3    H231092   1.436   2.114  15.619 -1.0355  1.2093  0.9650
 3201TIP3   OH231093   5.787   6.127  11.951 -0.3461  0.4195 -0.4249
 3201TIP3    H131094   5.876   6.095  11.938 -0.0663  1.3539 -0.8760
 3201TIP3    H231095   5.732   6.066  11.901 -0.1985 -1.3238  1.3896
 3202TIP3   OH231096   1.100   5.284   3.047 -0.3668  0.4572  0.1356
 3202TIP3    H131097   1.192   5.312   3.052 -0.7046  1.4181  1.2311
 3202TIP3    H231098   1.105   5.191   3.024  0.8986  0.3721  0.6519
 3203TIP3   OH231099   0.039   2.580   2.162  0.4975  0.4116  0.2940
 3203TIP3    H131100   0.083   2.495   2.155  0.9563  0.5867  0.9156
 3203TIP3    H231101  -0.000   2.580   2.249  0.7434  0.9439  0.4113
 3204TIP3   OH231102   2.571   4.732  10.464 -0.2169  0.0937 -0.1757
 3204TIP3    H131103   2.653   4.750  10.510 -0.1006  0.9019 -0.6663
 3204TIP3    H231104   2.519   4.812  10.477 -0.3548  0.1558 -1.0432
 3205TIP3   OH231105   5.381   4.269  13.737  0.0393 -0.2490  0.0568
 3205TIP3    H131106   5.468   4.255  13.699  0.4766  0.1086  0.8826
 3205TIP3    H231107   5.396   4.268  13.832 -0.4292  2.1447  0.2359
 3206TIP3   OH231108   3.511   2.957   5.184  0.1964  0.0409  0.0875
 3206TIP3    H131109   3.427   3.000   5.197  0.2894  0.9447 -1.8146
 3206TIP3    H231110   3.489   2.869   5.155 -0.1790  0.6441 -1.5817
 3207TIP3   OH231111   1.272   0.546  10.873  0.1769 -0.2660  0.4678
 3207TIP3    H131112   1.235   0.619  10.824 -0.5070 -1.3137 -0.6284
 3207TIP3    H231113   1.218   0.471  10.849  1.3024 -1.2849  1.0082
 3208TIP3   OH231114   4.216   0.180   6.111 -0.3070 -0.1538 -0.3623
 3208TIP3    H131115   4.166   0.159   6.190 -1.2482 -0.9999 -1.1495
 3208TIP3    H231116   4.158   0.237   6.061  0.0191 -0.1475 -0.7349
 3209TIP3   OH231117   2.060   0.348  14.207  0.1588  0.1215 -0.2191
 3209TIP3    H131118   2.024   0.391  14.285 -2.7932  0.0073 -1.3765
 3209TIP3    H231119   2.073   0.257  14.233  0.1733  0.3005  0.4200
 3210TIP3   OH231120   5.510   0.239   0.522 -0.0669  0.0422 -0.6084
 3210TIP3    H131121   5.497   0.318   0.469 -2.0997 -0.7061 -1.3201
 3210TIP3    H231122   5.518   0.168   0.458 -1.4990 -0.7339  0.0130
 3211TIP3   OH231123   4.862   1.438   5.099  0.0965 -0.1197 -0.0095
 3211TIP3    H131124   4.847   1.438   5.005  1.2261  0.2034 -0.2008
 3211TIP3    H231125   4.898   1.352   5.118  0.8303  0.1735 -0.0440
 3212TIP3   OH231126   2.048   4.536  11.176 -0.0512  0.5613 -0.3252
 3212TIP3    H131127   2.039   4.606  11.111 -0.8537  0.4560 -0.3304
 3212TIP3    H231128   1.971   4.545  11.232 -0.8554 -1.1468 -1.1124
 3213TIP3   OH231129   5.922   3.277   5.562 -0.3052  0.3143 -0.0915
 3213TIP3    H131130   5.863   3.339   5.520  1.2063  1.1258 -1.1065
 3213TIP3    H231131   5.981   3.249   5.492 -0.5957 -1.8802  0.4643
 3214TIP3   OH231132   5.612   6.186  17.044  0.5199 -0.8797 -0.5191
 3214TIP3    H131133   5.668   6.156  17.115  1.2261 -0.5853 -0.9455
 3214TIP3    H231134   5.642   6.137  16.967  1.1351  0.2757 -1.0445
 3215TIP3   OH231135   5.508   5.344   0.561 -0.2509 -0.3885  0.2131
 3215TIP3    H131136   5.548   5.336   0.475 -1.2659  1.2326 -0.4456
 3215TIP3    H231137   5.576   5.382   0.617  0.4027 -1.4291  0.1516
 3216TIP3   OH231138   1.037   6.218   1.343  0.0560  0.9733 -0.0813
 3216TIP3    H131139   0.993   6.203   1.260  0.2042 -0.2488  0.0326
 3216TIP3    H231140   0.968   6.248   1.403 -0.9284 -1.9034  0.3823
 3217TIP3   OH231141   3.607   0.852  15.137  0.1009  0.2114 -0.8701
 3217TIP3    H131142   3.696   0.886  15.148 -0.6224  2.9565 -2.6104
 3217TIP3    H231143   3.619   0.758  15.122  2.4173 -0.0905  1.9297
 3218TIP3   OH231144   0.987   4.566  13.479 -0.1577  0.0781  0.2465
 3218TIP3    H131145   0.929   4.584  13.405  0.4040  1.2957  0.0938
 3218TIP3    H231146   1.041   4.492  13.449 -0.1019  0.3963 -0.4627
 3219TIP3   OH231147   1.862   5.382  16.151 -0.6919  0.3424  0.1103
 3219TIP3    H131148   1.902   5.463  16.182  0.8176 -1.0650  2.0320
 3219TIP3    H231149   1.769   5.404  16.143 -0.3403  2.2407  0.6045
 3220TIP3   OH231150   6.010   3.999   4.292  0.0847  0.0292 -0.3705
 3220TIP3    H131151   6.068   3.958   4.228 -0.4558 -1.2346 -0.0898
 3220TIP3    H231152   5.924   4.001   4.249 -0.1533 -0.2682  0.0829
 3221TIP3   OH231153   3.733   1.980   0.415 -0.2988  0.0766 -0.2980
 3221TIP3    H131154   3.722   1.885   0.421 -2.4314  0.3337  1.2139
 3221TIP3    H231155   3.680   2.005   0.340 -0.7417  0.1728  0.0412
 3222TIP3   OH231156   1.622   0.898   4.923  0.0344 -0.3687 -0.7396
 3222TIP3    H131157   1.674   0.922   4.846 -0.7265  1.2128 -0.8080
 3222TIP3    H231158   1.546   0.852   4.888 -0.1871  0.1320 -0.9342
 3223TIP3   OH231159   5.529   1.120   6.489  0.3763 -0.1214  0.7414
 3223TIP3    H131160   5.498   1.142   6.577 -0.2896 -1.2064  0.7981
 3223TIP3    H231161   5.450   1.098   6.440  0.6319  1.3868 -0.4326
 3224TIP3   OH231162   1.557   5.083  12.537 -0.2400 -0.2646 -0.0436
 3224TIP3    H131163   1.540   4.990  12.547  0.7759 -0.5635 -0.8901
 3224TIP3    H231164   1.536   5.101  12.445 -1.7022  0.6464  0.4278
 3225TIP3   OH231165   4.107   5.350   3.566 -0.0690  0.1004 -0.1213
 3225TIP3    H131166   4.199   5.367   3.547 -0.0995  2.0864  1.3264
 3225TIP3    H231167   4.071   5.435   3.590 -1.5530 -1.1263  2.3009
 3226TIP3   OH231168   5.217   2.742  14.118 -0.3982 -0.2769  0.1227
 3226TIP3    H131169   5.273   2.806  14.162 -0.9698  0.7846 -0.6611
 3226TIP3    H231170   5.187   2.684  14.188 -1.4194  1.4559  1.1798
 3227TIP3   OH231171   2.731   0.202   4.799 -0.2363 -0.1123 -0.2051
 3227TIP3    H131172   2.664   0.163   4.854 -1.2754  0.1853 -1.2326
 3227TIP3    H231173   2.797   0.134   4.788  0.7839  0.2897  2.6219
 3228TIP3   OH231174   1.180   3.493   3.153 -0.2351  0.6134 -0.1394
 3228TIP3    H131175   1.163   3.576   3.199 -2.1064  1.4368 -2.1155
 3228TIP3    H231176   1.102   3.440   3.169  1.0563 -0.9413  1.3240
 3229TIP3   OH231177   1.146   4.098  16.774  0.7078  0.2781  0.7622
 3229TIP3    H131178   1.204   4.170  16.796  1.8955 -0.6787  0.8677
 3229TIP3    H231179   1.142   4.099  16.678  2.2279 -0.6310  0.6626
 3230TIP3   OH231180   1.779   4.685   1.733  0.4020  0.2792 -0.2334
 3230TIP3    H131181   1.736   4.658   1.652  0.5803 -0.7389 -0.0067
 3230TIP3    H231182   1.708   4.713   1.791  0.0438 -1.0780  0.0249
 3231TIP3   OH231183   6.450   2.606  17.189  0.4777 -0.3075  0.1849
 3231TIP3    H131184   6.403   2.529  17.222 -0.0484 -1.0861 -2.1592
 3231TIP3    H231185   6.479   2.652  17.267 -2.4208 -0.8849  1.7666
 3232TIP3   OH231186   1.469   1.201  16.736 -0.0579  0.0562 -0.4170
 3232TIP3    H131187   1.483   1.112  16.705 -0.5314 -0.3048  0.3872
 3232TIP3    H231188   1.399   1.235  16.680 -1.2442 -0.7530  0.5433
 3233TIP3   OH231189   1.945   3.796   0.230  0.3037  0.2668  0.3089
 3233TIP3    H131190   2.000   3.798   0.309  2.2144 -2.1876 -0.8073
 3233TIP3    H231191   1.879   3.730   0.250 -0.7756  1.4357  0.7224
 3234TIP3   OH231192   4.762   2.131   1.167 -0.4313 -0.3708  0.2206
 3234TIP3    H131193   4.668   2.129   1.185 -0.5300 -1.0696 -0.3659
 3234TIP3    H231194   4.798   2.186   1.237 -1.2462 -0.2569  0.5620
 3235TIP3   OH231195   0.584   6.611   5.224 -0.3833  0.1724 -0.0750
 3235TIP3    H131196   0.505   6.557   5.213 -0.0878 -0.1402 -0.6819
 3235TIP3    H231197   0.646   6.576   5.160 -0.8841  2.5698 -2.0032
 3236TIP3   OH231198   0.763   0.276  15.185 -0.2785  0.3978 -0.1211
 3236TIP3    H131199   0.760   0.189  15.226 -0.0429  0.8710  0.9546
 3236TIP3    H231200   0.841   0.274  15.130 -0.6152 -0.2690 -0.5922
 3237TIP3   OH231201   3.556   4.031   4.192 -0.0693 -0.2503 -0.2369
 3237TIP3    H131202   3.467   4.059   4.170 -1.4604 -0.0595  4.4448
 3237TIP3    H231203   3.547   3.937   4.213  1.0743 -0.4756 -0.6876
 3238TIP3   OH231204   5.344   6.659   2.567  0.2789  0.5444  0.5424
 3238TIP3    H131205   5.405   6.677   2.495 -0.8551  1.1223 -0.2959
 3238TIP3    H231206   5.400   6.652   2.644  1.4720  0.4218 -0.3082
 3239TIP3   OH231207   3.196   2.120  15.790 -0.3659  0.1311 -0.1696
 3239TIP3    H131208   3.249   2.059  15.739  0.1033  0.3040  0.0943
 3239TIP3    H231209   3.224   2.104  15.881 -0.3154  0.6598 -0.0922
 3240TIP3   OH231210   0.734   2.724   4.391  0.4188 -0.0385  0.2787
 3240TIP3    H131211   0.662   2.758   4.444  1.1771  1.4043  0.4588
 3240TIP3    H231212   0.804   2.707   4.454 -0.0058 -2.2749  0.2247
 3241TIP3   OH231213   1.537   0.561   1.298 -0.1377 -0.3669  0.2551
 3241TIP3    H131214   1.522   0.490   1.236 -0.1965  2.1461 -2.8445
 3241TIP3    H231215   1.458   0.564   1.351 -1.5978 -0.5329 -1.8139
 3242TIP3   OH231216   1.531   6.493   2.164  0.0407 -0.1004  0.8246
 3242TIP3    H131217   1.470   6.420   2.173  0.5054 -0.3803  2.0511
 3242TIP3    H231218   1.525   6.539   2.248  1.4545 -0.1256  0.9711
 3243TIP3   OH231219   3.594   5.452  14.252  0.4823  0.7256  0.1301
 3243TIP3    H131220   3.570   5.423  14.164  1.2549  1.7972 -0.4517
 3243TIP3    H231221   3.664   5.516  14.238  0.6965  0.8210  1.5339
 3244TIP3   OH231222   2.311   0.173  11.456 -0.0323 -0.1792 -0.3947
 3244TIP3    H131223   2.339   0.089  11.420  0.2410 -0.7314  1.0691
 3244TIP3    H231224   2.220   0.182  11.429 -1.0942 -2.4767  2.0764
 3245TIP3   OH231225   6.075   6.480   2.622 -0.1215  0.0264  0.3974
 3245TIP3    H131226   6.118   6.397   2.603 -0.9310 -0.0348 -1.2960
 3245TIP3    H231227   6.146   6.544   2.623  0.3323 -0.4659  0.3110
 3246TIP3   OH231228   4.404   2.775  14.585  0.2348  0.0132 -0.0945
 3246TIP3    H131229   4.317   2.738  14.600 -0.0703  0.5432 -0.5448
 3246TIP3    H231230   4.388   2.866  14.561  0.9677  0.3393  0.6354
 3247TIP3   OH231231   6.566   3.840   2.828 -0.1339  0.6310 -0.9259
 3247TIP3    H131232   6.642   3.820   2.883 -0.6368 -2.9336 -1.2904
 3247TIP3    H231233   6.522   3.911   2.873  0.8738 -0.3918  1.9066
 3248TIP3   OH231234   6.519   6.648  16.453  0.2947  0.5408 -0.3276
 3248TIP3    H131235   6.562   6.675  16.372  1.2320  2.3913  0.7066
 3248TIP3    H231236   6.437   6.696  16.454 -0.4592 -0.6921 -0.8836
 3249TIP3   OH231237   6.588   3.445  11.260 -0.1762 -0.3703 -0.1733
 3249TIP3    H131238   6.507   3.455  11.309 -0.4791 -2.2525 -0.2102
 3249TIP3    H231239   6.560   3.429  11.170  0.0253 -3.3934  0.1851
 3250TIP3   OH231240   4.781   0.541   1.447 -0.4566 -0.1232 -0.1530
 3250TIP3    H131241   4.728   0.613   1.414 -0.7465  0.3934  1.3739
 3250TIP3    H231242   4.756   0.466   1.392 -0.2340  0.8713 -1.6868
 3251TIP3   OH231243   4.508   0.251  12.901 -0.3213 -0.3110  0.1817
 3251TIP3    H131244   4.528   0.276  12.810  1.4733 -0.6267  0.4430
 3251TIP3    H231245   4.413   0.239  12.902 -0.4133 -0.1237 -1.6144
 3252TIP3   OH231246   5.582   1.389  13.096  0.1829 -0.4683 -0.0310
 3252TIP3    H131247   5.488   1.406  13.101  0.1106 -0.6108 -0.8082
 3252TIP3    H231248   5.621   1.476  13.084  0.0466 -0.5216 -0.9520
 3253TIP3   OH231249   0.768   6.106   6.049  0.3914 -0.0029  0.2504
 3253TIP3    H131250   0.809   6.120   6.135  3.0816  0.0130 -0.9306
 3253TIP3    H231251   0.749   6.012   6.047 -1.3179  0.2629  1.4613
 3254TIP3   OH231252   5.552   4.878   2.018 -0.1154 -0.1581 -0.0326
 3254TIP3    H131253   5.629   4.824   2.002  0.4735  0.7212 -0.2842
 3254TIP3    H231254   5.580   4.940   2.086 -1.0098 -0.6510  0.8059
 3255TIP3   OH231255   3.257   4.527   3.550  0.8667  0.2427 -0.4470
 3255TIP3    H131256   3.294   4.478   3.477  0.3891 -3.0964  1.3047
 3255TIP3    H231257   3.162   4.525   3.535  0.8336  0.5198 -0.2892
 3256TIP3   OH231258   3.427   5.686  10.925  0.1304 -0.0262  0.5932
 3256TIP3    H131259   3.430   5.725  11.013  1.1733  3.1520 -0.6962
 3256TIP3    H231260   3.518   5.664  10.906  0.0933  0.4163 -0.1182
 3257TIP3   OH231261   6.752   1.286  16.625  0.3073 -0.2399  0.1489
 3257TIP3    H131262   6.715   1.198  16.631 -2.2892  0.4814 -2.4286
 3257TIP3    H231263   6.846   1.273  16.619 -0.0820 -3.0880 -2.2043
 3258TIP3   OH231264   2.219   6.461  11.915  0.3084 -0.0004 -0.1435
 3258TIP3    H131265   2.128   6.451  11.942  0.4434  0.3247  0.4627
 3258TIP3    H231266   2.269   6.420  11.986  0.5913 -1.5707 -1.1944
 3259TIP3   OH231267   6.158   1.838  12.649  0.5686 -0.2445 -0.0385
 3259TIP3    H131268   6.218   1.860  12.577 -1.4421  1.0129 -1.4373
 3259TIP3    H231269   6.108   1.918  12.664 -0.6197 -1.1793  1.1932
 3260TIP3   OH231270   0.762   4.265  13.510 -0.1217 -0.2095  0.3111
 3260TIP3    H131271   0.691   4.258  13.446 -0.4089  0.6394  0.5227
 3260TIP3    H231272   0.809   4.182  13.503  0.7336  0.4045 -2.0435
 3261TIP3   OH231273   6.373   5.942   6.002 -0.1899  0.8334  0.8188
 3261TIP3    H131274   6.290   5.983   6.027 -0.5739  1.6957 -1.5878
 3261TIP3    H231275   6.435   5.970   6.070 -1.7055  0.5876  2.3846
 3262TIP3   OH231276   3.783   0.006   5.115  1.1140  0.5096 -0.6244
 3262TIP3    H131277   3.724  -0.058   5.074  0.1611  0.6280  0.5127
 3262TIP3    H231278   3.730   0.086   5.122  1.9565  1.1151 -1.0876
 3263TIP3   OH231279   0.911   6.426   0.173 -0.3145 -0.0778 -0.6601
 3263TIP3    H131280   0.840   6.484   0.147 -1.2065  0.4831  2.6100
 3263TIP3    H231281   0.985   6.454   0.119 -1.7987  1.1938 -2.1781
 3264TIP3   OH231282   5.334   6.260   0.416  0.2949  0.0199  0.2933
 3264TIP3    H131283   5.325   6.355   0.415 -0.0555  0.0817  2.6683
 3264TIP3    H231284   5.426   6.244   0.391  0.1803  0.9056 -0.7694
 3265TIP3   OH231285   1.825   0.339  14.959  0.1891  0.0252 -0.1603
 3265TIP3    H131286   1.915   0.373  14.960  0.2881 -0.2402 -0.0806
 3265TIP3    H231287   1.805   0.328  14.866 -0.9988  3.3421 -0.4513
 3266TIP3   OH231288   5.324   5.915  14.862 -0.0384  0.0783  0.2510
 3266TIP3    H131289   5.395   5.892  14.922  1.9551 -0.4069 -2.1418
 3266TIP3    H231290   5.319   6.010  14.867  0.2047  0.0543  1.0728
 3267TIP3   OH231291   6.757   3.979   2.410 -0.1469 -0.0480  0.1367
 3267TIP3    H131292   6.749   4.037   2.486  0.1292  0.0893  0.0624
 3267TIP3    H231293   6.668   3.948   2.394 -0.2867  0.3117  0.2096
 3268TIP3   OH231294   0.418   5.315  15.507  0.0692  0.2913 -0.2079
 3268TIP3    H131295   0.471   5.313  15.586 -0.8614  0.1845  0.4328
 3268TIP3    H231296   0.451   5.390  15.458  3.2220 -1.7660 -1.6004
 3269TIP3   OH231297   0.466   0.589   3.769 -0.4301 -0.3578  0.0774
 3269TIP3    H131298   0.463   0.522   3.701  0.3326 -0.9692  0.6235
 3269TIP3    H231299   0.552   0.629   3.760 -0.8556  0.5315 -0.2069
 3270TIP3   OH231300   0.162   6.338  13.502  0.2308 -0.5651  0.1979
 3270TIP3    H131301   0.255   6.315  13.500  0.4219 -0.2982  2.8677
 3270TIP3    H231302   0.158   6.425  13.462  1.0243 -0.8115 -0.4582
 3271TIP3   OH231303   2.596   0.008  11.321 -0.2578  0.0141 -0.4219
 3271TIP3    H131304   2.539   0.032  11.248 -0.9786 -0.0612  0.1003
 3271TIP3    H231305   2.553  -0.067  11.361 -0.0039  0.2062  0.2267
 3272TIP3   OH231306   4.945   6.774  13.121 -0.5025  0.8700 -0.5880
 3272TIP3    H131307   4.907   6.723  13.193  1.1006  0.1054 -0.2309
 3272TIP3    H231308   4.881   6.843  13.105 -0.9957  0.9812  1.4851
 3273TIP3   OH231309   2.202   6.574  12.476 -0.1244  0.0625  0.0548
 3273TIP3    H131310   2.285   6.591  12.432 -0.4834  0.4475 -0.5000
 3273TIP3    H231311   2.215   6.606  12.566  0.2199  0.4311 -0.1228
 3274TIP3   OH231312   2.405   0.298  11.694  0.0175 -0.0191  0.0042
 3274TIP3    H131313   2.406   0.210  11.730  1.7148 -0.8422 -1.8291
 3274TIP3    H231314   2.348   0.293  11.617 -0.3911  0.6513  0.2524
 3275TIP3   OH231315   3.199   1.780  16.110  0.0600  0.1681  0.0140
 3275TIP3    H131316   3.175   1.712  16.173  0.7011 -1.0807 -1.0469
 3275TIP3    H231317   3.115   1.817  16.082 -0.5829 -2.4512 -1.8187
 3276TIP3   OH231318   1.494   2.836   6.552 -0.6353  0.2861  1.0977
 3276TIP3    H131319   1.417   2.840   6.495 -1.5265 -3.5087  1.7942
 3276TIP3    H231320   1.466   2.879   6.633 -0.7902  1.9419  0.2091
 3277TIP3   OH231321   0.495   6.043  11.336 -0.2423  0.0699 -0.3340
 3277TIP3    H131322   0.433   6.095  11.387 -0.8237 -0.5436 -0.3958
 3277TIP3    H231323   0.453   6.033  11.251  0.2027  0.1142 -0.5623
 3278TIP3   OH231324   0.226   1.027   4.927 -0.6221 -0.4009 -0.0693
 3278TIP3    H131325   0.170   0.953   4.902 -1.6263  0.2226  0.2340
 3278TIP3    H231326   0.310   0.987   4.949 -0.7319 -1.3063 -1.1628
 3279TIP3   OH231327   1.902   4.627   2.949  0.0125  0.0114  0.9256
 3279TIP3    H131328   1.854   4.593   3.025 -0.5672 -1.2920  0.0305
 3279TIP3    H231329   1.991   4.593   2.960 -0.1541 -0.4582  0.8728
 3280TIP3   OH231330   5.151   2.358   3.384 -0.5595 -0.8230 -0.4652
 3280TIP3    H131331   5.063   2.321   3.379 -2.1855  2.7483 -1.6915
 3280TIP3    H231332   5.171   2.361   3.477 -1.6743 -1.8253 -0.1734
 3281TIP3   OH231333   5.809   4.781   0.449 -0.9260 -0.0047  0.5600
 3281TIP3    H131334   5.742   4.735   0.399 -0.8641  0.2934  0.1959
 3281TIP3    H231335   5.842   4.848   0.389  0.4292 -0.8224  0.3566
 3282TIP3   OH231336   3.839   3.398  14.154  0.3029 -0.1281  0.0573
 3282TIP3    H131337   3.773   3.401  14.084 -0.5988  0.1488  0.8946
 3282TIP3    H231338   3.911   3.348  14.116  0.0480  0.4289 -1.2409
 3283TIP3   OH231339   3.650   5.012   4.908  0.2576 -0.4248 -0.0595
 3283TIP3    H131340   3.727   4.986   4.857  0.6520  1.6822 -0.6415
 3283TIP3    H231341   3.582   5.027   4.842 -0.0872 -0.4269  0.2926
 3284TIP3   OH231342   1.311   4.893   2.925  0.5934  0.3596  0.8160
 3284TIP3    H131343   1.346   4.810   2.893  0.1528 -0.1243  1.5572
 3284TIP3    H231344   1.249   4.921   2.857 -0.4153 -0.7113  1.2566
 3285TIP3   OH231345   5.470   5.360  10.891  0.4262  0.2463 -0.1356
 3285TIP3    H131346   5.458   5.427  10.825 -0.3993  0.2878  0.0416
 3285TIP3    H231347   5.508   5.285  10.844  2.5194  1.2194 -0.1093
 3286TIP3   OH231348   5.589   3.625   4.406 -0.0004 -0.4950  0.4231
 3286TIP3    H131349   5.601   3.543   4.454  1.1485  0.6132  2.1407
 3286TIP3    H231350   5.506   3.659   4.437 -0.0628 -0.5873  0.3587
 3287TIP3   OH231351   3.815   4.511  11.008  0.4365  0.1514  0.6409
 3287TIP3    H131352   3.869   4.494  10.930  1.1858  0.0461  1.1763
 3287TIP3    H231353   3.725   4.510  10.974  0.6559 -1.1953 -0.0209
 3288TIP3   OH231354   5.690   6.030  14.077 -0.1126 -0.1156 -0.0698
 3288TIP3    H131355   5.649   6.065  14.156  2.2509  3.1002 -0.0744
 3288TIP3    H231356   5.660   6.088  14.007 -0.1566 -1.3348 -1.0802
 3289TIP3   OH231357   6.165   2.229  12.018  0.8539 -0.1502 -0.1651
 3289TIP3    H131358   6.230   2.205  11.951  1.4106  0.9797 -0.0622
 3289TIP3    H231359   6.086   2.181  11.993  1.3905 -0.6528 -0.9634
 3290TIP3   OH231360   1.562   3.085   3.598  0.1173 -0.1797  0.2648
 3290TIP3    H131361   1.639   3.127   3.635 -0.2193  0.4889  0.2273
 3290TIP3    H231362   1.558   3.117   3.508  0.2996 -0.9147 -0.0088
 3291TIP3   OH231363   2.948   5.118   5.471 -0.1782 -0.0716  0.3448
 3291TIP3    H131364   2.857   5.140   5.489 -0.2351  0.3845 -0.4570
 3291TIP3    H231365   2.979   5.187   5.413  0.0704 -1.2559 -1.0198
 3292TIP3   OH231366   5.794   0.141  12.282  0.0805  0.0464  0.0511
 3292TIP3    H131367   5.814   0.048  12.274 -0.1077  0.0752 -0.8597
 3292TIP3    H231368   5.879   0.182  12.298  0.2361 -0.2232 -0.0754
 3293TIP3   OH231369   1.983   4.041   5.099 -0.5264  0.7053  0.0564
 3293TIP3    H131370   1.951   4.103   5.033 -0.1072  0.6996 -0.1531
 3293TIP3    H231371   1.910   4.032   5.160 -2.0792 -1.5298 -1.9660
 3294TIP3   OH231372   3.757   4.651  10.407 -0.0889  0.0633  0.0346
 3294TIP3    H131373   3.668   4.677  10.384  0.4228  1.6441 -0.3036
 3294TIP3    H231374   3.765   4.670  10.500  0.3522  1.4741 -0.2553
 3295TIP3   OH231375   6.139   6.661   4.150 -0.4734  0.2945 -0.0273
 3295TIP3    H131376   6.216   6.697   4.192  0.3503 -1.1196 -0.2611
 3295TIP3    H231377   6.155   6.567   4.147 -2.4708 -0.1139  0.4593
 3296TIP3   OH231378   3.981   0.944  12.991  0.4937  0.5118  0.1343
 3296TIP3    H131379   3.963   1.023  13.042 -0.7879 -0.6517  1.6171
 3296TIP3    H231380   3.925   0.877  13.032  2.6635 -1.5353 -0.0762
 3297TIP3   OH231381   4.705   2.459   0.723 -0.1568 -0.2050 -0.5373
 3297TIP3    H131382   4.695   2.552   0.701  0.1074 -0.2696 -0.9378
 3297TIP3    H231383   4.796   2.439   0.701  0.2569 -0.1727  0.9926
 3298TIP3   OH231384   0.281   1.106  12.110 -0.1392 -0.2677  0.2007
 3298TIP3    H131385   0.373   1.079  12.114  0.8237  2.4073 -1.4884
 3298TIP3    H231386   0.251   1.100  12.201  2.4144  0.9995  1.2455
 3299TIP3   OH231387   1.379   1.443  13.020 -0.0172  0.0721  0.3511
 3299TIP3    H131388   1.304   1.406  12.974 -1.1648  0.7010  1.6644
 3299TIP3    H231389   1.439   1.370  13.032 -0.4138 -0.4440 -0.6784
 3300TIP3   OH231390   4.356   5.063  13.965 -0.2350  0.2696 -0.5420
 3300TIP3    H131391   4.337   5.100  14.052 -2.0744  0.1490 -0.8576
 3300TIP3    H231392   4.388   4.975  13.983  2.0122  1.1345  0.1028
 3301TIP3   OH231393   1.013   3.498  13.399  0.7125  0.0660 -0.0901
 3301TIP3    H131394   0.948   3.458  13.342  0.8695 -0.5956  0.1841
 3301TIP3    H231395   0.966   3.518  13.480  0.6848  0.2278 -0.1465
 3302TIP3   OH231396   6.506   2.502   0.897 -0.0864 -0.1784  0.3755
 3302TIP3    H131397   6.466   2.418   0.874  1.1613 -0.6082 -0.3624
 3302TIP3    H231398   6.600   2.486   0.888  0.2165  1.0177  1.2400
 3303TIP3   OH231399   6.387   2.108   4.029  0.0097 -0.0946 -0.4388
 3303TIP3    H131400   6.385   2.196   3.992  0.1075 -0.0514 -0.3444
 3303TIP3    H231401   6.440   2.057   3.968 -0.1644 -0.1228 -0.5670
 3304TIP3   OH231402   4.540   4.908   2.637  0.0909 -0.0903 -1.0285
 3304TIP3    H131403   4.523   4.927   2.730  3.9210 -1.8272  0.2429
 3304TIP3    H231404   4.475   4.841   2.614  0.0894 -0.8737  0.9993
 3305TIP3   OH231405   5.657   3.589   2.797  0.4432  0.3696  0.3700
 3305TIP3    H131406   5.599   3.636   2.857 -0.6337  0.4445 -0.6838
 3305TIP3    H231407   5.668   3.503   2.836  0.6773  0.7840  1.2325
 3306TIP3   OH231408   6.829   3.682   2.603  0.2248 -0.2528 -0.4430
 3306TIP3    H131409   6.897   3.615   2.599  0.8534  0.3086  0.2562
 3306TIP3    H231410   6.858   3.741   2.673 -0.7281  0.2882 -0.4786
 3307TIP3   OH231411   6.433   3.820  10.588  0.0433  0.6051 -0.3987
 3307TIP3    H131412   6.411   3.739  10.634  1.0131 -1.0271 -2.5946
 3307TIP3    H231413   6.433   3.888  10.655  0.8486 -1.5070  1.8479
 3308TIP3   OH231414   0.578   5.600   4.877  0.0150  0.4495  0.1850
 3308TIP3    H131415   0.638   5.526   4.882  2.0167  2.0620  1.5683
 3308TIP3    H231416   0.501   5.572   4.927 -0.2905 -1.4915 -1.2658
 3309TIP3   OH231417   5.188   2.270   3.986  0.3396  0.4859 -0.1377
 3309TIP3    H131418   5.102   2.236   4.012 -0.0583  1.6331  0.1311
 3309TIP3    H231419   5.227   2.200   3.935  0.1637 -0.9407  1.5780
 3310TIP3   OH231420   2.143   4.026   1.904  0.3164  0.4062  0.4330
 3310TIP3    H131421   2.230   4.011   1.939 -0.4696 -0.8888  1.9073
 3310TIP3    H231422   2.101   4.085   1.967 -1.2523 -2.2757  2.0829
 3311TIP3   OH231423   0.337   4.388  13.023 -0.2415 -0.1054  0.4466
 3311TIP3    H131424   0.291   4.308  12.998  0.6830 -0.8204  1.0042
 3311TIP3    H231425   0.336   4.388  13.118 -0.2173  0.5532  0.4570
 3312TIP3   OH231426   1.665   4.602  14.786 -0.2024  0.2901  0.4690
 3312TIP3    H131427   1.726   4.621  14.715 -0.0111  0.7799  0.7562
 3312TIP3    H231428   1.623   4.687  14.805 -0.8964 -0.0175  0.3475
 3313TIP3   OH231429   6.564   3.723   2.580 -0.0381  0.1413 -0.1537
 3313TIP3    H131430   6.651   3.684   2.581 -1.7613 -4.3868  0.5697
 3313TIP3    H231431   6.559   3.775   2.660  1.6227 -0.5452  0.4264
 3314TIP3   OH231432   2.184   2.245   5.187 -0.1129  0.1143 -0.1732
 3314TIP3    H131433   2.195   2.335   5.155  2.6908 -0.5865 -1.4619
 3314TIP3    H231434   2.252   2.195   5.142 -0.2314 -2.2842  2.0747
 3315TIP3   OH231435   3.778   3.497   0.754 -0.3278 -0.0813 -0.6512
 3315TIP3    H131436   3.781   3.510   0.849  0.6349 -2.3783 -0.3151
 3315TIP3    H231437   3.696   3.451   0.739 -0.7864  0.8462 -1.0343
 3316TIP3   OH231438   5.791   4.267   0.828  0.0656  0.0968 -0.1738
 3316TIP3    H131439   5.755   4.350   0.797  0.5572  0.5117  0.3356
 3316TIP3    H231440   5.884   4.272   0.806  0.1444 -0.2034  0.0899
 3317TIP3   OH231441   0.058   1.608   3.046  0.6044 -0.1116  0.3262
 3317TIP3    H131442   0.069   1.562   3.130  0.7423 -2.0732 -0.7126
 3317TIP3    H231443  -0.032   1.643   3.050  1.0512  0.9900  1.7974
 3318TIP3   OH231444   4.839   1.502  11.644 -0.2328 -0.1797  0.1830
 3318TIP3    H131445   4.792   1.418  11.640  1.9179 -1.5005  0.9633
 3318TIP3    H231446   4.856   1.516  11.737 -0.5071  1.1186  0.0599
 3319TIP3   OH231447   4.708   2.844   5.311  0.4704 -0.0953  0.7077
 3319TIP3    H131448   4.703   2.806   5.224 -3.6594  1.2890  0.1491
 3319TIP3    H231449   4.656   2.785   5.367 -0.3821  1.1324  1.2686
 3320TIP3   OH231450   1.638   2.625   1.602  0.1208 -0.0353  0.8347
 3320TIP3    H131451   1.694   2.662   1.671  0.1165 -1.6459  1.7559
 3320TIP3    H231452   1.698   2.607   1.530  0.2168  1.1904  0.5840
 3321TIP3   OH231453   0.933   5.585   4.259 -0.0988 -0.5610  1.0007
 3321TIP3    H131454   0.858   5.545   4.215  0.9370 -1.4629 -0.0079
 3321TIP3    H231455   0.909   5.677   4.268 -1.0785 -0.7183  0.1670
 3322TIP3   OH231456   2.667   1.226   4.628 -0.0312  0.4689  0.4056
 3322TIP3    H131457   2.660   1.229   4.532  3.0578 -0.0029  0.0541
 3322TIP3    H231458   2.577   1.211   4.658 -0.9745 -0.3578 -2.4514
 3323TIP3   OH231459   3.521   2.440  10.427 -0.3211 -0.3140 -0.2255
 3323TIP3    H131460   3.543   2.506  10.493 -1.3067  1.6804 -1.7992
 3323TIP3    H231461   3.427   2.453  10.411 -0.8096 -2.8736  0.1814
 3324TIP3   OH231462   6.378   1.344  14.714  0.4494  0.2498  0.7472
 3324TIP3    H131463   6.329   1.335  14.633  1.3705  2.1679 -0.0796
 3324TIP3    H231464   6.423   1.260  14.724 -0.6739 -0.4685 -0.0228
 3325TIP3   OH231465   4.543   1.652   2.313 -0.0783 -0.3225 -0.4234
 3325TIP3    H131466   4.601   1.658   2.388 -0.8238 -0.4673  0.1800
 3325TIP3    H231467   4.469   1.600   2.344 -0.9216  0.5484 -0.9204
 3326TIP3   OH231468   1.343   1.846   0.001 -0.2324  0.2440 -0.7700
 3326TIP3    H131469   1.328   1.935  -0.031  2.2683  0.5515 -1.2956
 3326TIP3    H231470   1.391   1.858   0.083  0.8379 -0.6028 -1.2502
 3327TIP3   OH231471   3.517   5.261   5.361  0.3230 -0.1322  0.1565
 3327TIP3    H131472   3.461   5.200   5.410 -1.7107  0.9955 -0.6438
 3327TIP3    H231473   3.565   5.309   5.429  1.6046 -2.2076  0.8138
 3328TIP3   OH231474   2.720   3.444  11.680 -0.2442 -0.3659 -0.3571
 3328TIP3    H131475   2.748   3.504  11.610 -1.4599 -0.6887 -1.1466
 3328TIP3    H231476   2.627   3.461  11.690 -0.2253 -0.8240  0.7220
 3329TIP3   OH231477   2.972   3.227   5.555  0.0073  0.1149  0.1706
 3329TIP3    H131478   2.937   3.219   5.466 -2.0324 -1.2107  1.0030
 3329TIP3    H231479   3.014   3.143   5.572  1.1087  0.6603  0.1992
 3330TIP3   OH231480   1.985   4.790  15.406 -0.1530 -0.3810  0.0402
 3330TIP3    H131481   1.970   4.761  15.496 -1.4921 -0.7762 -0.2939
 3330TIP3    H231482   1.996   4.710  15.356 -1.2628 -0.2452 -0.4500
 3331TIP3   OH231483   0.280   3.262   0.466 -0.5306 -0.4245  0.4707
 3331TIP3    H131484   0.272   3.167   0.473 -0.4358 -0.5946 -1.2961
 3331TIP3    H231485   0.198   3.296   0.501 -0.6331 -1.1538  0.9659
 3332TIP3   OH231486   0.864   2.074   0.665 -0.9194 -0.0780 -0.3175
 3332TIP3    H131487   0.941   2.127   0.646  0.5418 -2.2119 -0.7695
 3332TIP3    H231488   0.793   2.137   0.676  0.8516  1.9758  0.0294
 3333TIP3   OH231489   0.669   4.499   3.389  0.1987 -0.2426  0.5353
 3333TIP3    H131490   0.618   4.531   3.315 -1.4672 -3.3964  0.1071
 3333TIP3    H231491   0.721   4.574   3.418 -2.1778  2.2301 -1.1762
 3334TIP3   OH231492   3.896   5.029   0.827 -1.2482  0.0128 -0.8886
 3334TIP3    H131493   3.882   5.012   0.920 -0.1538 -0.9131 -0.8724
 3334TIP3    H231494   3.921   4.945   0.791  3.0243  1.1329 -1.0646
 3335TIP3   OH231495   1.201   1.143  15.852 -0.6266 -0.1382 -0.2013
 3335TIP3    H131496   1.133   1.195  15.894 -1.0267 -1.3464  0.6766
 3335TIP3    H231497   1.279   1.156  15.906 -1.0579 -1.4379  0.7582
 3336TIP3   OH231498   3.079   3.379   1.186  0.0666 -0.5799  0.2769
 3336TIP3    H131499   3.145   3.406   1.249 -0.7447 -0.8675  1.2899
 3336TIP3    H231500   3.082   3.283   1.187  0.1528 -0.5863 -0.2446
 3337TIP3   OH231501   5.278   1.673   6.699 -0.4009 -0.2477 -0.4766
 3337TIP3    H131502   5.188   1.674   6.664 -0.3859 -0.6095 -0.5294
 3337TIP3    H231503   5.269   1.636   6.787 -0.4405  0.6788 -0.0794
 3338TIP3   OH231504   2.610   3.502  14.876  0.2597 -0.1199  0.1907
 3338TIP3    H131505   2.638   3.433  14.936  0.4077  0.5965  0.9773
 3338TIP3    H231506   2.686   3.517  14.819  0.3259 -0.4220  0.2002
 3339TIP3   OH231507   0.130   4.636  13.079  0.0109 -0.1937 -0.2506
 3339TIP3    H131508   0.158   4.545  13.071 -0.9907 -0.7968  2.2321
 3339TIP3    H231509   0.100   4.645  13.170  0.3335  2.6959 -0.3178
 3340TIP3   OH231510   5.815   1.669  14.445  0.0441  0.1553 -0.1766
 3340TIP3    H131511   5.809   1.578  14.474 -0.4813 -0.2860 -1.5878
 3340TIP3    H231512   5.724   1.696  14.431  0.2256  0.6871 -0.3625
 3341TIP3   OH231513   5.953   0.729  14.650 -0.5757  0.4858  0.1390
 3341TIP3    H131514   6.014   0.750  14.720 -1.4815  2.9614  0.2822
 3341TIP3    H231515   5.867   0.726  14.692 -0.9027 -0.0615 -0.5307
 3342TIP3   OH231516   3.904   1.501   4.920 -0.0359  0.2714  0.5172
 3342TIP3    H131517   3.924   1.563   4.849 -1.6130 -1.0163 -1.1562
 3342TIP3    H231518   3.972   1.434   4.913  0.6076  0.8489  1.1394
 3343TIP3   OH231519   6.399   6.064  13.113 -0.5185 -0.5056  0.0934
 3343TIP3    H131520   6.412   6.158  13.100 -1.7425 -0.3003  0.1879
 3343TIP3    H231521   6.464   6.039  13.177  1.6365 -0.2996 -1.8810
 3344TIP3   OH231522   1.680   4.284  14.351  0.5567 -0.2629 -0.0419
 3344TIP3    H131523   1.594   4.266  14.312  0.9840  0.8517 -1.5831
 3344TIP3    H231524   1.723   4.199  14.355 -0.8973 -0.9858  1.5320
 3345TIP3   OH231525   3.526   3.776  10.687 -0.4470 -0.1023  0.4141
 3345TIP3    H131526   3.531   3.812  10.598 -0.4263  0.4748  0.6397
 3345TIP3    H231527   3.561   3.687  10.680 -1.5580 -0.4925 -0.3834
 3346TIP3   OH231528   4.831   1.505  11.108  0.1795  0.0391 -0.3566
 3346TIP3    H131529   4.905   1.446  11.093 -1.1452 -1.1440 -3.0542
 3346TIP3    H231530   4.858   1.588  11.070  0.1006 -0.4307 -1.4715
 3347TIP3   OH231531   2.830   2.507  12.070  0.2008 -0.4462  0.5384
 3347TIP3    H131532   2.832   2.465  11.984  0.2254  1.0164 -0.2239
 3347TIP3    H231533   2.776   2.451  12.124 -1.4531 -0.4151 -1.0077
 3348TIP3   OH231534   3.922   4.991  10.813 -0.1345 -0.2236 -0.2945
 3348TIP3    H131535   3.963   4.946  10.739  1.4649  0.4966  0.1017
 3348TIP3    H231536   3.946   4.938  10.889 -0.8626 -0.3736 -0.1635
 3349TIP3   OH231537   4.705   5.720   5.438 -0.0016 -0.6064 -0.3170
 3349TIP3    H131538   4.721   5.645   5.381  1.2758 -1.5017  1.1714
 3349TIP3    H231539   4.792   5.750   5.463 -0.4343 -1.8355  3.1633
 3350TIP3   OH231540   1.328   1.892   1.829  0.1564  0.7773 -0.2353
 3350TIP3    H131541   1.345   1.798   1.839  0.8593  0.8952 -0.3093
 3350TIP3    H231542   1.274   1.915   1.904 -1.8721 -0.1306 -1.3119
 3351TIP3   OH231543   5.478   0.224  14.254  0.0982  0.1175 -0.2695
 3351TIP3    H131544   5.461   0.199  14.163 -0.3365 -0.6735  0.0154
 3351TIP3    H231545   5.466   0.319  14.256 -0.0606  0.1166 -1.0022
 3352TIP3   OH231546   0.629   4.843  11.279  0.0149  0.0182 -0.4747
 3352TIP3    H131547   0.658   4.927  11.313  0.8784 -0.4657  0.0406
 3352TIP3    H231548   0.657   4.843  11.187  0.7506 -0.0143 -0.2628
 3353TIP3   OH231549   5.006   5.874   2.806 -0.1326  0.4671  0.1498
 3353TIP3    H131550   5.100   5.863   2.798 -0.1274 -0.7962  1.4380
 3353TIP3    H231551   4.990   5.876   2.900 -1.2715  2.0225 -0.0345
 3354TIP3   OH231552   2.830   5.560  16.363  0.5352 -0.5054  0.4660
 3354TIP3    H131553   2.782   5.479  16.347  1.3263 -1.0768  0.8988
 3354TIP3    H231554   2.885   5.571  16.285 -2.6096  1.9726 -1.7081
 3355TIP3   OH231555   4.578   1.193   4.876 -0.2670  0.0003 -0.0055
 3355TIP3    H131556   4.597   1.150   4.960 -2.2713  0.2018  0.6126
 3355TIP3    H231557   4.627   1.143   4.811  0.0227 -1.2027  1.0972
 3356TIP3   OH231558   3.066   1.247   6.317 -0.8551 -0.3032  0.4862
 3356TIP3    H131559   3.020   1.167   6.288  0.1236 -0.7196  0.0447
 3356TIP3    H231560   3.146   1.249   6.264 -1.8541  2.1441 -1.1213
 3357TIP3   OH231561   4.384   5.234   6.659 -0.0523 -0.0159 -0.0054
 3357TIP3    H131562   4.455   5.262   6.601  0.1771  0.2126  0.3888
 3357TIP3    H231563   4.363   5.311   6.711  0.9950 -0.7211  1.5226
 3358TIP3   OH231564   1.180   2.377   4.468 -0.3276  0.2529  0.4350
 3358TIP3    H131565   1.087   2.360   4.479 -1.0189  1.5306 -2.5112
 3358TIP3    H231566   1.219   2.290   4.455 -1.9156 -0.1369 -2.7600
 3359TIP3   OH231567   4.232   2.893   2.872  0.4078  0.2702  0.2733
 3359TIP3    H131568   4.182   2.817   2.899  0.7426 -0.3342 -0.7433
 3359TIP3    H231569   4.258   2.874   2.781  0.9774  1.3371  0.1916
 3360TIP3   OH231570   1.582   3.282  14.957  0.4554 -0.4446 -0.1008
 3360TIP3    H131571   1.516   3.213  14.951 -0.1025  0.0635  0.0230
 3360TIP3    H231572   1.561   3.328  15.038  2.1363 -1.4394  0.9676
 3361TIP3   OH231573   3.117   2.687  10.372 -0.3818  1.2317  0.3751
 3361TIP3    H131574   3.059   2.722  10.305 -0.4597 -2.4556 -1.7317
 3361TIP3    H231575   3.189   2.751  10.378 -1.4880  2.7634 -1.5801
 3362TIP3   OH231576   1.768   4.258   5.764  0.0483 -0.2225  0.7267
 3362TIP3    H131577   1.796   4.315   5.692 -0.9757  0.6200  0.9549
 3362TIP3    H231578   1.673   4.274   5.770 -0.4277 -2.5428  0.3001
 3363TIP3   OH231579   4.172   5.574  11.960  0.6443  0.1923 -0.3103
 3363TIP3    H131580   4.186   5.634  12.033  0.7011  1.0230 -0.9919
 3363TIP3    H231581   4.222   5.612  11.888  0.7539 -0.7282 -0.7283
 3364TIP3   OH231582   2.777   4.428  13.051 -0.0561  0.2258 -0.1035
 3364TIP3    H131583   2.826   4.368  12.995 -1.0225 -0.5385 -0.1513
 3364TIP3    H231584   2.820   4.423  13.136  2.1299  2.2158 -0.9529
 3365TIP3   OH231585   4.557   0.834   5.864  0.0739 -0.5354 -0.5090
 3365TIP3    H131586   4.523   0.851   5.952 -2.1297  0.6720 -1.5131
 3365TIP3    H231587   4.610   0.911   5.843  0.5437 -0.7928 -0.2892
 3366TIP3   OH231588   1.939   1.818  11.048 -0.9947 -0.3313  0.7606
 3366TIP3    H131589   1.863   1.849  10.998  0.0253 -0.0135 -0.6632
 3366TIP3    H231590   1.947   1.726  11.024 -0.2777 -0.0859 -0.0231
 3367TIP3   OH231591   6.237   0.634   3.957  0.5307  0.2146 -0.1127
 3367TIP3    H131592   6.185   0.646   3.877 -0.1891  0.1157  0.3358
 3367TIP3    H231593   6.220   0.714   4.008 -0.9840 -0.7862  1.0339
 3368TIP3   OH231594   6.704   5.432   2.432 -0.5082  0.0514  0.6129
 3368TIP3    H131595   6.661   5.355   2.469 -0.0837 -0.8835 -0.7632
 3368TIP3    H231596   6.672   5.436   2.341  1.2466  0.1137 -0.0435
 3369TIP3   OH231597   3.359   5.905   0.721  0.2601 -0.3800  0.3625
 3369TIP3    H131598   3.328   5.816   0.735 -0.6568 -0.3964 -1.4744
 3369TIP3    H231599   3.319   5.932   0.638  3.2988  0.4416 -1.0152
 3370TIP3   OH231600   0.733   3.631  13.549 -0.1972 -0.3676  0.2258
 3370TIP3    H131601   0.724   3.581  13.468  0.6079 -0.3612  0.1258
 3370TIP3    H231602   0.767   3.567  13.612  0.5090 -0.0336  0.1876
 3371TIP3   OH231603   6.556   4.500  12.442  0.3500 -0.4026  0.0109
 3371TIP3    H131604   6.528   4.474  12.354  0.4729 -0.1076 -0.1151
 3371TIP3    H231605   6.504   4.578  12.461 -2.3363 -2.3912  1.6262
 3372TIP3   OH231606   3.321   6.108  16.147  0.5563  0.2161 -0.2534
 3372TIP3    H131607   3.382   6.114  16.221 -0.4458  0.1596  0.6001
 3372TIP3    H231608   3.245   6.159  16.174  1.5449  3.2805 -2.7343
 3373TIP3   OH231609   3.613   3.100  13.792 -0.1143  0.3931 -0.3096
 3373TIP3    H131610   3.601   3.076  13.884  1.0586 -1.1063 -0.5124
 3373TIP3    H231611   3.543   3.054  13.746 -1.3141  1.9169 -0.1162
 3374TIP3   OH231612   3.344   0.220   0.843 -0.3907  0.6539 -0.1302
 3374TIP3    H131613   3.377   0.221   0.753 -0.6017 -0.0129 -0.2147
 3374TIP3    H231614   3.251   0.202   0.834 -0.6651  1.8629  0.1530
 3375TIP3   OH231615   2.378   0.699  15.089  0.0133 -0.2124 -0.3042
 3375TIP3    H131616   2.418   0.642  15.154 -0.5030  0.6518  0.7921
 3375TIP3    H231617   2.434   0.776  15.087 -0.1029 -0.1342 -0.7227
 3376TIP3   OH231618   1.246   0.293   2.863  0.3090 -0.0680  0.0037
 3376TIP3    H131619   1.151   0.297   2.861  0.2120  1.0189  2.5466
 3376TIP3    H231620   1.269   0.311   2.954  2.9543 -0.4233 -0.5023
 3377TIP3   OH231621   2.235   1.201  13.319  0.5320 -0.3320  0.5576
 3377TIP3    H131622   2.171   1.167  13.382  1.4766 -1.8720  0.7225
 3377TIP3    H231623   2.305   1.237  13.373  0.2017  0.6278  0.3691
 3378TIP3   OH231624   0.868   2.181  16.496 -0.2080 -0.1703  0.0424
 3378TIP3    H131625   0.801   2.114  16.510 -1.4972  1.1114  0.3926
 3378TIP3    H231626   0.864   2.199  16.402 -1.9123  1.3301  0.3211
 3379TIP3   OH231627   4.019   2.328  15.727  0.2113 -0.3044 -0.4807
 3379TIP3    H131628   4.088   2.264  15.707  0.9379  0.7273 -1.3993
 3379TIP3    H231629   4.065   2.412  15.731 -0.6983  0.1571  0.8913
 3380TIP3   OH231630   4.846   3.261  14.498  0.0203  0.2844 -0.4769
 3380TIP3    H131631   4.836   3.308  14.581  2.0065 -0.5083  0.2588
 3380TIP3    H231632   4.778   3.298  14.442 -2.1677  0.0452  1.8391
 3381TIP3   OH231633   3.334   4.918  12.931  0.3688  0.4272 -0.3039
 3381TIP3    H131634   3.362   4.939  12.842  1.0530  2.6744  0.3721
 3381TIP3    H231635   3.380   4.837  12.952 -1.1984 -1.1732 -2.5741
 3382TIP3   OH231636   5.449   6.583  15.587  0.2333  0.1492  0.3568
 3382TIP3    H131637   5.431   6.659  15.532  1.0401 -0.7272 -1.1838
 3382TIP3    H231638   5.369   6.530  15.581 -1.2478  1.7522  3.1800
 3383TIP3   OH231639   6.643   1.137  13.983 -0.2847 -0.5040 -0.6299
 3383TIP3    H131640   6.633   1.191  13.905 -1.3007  0.9373  0.4448
 3383TIP3    H231641   6.554   1.117  14.010 -0.0056  0.1441  0.8793
 3384TIP3   OH231642   0.658   5.571   1.501 -0.0817 -0.5563 -0.7505
 3384TIP3    H131643   0.639   5.479   1.486 -2.4250 -0.7301  2.4572
 3384TIP3    H231644   0.682   5.576   1.594 -1.5268  2.2271 -0.4410
 3385TIP3   OH231645   5.172   1.248   2.757 -0.0841  0.4573  0.5392
 3385TIP3    H131646   5.129   1.317   2.706 -0.8040  0.3956  1.0559
 3385TIP3    H231647   5.100   1.194   2.789  0.3399  0.7079  1.9389
 3386TIP3   OH231648   0.191   6.593   5.512 -0.4155  0.3605  0.3681
 3386TIP3    H131649   0.151   6.506   5.523 -1.3244  0.7117 -0.0390
 3386TIP3    H231650   0.285   6.577   5.522 -0.3588 -1.0324 -1.6143
 3387TIP3   OH231651   1.025   1.709  16.902  0.1660 -0.2043  0.1990
 3387TIP3    H131652   1.074   1.680  16.979  2.1651  0.9649 -0.5443
 3387TIP3    H231653   1.042   1.642  16.836 -0.9608 -0.8432  0.5437
 3388TIP3   OH231654   3.998   3.199  13.355 -0.1216  0.1457  0.4040
 3388TIP3    H131655   4.085   3.164  13.335 -0.5951  0.3464 -2.4226
 3388TIP3    H231656   4.014   3.272  13.415  1.7729  0.7635 -0.7765
 3389TIP3   OH231657   0.905   0.722   1.195 -0.3160 -0.1404  0.0169
 3389TIP3    H131658   0.857   0.805   1.190 -0.3739 -0.1089  0.9314
 3389TIP3    H231659   0.974   0.738   1.260 -0.1493 -0.7234 -0.0132
 3390TIP3   OH231660   0.238   1.061   3.334 -0.0046  0.3007 -0.2676
 3390TIP3    H131661   0.158   1.106   3.363 -1.3389 -1.4270 -1.0786
 3390TIP3    H231662   0.222   1.040   3.242  0.0052 -2.8180  0.3412
 3391TIP3   OH231663   3.914   2.488   4.784 -0.2814  0.0333  0.0802
 3391TIP3    H131664   3.886   2.488   4.692  0.6635  0.0148 -0.2209
 3391TIP3    H231665   3.943   2.398   4.800  1.8728  0.5863 -0.3713
 3392TIP3   OH231666   1.590   0.294  15.499 -0.2307  0.4438  0.0085
 3392TIP3    H131667   1.564   0.202  15.500  0.2321  0.2391 -2.0493
 3392TIP3    H231668   1.686   0.292  15.491 -0.2806  1.0688 -0.9624
 3393TIP3   OH231669   4.908   5.165  10.603  0.1119 -0.3563 -0.6204
 3393TIP3    H131670   4.851   5.125  10.537 -0.3877 -1.1996  0.3037
 3393TIP3    H231671   4.895   5.112  10.682  2.9562 -1.2383 -0.6322
 3394TIP3   OH231672   0.529   1.938   6.200  0.2557 -0.1630 -0.3626
 3394TIP3    H131673   0.608   1.938   6.254  0.1133  1.2887 -0.0949
 3394TIP3    H231674   0.466   1.989   6.250 -0.6851 -0.8382 -0.8236
 3395TIP3   OH231675   6.828   1.274   0.945 -0.2063 -0.5767 -0.0036
 3395TIP3    H131676   6.877   1.193   0.933 -0.7023 -0.8931  0.0696
 3395TIP3    H231677   6.736   1.248   0.938 -0.3659  0.0157 -0.1924
 3396TIP3   OH231678   6.244   1.137  15.346  0.1227  0.3384  0.2587
 3396TIP3    H131679   6.278   1.203  15.407 -0.7233  1.5945 -0.5843
 3396TIP3    H231680   6.149   1.143  15.355  0.0226 -0.5365 -0.1054
 3397TIP3   OH231681   0.810   0.038  13.128  0.3673 -0.5380 -0.2598
 3397TIP3    H131682   0.721   0.028  13.160  0.8354 -2.0347  0.6972
 3397TIP3    H231683   0.863   0.052  13.206  1.1879 -1.4363 -0.6271
 3398TIP3   OH231684   3.715   3.158   1.004 -0.1728 -0.5082 -0.2857
 3398TIP3    H131685   3.741   3.138   0.914  0.3884  2.1018 -0.7883
 3398TIP3    H231686   3.623   3.184   0.997 -0.0211  0.0720 -0.1926
 3399TIP3   OH231687   4.426   3.231  10.654  0.0161  0.4185 -0.2595
 3399TIP3    H131688   4.344   3.216  10.701 -0.4186 -0.0166 -1.1307
 3399TIP3    H231689   4.441   3.325  10.661  0.9240  0.1518  2.2875
 3400TIP3   OH231690   5.513   2.649   4.856  0.1005 -0.0441  0.0225
 3400TIP3    H131691   5.511   2.606   4.941  2.1794  0.0255  0.1512
 3400TIP3    H231692   5.556   2.586   4.798 -1.5927 -0.2414 -1.1059
 3401TIP3   OH231693   6.160   3.155  16.275 -0.0127  0.2782 -0.1333
 3401TIP3    H131694   6.082   3.178  16.324  0.1851  0.9771 -0.1304
 3401TIP3    H231695   6.233   3.173  16.335  0.3541  2.8182 -1.1916
 3402TIP3   OH231696   5.244   5.819  11.662  0.4012 -0.6536  0.3404
 3402TIP3    H131697   5.150   5.834  11.674  0.7141  0.8831  1.0752
 3402TIP3    H231698   5.257   5.728  11.689 -1.0067 -1.1952 -0.6731
 3403TIP3   OH231699   6.068   2.282   0.218 -0.4239 -0.0359  0.1664
 3403TIP3    H131700   6.048   2.371   0.188  0.1348 -0.3250 -1.1606
 3403TIP3    H231701   6.011   2.269   0.293 -1.7762  0.8388 -0.6519
 3404TIP3   OH231702   5.259   3.775   1.860  0.1571 -0.0230  0.7251
 3404TIP3    H131703   5.260   3.811   1.949 -1.5491  1.6887  0.1358
 3404TIP3    H231704   5.224   3.846   1.807  1.4410 -0.9029 -1.3903
 3405TIP3   OH231705   6.533   4.091  14.625 -0.6999  0.1695  0.0657
 3405TIP3    H131706   6.549   4.145  14.547 -1.8517 -0.6411 -0.7683
 3405TIP3    H231707   6.460   4.033  14.599  0.7185 -2.0526  0.7673
 3406TIP3   OH231708   4.222   0.913   5.602  0.0083 -0.3091 -0.0815
 3406TIP3    H131709   4.270   0.869   5.672  0.6399  2.3877  1.2995
 3406TIP3    H231710   4.200   0.843   5.540 -0.3290 -2.7727  2.6303
 3407TIP3   OH231711   5.135   5.230  15.556  0.4151  0.2384  0.1269
 3407TIP3    H131712   5.131   5.296  15.626 -1.6136  0.6048 -0.2813
 3407TIP3    H231713   5.212   5.256  15.505  0.0731  1.9062  0.3801
 3408TIP3   OH231714   5.058   0.522  12.652  0.0045 -0.1479 -0.0145
 3408TIP3    H131715   5.076   0.529  12.746  1.7016 -1.6451 -0.1745
 3408TIP3    H231716   5.121   0.581  12.611  0.9564 -1.3233 -0.3041
 3409TIP3   OH231717   5.049   0.011   2.161  0.5431  0.2267 -0.2015
 3409TIP3    H131718   4.970  -0.025   2.121  0.6229 -1.7110  1.2318
 3409TIP3    H231719   5.075   0.082   2.103 -0.4640 -1.1346 -2.4696
 3410TIP3   OH231720   2.101   6.650  13.178  0.0460  0.1370  0.2886
 3410TIP3    H131721   2.135   6.694  13.255 -0.1790 -0.6460  0.8471
 3410TIP3    H231722   2.166   6.667  13.110  1.3767 -0.9924  1.2187
 3411TIP3   OH231723   1.478   4.082  13.766 -0.2958 -0.5191  0.5724
 3411TIP3    H131724   1.569   4.092  13.795  0.0362 -2.8999  0.6014
 3411TIP3    H231725   1.427   4.076  13.847 -0.4735  0.5622  0.5563
 3412TIP3   OH231726   1.191   2.803   5.212 -0.6910 -0.3849 -0.0882
 3412TIP3    H131727   1.286   2.818   5.213 -0.9760  1.7883 -1.1835
 3412TIP3    H231728   1.182   2.712   5.240  1.7493 -0.8211 -0.4525
 3413TIP3   OH231729   2.676   2.360   2.939  0.0543  0.6530  0.0536
 3413TIP3    H131730   2.704   2.354   3.030  0.8123 -1.4212 -0.2609
 3413TIP3    H231731   2.646   2.271   2.917  0.0961  1.0485 -1.7754
 3414TIP3   OH231732   5.591   0.759   2.243 -0.4509 -0.9135 -0.3143
 3414TIP3    H131733   5.610   0.806   2.162  0.1937 -3.1417 -1.5404
 3414TIP3    H231734   5.507   0.716   2.227 -1.9473  1.1200  1.4600
 3415TIP3   OH231735   6.100   2.029   3.837 -0.3561 -0.4601 -0.1657
 3415TIP3    H131736   6.185   2.040   3.794 -0.1307 -0.6027  0.2455
 3415TIP3    H231737   6.086   1.935   3.840 -0.1014 -0.4795  0.5959
 3416TIP3   OH231738   4.763   2.441   3.813  0.0896 -0.3797  0.6898
 3416TIP3    H131739   4.672   2.469   3.816 -0.1115 -0.9905  0.4733
 3416TIP3    H231740   4.810   2.504   3.868 -0.5699 -0.4743  1.3795
 3417TIP3   OH231741   2.830   3.264  12.356 -0.2410  0.4107 -0.2905
 3417TIP3    H131742   2.855   3.185  12.405  0.3233  0.3972 -0.5937
 3417TIP3    H231743   2.847   3.242  12.265 -0.4087  0.7643 -0.4081
 3418TIP3   OH231744   2.673   0.852   2.823  0.6462 -0.3664  0.5877
 3418TIP3    H131745   2.723   0.770   2.820 -1.7899 -1.9976  1.2550
 3418TIP3    H231746   2.632   0.858   2.736 -0.1897 -0.5657  0.9586
 3419TIP3   OH231747   6.030   1.715   3.738  0.1884 -0.6133 -0.1879
 3419TIP3    H131748   6.079   1.668   3.671  1.9095 -0.3962  0.8695
 3419TIP3    H231749   5.954   1.659   3.755 -1.5070  0.2999 -3.7386
 3420TIP3   OH231750   6.689   0.123  15.510 -0.1377  0.2858  0.4976
 3420TIP3    H131751   6.597   0.099  15.495 -0.8878  2.3689  1.3149
 3420TIP3    H231752   6.731   0.113  15.425 -1.2042 -0.3425  0.0200
 3421TIP3   OH231753   0.971   4.961   0.691 -0.0774 -0.2663  0.5704
 3421TIP3    H131754   0.936   5.028   0.633  0.5179  0.4189  0.9813
 3421TIP3    H231755   0.991   4.887   0.634  0.1119  0.2444 -0.0352
 3422TIP3   OH231756   6.064   0.591  13.477  0.4125 -0.0823  0.3091
 3422TIP3    H131757   6.105   0.649  13.412  0.7397 -1.5529 -0.8536
 3422TIP3    H231758   5.976   0.575  13.443 -0.4459  1.3608  1.7122
 3423TIP3   OH231759   0.929   5.976  14.171 -0.6704 -0.0797  0.1258
 3423TIP3    H131760   0.868   6.008  14.238  0.2315 -1.7854  1.8228
 3423TIP3    H231761   0.893   5.892  14.144  1.6792 -1.9529  2.3825
 3424TIP3   OH231762   1.053   0.349  14.067 -0.7890 -0.0437  0.5456
 3424TIP3    H131763   1.004   0.431  14.071 -1.8335 -0.6581  0.8072
 3424TIP3    H231764   0.997   0.290  14.016  0.4874 -0.2554 -0.6941
 3425TIP3   OH231765   5.889   3.730   1.572 -0.1210 -0.0599  0.8523
 3425TIP3    H131766   5.881   3.745   1.666 -3.5356 -0.5980  0.7616
 3425TIP3    H231767   5.817   3.779   1.534  0.6104 -0.6530 -1.4182
 3426TIP3   OH231768   3.690   6.784  16.394  0.1625 -0.0172  0.7572
 3426TIP3    H131769   3.689   6.690  16.411 -0.0306 -0.4796 -1.4139
 3426TIP3    H231770   3.780   6.811  16.411  0.6004 -0.9251  0.0052
 3427TIP3   OH231771   6.329   1.880   3.041  0.5203  0.3014 -0.0695
 3427TIP3    H131772   6.281   1.921   2.969 -1.2770  0.2313  1.0171
 3427TIP3    H231773   6.334   1.787   3.018 -1.0239  0.0838  0.3514
 3428TIP3   OH231774   1.730   5.000  11.934  0.0956  0.3362  0.3650
 3428TIP3    H131775   1.802   5.028  11.991 -0.7401 -0.0102  1.6301
 3428TIP3    H231776   1.687   4.929  11.983 -1.0724  0.5068 -0.3804
 3429TIP3   OH231777   3.341   6.185   2.058  0.0566  0.7695  0.9603
 3429TIP3    H131778   3.337   6.260   1.999  0.4844 -0.2136 -0.3676
 3429TIP3    H231779   3.250   6.170   2.084 -0.3594  0.4008 -0.5721
 3430TIP3   OH231780   6.717   6.757   1.470 -0.1759  0.2520 -0.1181
 3430TIP3    H131781   6.654   6.825   1.492 -0.8753  0.1548 -1.6508
 3430TIP3    H231782   6.671   6.703   1.405  1.6380  0.4645 -1.6712
 3431TIP3   OH231783   1.702   4.875   3.697 -0.4551  0.0075  0.1992
 3431TIP3    H131784   1.649   4.830   3.631  0.1146 -0.9739  0.3900
 3431TIP3    H231785   1.791   4.870   3.664  0.1722 -2.3904  1.9808
 3432TIP3   OH231786   1.457   5.837  16.512 -0.1771 -0.2785  0.2519
 3432TIP3    H131787   1.524   5.778  16.476 -0.3876 -0.1492 -0.3707
 3432TIP3    H231788   1.395   5.779  16.556  0.1656 -0.4294  0.5385
 3433TIP3   OH231789   4.646   4.326   4.685 -0.1910 -0.1647 -0.3668
 3433TIP3    H131790   4.589   4.323   4.609 -0.2334 -2.7773 -0.3105
 3433TIP3    H231791   4.598   4.278   4.753  0.9239 -0.0632  0.5190
 3434TIP3   OH231792   4.434   4.726  10.526 -0.1008  0.0250 -0.0062
 3434TIP3    H131793   4.471   4.756  10.443 -0.0318 -0.7826 -0.2720
 3434TIP3    H231794   4.341   4.713  10.508 -0.5889  2.1225  0.6791
 3435TIP3   OH231795   4.520   4.866   4.716  0.6819 -0.5756  0.2549
 3435TIP3    H131796   4.575   4.874   4.639  2.7018  0.3150  1.6934
 3435TIP3    H231797   4.442   4.819   4.686  1.9998 -1.4633 -1.9967
 3436TIP3   OH231798   6.050   5.020   6.192 -0.2965 -0.0660  0.1711
 3436TIP3    H131799   6.056   5.115   6.199  0.5483 -0.0425 -0.6623
 3436TIP3    H231800   5.956   5.001   6.202 -0.3946  0.7825  0.9984
 3437TIP3   OH231801   4.572   5.284   0.974 -0.2766  0.3246 -0.2773
 3437TIP3    H131802   4.590   5.302   0.882  0.5765  1.0796  0.0199
 3437TIP3    H231803   4.514   5.355   1.001  0.8814  1.1226  0.1966
 3438TIP3   OH231804   1.017   0.281   0.156  0.5173  0.2973 -0.7318
 3438TIP3    H131805   1.065   0.288   0.073 -0.2105  0.2967 -1.1600
 3438TIP3    H231806   0.939   0.335   0.143  0.2285  0.0223 -0.1618
 3439TIP3   OH231807   1.095   5.029   1.689 -0.4448  0.3964 -0.5730
 3439TIP3    H131808   1.081   5.034   1.784  0.0650  1.2689 -0.5286
 3439TIP3    H231809   1.127   4.941   1.674 -1.2707 -0.0056 -0.0350
 3440TIP3   OH231810   1.953   5.352   6.130 -0.0761 -0.2343  0.4435
 3440TIP3    H131811   1.904   5.367   6.049  0.9386  2.0655  0.1803
 3440TIP3    H231812   2.044   5.343   6.101  0.0372 -1.8672  1.1630
 3441TIP3   OH231813   5.449   4.105   5.560  0.1467  0.2240  0.1870
 3441TIP3    H131814   5.482   4.115   5.471 -0.6490 -0.4447 -0.1919
 3441TIP3    H231815   5.525   4.077   5.611  0.3063 -0.7243 -0.5528
 3442TIP3   OH231816   2.901   2.186  15.733 -0.0716  0.3318 -0.5153
 3442TIP3    H131817   2.982   2.136  15.745  0.1929  0.9963  0.6957
 3442TIP3    H231818   2.888   2.231  15.817 -1.1675  1.0113 -1.0225
 3443TIP3   OH231819   1.971   2.056   1.199  0.2665 -0.0816  0.2355
 3443TIP3    H131820   2.009   2.102   1.124 -0.5293 -1.1563 -0.8684
 3443TIP3    H231821   2.043   2.046   1.260  0.9554  0.7652 -0.4135
 3444TIP3   OH231822   2.319   2.680   0.044 -0.1181 -0.1018  0.1895
 3444TIP3    H131823   2.316   2.596  -0.002  0.6998 -0.0558  0.0378
 3444TIP3    H231824   2.409   2.710   0.034 -1.1484  2.5977 -3.0627
 3445TIP3   OH231825   4.752   1.902   4.769 -0.0458  0.2526 -0.6814
 3445TIP3    H131826   4.684   1.843   4.802  1.5868 -0.8034  0.9923
 3445TIP3    H231827   4.802   1.927   4.847  0.7587  1.9552 -1.7020
 3446TIP3   OH231828   2.915   6.397   3.667  0.2965  0.8207 -0.2354
 3446TIP3    H131829   2.848   6.331   3.683 -0.0743  0.9813 -1.0704
 3446TIP3    H231830   2.961   6.406   3.751  0.4034 -0.5469 -0.1190
 3447TIP3   OH231831   6.201   3.188  13.616 -0.1863  0.6937 -0.0646
 3447TIP3    H131832   6.288   3.189  13.654 -0.7425  0.8793  1.2359
 3447TIP3    H231833   6.196   3.267  13.563  1.4592 -0.7637 -2.6321
 3448TIP3   OH231834   1.333   5.781  11.640 -0.5457 -0.0710  0.1450
 3448TIP3    H131835   1.366   5.726  11.711 -1.2535 -1.2450 -0.4021
 3448TIP3    H231836   1.250   5.740  11.615 -0.0304 -0.0392 -1.7535
 3449TIP3   OH231837   0.009   3.375  12.321  0.3556  0.3871  0.1935
 3449TIP3    H131838   0.048   3.407  12.403 -1.0827  0.0938  1.0259
 3449TIP3    H231839   0.075   3.394  12.255  1.0228  1.8408  1.2029
 3450TIP3   OH231840   0.889   0.154   5.704  0.0047  0.0852 -0.7117
 3450TIP3    H131841   0.973   0.108   5.703  1.6032  2.6373  1.2690
 3450TIP3    H231842   0.912   0.245   5.682 -2.3949  0.6888 -0.9760
 3451TIP3   OH231843   6.272   5.180   0.595  0.0777 -0.0773  0.3917
 3451TIP3    H131844   6.286   5.273   0.614  0.9647 -0.2129  0.4604
 3451TIP3    H231845   6.287   5.137   0.679  0.5478 -0.3578  0.1684
 3452TIP3   OH231846   3.275   6.405  15.184 -0.8951 -0.3017  0.7084
 3452TIP3    H131847   3.214   6.471  15.215 -1.2226 -0.8936  1.3291
 3452TIP3    H231848   3.243   6.322  15.220  1.3420 -0.3985  2.6899
 3453TIP3   OH231849   0.715   3.302   3.665  0.3521 -0.3508 -0.8722
 3453TIP3    H131850   0.736   3.209   3.660  0.6100 -0.2752 -1.2886
 3453TIP3    H231851   0.701   3.319   3.758  0.0443 -0.8603 -0.8188
 3454TIP3   OH231852   5.183   2.709   1.047 -0.3499  0.1343 -0.1277
 3454TIP3    H131853   5.168   2.637   1.109  0.6439 -0.7686 -0.8836
 3454TIP3    H231854   5.098   2.752   1.040 -0.6289 -0.1105  1.3925
 3455TIP3   OH231855   1.523   3.500   5.435  0.3726  0.2856  0.0297
 3455TIP3    H131856   1.578   3.478   5.360  2.0061  0.3915  1.1438
 3455TIP3    H231857   1.528   3.423   5.491  0.2134  0.6892  0.6079
 3456TIP3   OH231858   4.982   4.466  13.232 -0.2942 -0.5851 -0.0063
 3456TIP3    H131859   5.026   4.473  13.317  0.2419 -0.5861 -0.2766
 3456TIP3    H231860   4.906   4.523  13.239 -0.3144 -0.6732  0.5148
 3457TIP3   OH231861   2.499   0.160  12.073  0.0968  0.0261  0.4813
 3457TIP3    H131862   2.491   0.069  12.044  1.3738  0.5565 -1.6927
 3457TIP3    H231863   2.588   0.185  12.051 -0.3176  1.9069  0.7728
 3458TIP3   OH231864   4.369   3.192   2.098  0.1036 -0.1236 -0.0248
 3458TIP3    H131865   4.289   3.244   2.098 -0.1408 -0.4912  0.1398
 3458TIP3    H231866   4.384   3.171   2.190  0.4230 -0.0056 -0.0500
 3459TIP3   OH231867   4.952   5.539  14.699  0.0561 -0.0784 -0.3675
 3459TIP3    H131868   4.903   5.477  14.645 -2.0212  0.2525  1.0020
 3459TIP3    H231869   5.026   5.489  14.732  2.8446  0.2469 -5.1265
 3460TIP3   OH231870   5.799   4.723   1.265  0.2457 -0.3455  0.0047
 3460TIP3    H131871   5.826   4.773   1.342 -2.3648 -0.4999  1.1335
 3460TIP3    H231872   5.864   4.653   1.258  2.0831  1.2389  0.3653
 3461TIP3   OH231873   3.300   4.943  11.269 -0.0316  0.3380 -0.2264
 3461TIP3    H131874   3.206   4.944  11.252 -0.0012 -0.6380 -0.5836
 3461TIP3    H231875   3.337   4.998  11.200 -0.3770  1.1642  0.2406
 3462TIP3   OH231876   4.153   1.797  14.202 -0.0679 -0.0769 -0.0529
 3462TIP3    H131877   4.222   1.731  14.206  0.0433  0.0785  1.0209
 3462TIP3    H231878   4.096   1.776  14.276  0.1114  1.1838  0.4666
 3463TIP3   OH231879   5.482   0.050   2.852  0.0807  0.4061  0.1190
 3463TIP3    H131880   5.537  -0.027   2.841  0.7017  1.1260 -2.8217
 3463TIP3    H231881   5.506   0.085   2.938  1.5477 -1.3296  0.4757
 3464TIP3   OH231882   0.578   0.968  13.223 -0.1707  0.4106  0.1512
 3464TIP3    H131883   0.599   1.057  13.195  0.3388  0.6120  1.1385
 3464TIP3    H231884   0.637   0.951  13.296 -0.1220 -0.8189 -0.1505
 3465TIP3   OH231885   4.892   0.454  16.589  0.0989  0.5441  0.3752
 3465TIP3    H131886   4.899   0.442  16.495 -1.3924 -1.7563  0.4793
 3465TIP3    H231887   4.816   0.511  16.601  0.4976  1.1185  0.1916
 3466TIP3   OH231888   4.443   5.988  15.826 -0.4225 -0.1344  0.4089
 3466TIP3    H131889   4.463   6.077  15.855 -1.0471 -0.3896  1.7264
 3466TIP3    H231890   4.368   5.963  15.880 -1.3860 -0.8185 -1.1896
 3467TIP3   OH231891   6.217   3.588   4.734  0.2471 -0.0481 -0.3157
 3467TIP3    H131892   6.221   3.589   4.830  0.0687  1.9916 -0.2763
 3467TIP3    H231893   6.291   3.643   4.707  0.2195 -0.4955 -1.3601
 3468TIP3   OH231894   4.202   4.671   4.803  0.0143  0.1061  0.1579
 3468TIP3    H131895   4.150   4.591   4.794 -1.4826  0.8652  1.5368
 3468TIP3    H231896   4.276   4.645   4.857  0.7333 -0.8267 -1.2222
 3469TIP3   OH231897   3.317   2.642  13.756 -0.4133 -1.0349 -0.1871
 3469TIP3    H131898   3.371   2.564  13.773 -0.4252 -1.1105 -0.4923
 3469TIP3    H231899   3.256   2.614  13.688  0.5345 -0.3268 -1.3654
 3470TIP3   OH231900   0.437   4.421  13.768 -0.1314  0.0151 -0.9179
 3470TIP3    H131901   0.470   4.335  13.741 -0.0198  0.5461 -2.6273
 3470TIP3    H231902   0.491   4.445  13.843  0.9959 -0.6786 -1.4734
 3471TIP3   OH231903   4.763   3.136  17.159  0.7005 -0.6705  0.8474
 3471TIP3    H131904   4.677   3.155  17.195  0.6307 -1.7913  1.3048
 3471TIP3    H231905   4.774   3.041  17.171  0.9812 -0.9765 -1.4064
 3472TIP3   OH231906   1.992   0.017  15.153 -0.0001  0.4936 -0.0240
 3472TIP3    H131907   2.029   0.105  15.152  1.1764  0.0261  0.6587
 3472TIP3    H231908   2.009  -0.016  15.241  1.4171 -1.1411 -0.8288
 3473TIP3   OH231909   2.854   6.122  12.774 -0.5879  0.5721 -0.0276
 3473TIP3    H131910   2.766   6.145  12.747 -0.9486 -1.3056 -0.5947
 3473TIP3    H231911   2.843   6.077  12.858 -0.2835 -0.3903 -0.4838
 3474TIP3   OH231912   5.563   2.533  17.129 -0.5387  0.3649 -0.4102
 3474TIP3    H131913   5.579   2.623  17.101 -1.4955  0.5823 -0.3192
 3474TIP3    H231914   5.542   2.486  17.048  1.0649 -0.0642 -0.6160
 3475TIP3   OH231915   3.918   3.487   3.846 -0.0129  0.7251 -0.0197
 3475TIP3    H131916   3.957   3.421   3.904  0.8647  1.3225  0.0863
 3475TIP3    H231917   3.964   3.568   3.867 -0.1794  1.1042 -1.0587
 3476TIP3   OH231918   4.298   1.723  14.484 -0.0108  0.1305  0.3595
 3476TIP3    H131919   4.298   1.665  14.561 -0.1026 -1.2069 -0.6202
 3476TIP3    H231920   4.205   1.740  14.468 -0.1303 -1.4063 -0.7536
 3477TIP3   OH231921   1.966   1.167  11.276 -0.5818  0.3033 -0.0536
 3477TIP3    H131922   1.874   1.152  11.299 -0.2097 -1.1120  0.5987
 3477TIP3    H231923   2.015   1.139  11.353  0.3973  1.3143 -0.2844
 3478TIP3   OH231924   5.519   4.977   4.595 -0.1013  0.0882 -0.2843
 3478TIP3    H131925   5.518   4.892   4.551  2.7573  0.3559 -1.0346
 3478TIP3    H231926   5.588   4.969   4.661 -1.5659  1.0448  1.4771
 3479TIP3   OH231927   2.024   3.259  17.068  0.2698 -0.4481 -0.5655
 3479TIP3    H131928   2.057   3.173  17.041 -0.1093 -0.0386 -2.4726
 3479TIP3    H231929   2.077   3.282  17.144  1.8869 -1.4211 -1.3349
 3480TIP3   OH231930   2.630   4.471   0.038 -0.3391  0.5774 -0.3215
 3480TIP3    H131931   2.682   4.459   0.118  2.9356  1.0896 -2.1902
 3480TIP3    H231932   2.612   4.381   0.009 -1.8919  0.3811  1.1116
 3481TIP3   OH231933   1.428   3.091   0.750 -1.0508  0.0416 -0.1362
 3481TIP3    H131934   1.501   3.126   0.698 -1.9562 -1.4707 -2.6144
 3481TIP3    H231935   1.376   3.168   0.773  0.5245  0.9774  0.4109
 3482TIP3   OH231936   0.640   5.632   0.206 -0.1356 -0.2592 -0.0265
 3482TIP3    H131937   0.584   5.590   0.141  0.6843  0.5743 -1.3053
 3482TIP3    H231938   0.690   5.560   0.245  0.3863 -0.6335 -1.3377
 3483TIP3   OH231939   5.679   0.320   6.177 -0.0212 -0.0033  0.0263
 3483TIP3    H131940   5.710   0.361   6.097 -1.3255  0.7691 -0.1122
 3483TIP3    H231941   5.633   0.241   6.148  1.4153 -0.9330  0.2014
 3484TIP3   OH231942   0.725   2.747   3.176 -0.3308  0.5240  0.0696
 3484TIP3    H131943   0.664   2.813   3.210  0.1062  1.0768 -0.1901
 3484TIP3    H231944   0.674   2.695   3.114  0.0525  2.6762 -2.2330
 3485TIP3   OH231945   0.562   0.958   2.846  0.5108  0.4328  0.0944
 3485TIP3    H131946   0.531   1.048   2.836 -0.4996  0.0089 -0.8266
 3485TIP3    H231947   0.636   0.951   2.786  0.7648  0.7323  0.3741
 3486TIP3   OH231948   3.253   6.482   5.615  0.1130 -0.3568  0.2581
 3486TIP3    H131949   3.210   6.453   5.695  0.0895  0.3577  0.5073
 3486TIP3    H231950   3.195   6.453   5.545 -0.4241 -0.0200  0.5570
 3487TIP3   OH231951   6.116   4.790  14.465  0.1614  0.0676 -0.7267
 3487TIP3    H131952   6.089   4.881  14.460  0.7950  0.4249  1.4238
 3487TIP3    H231953   6.210   4.793  14.485  0.3921 -1.0682 -1.5356
 3488TIP3   OH231954   2.217   4.519  13.848 -0.5498  0.8600 -0.2491
 3488TIP3    H131955   2.201   4.478  13.933  2.2335  0.5588  0.2246
 3488TIP3    H231956   2.181   4.457  13.784  1.3295 -1.2188  0.5669
 3489TIP3   OH231957   3.686   6.087  15.463 -0.5200  0.2360  0.4679
 3489TIP3    H131958   3.721   6.018  15.405  2.2995  0.7837  1.3888
 3489TIP3    H231959   3.635   6.039  15.528 -1.7944 -0.5904 -1.0523
 3490TIP3   OH231960   2.372   1.718   5.451  0.2929 -0.1234 -0.2054
 3490TIP3    H131961   2.368   1.640   5.395  0.2147 -0.7304  0.6333
 3490TIP3    H231962   2.291   1.714   5.503 -0.6805  1.5414 -1.4689
 3491TIP3   OH231963   6.235   4.250   2.941  0.1398  0.1961 -0.3206
 3491TIP3    H131964   6.227   4.313   2.870  0.8375  0.3995 -0.2205
 3491TIP3    H231965   6.159   4.192   2.929  0.3708  0.0824 -1.3695
 3492TIP3   OH231966   4.599   0.537   0.676 -0.0569  0.3619 -0.4571
 3492TIP3    H131967   4.560   0.451   0.660 -0.2494  0.0514  1.4377
 3492TIP3    H231968   4.691   0.519   0.693  0.0748  0.6330 -0.8756
 3493TIP3   OH231969   2.342   2.111   1.675 -0.2028  0.1674 -0.4073
 3493TIP3    H131970   2.349   2.061   1.756  1.0829 -1.0153 -1.1885
 3493TIP3    H231971   2.255   2.149   1.677 -1.5346 -2.6665 -0.0243
 3494TIP3   OH231972   2.051   4.667  13.695  0.7707 -0.2326 -0.1854
 3494TIP3    H131973   1.994   4.718  13.751 -1.0216 -1.4403 -0.8244
 3494TIP3    H231974   2.095   4.605  13.754 -1.3175 -1.6955 -0.0473
 3495TIP3   OH231975   2.451   3.539  11.722 -0.7127  0.3898  0.4785
 3495TIP3    H131976   2.511   3.598  11.767  0.1846  0.5595 -0.8739
 3495TIP3    H231977   2.391   3.598  11.675 -1.3642  0.2134  1.0616
 3496TIP3   OH231978   0.023   0.800  16.891  0.3024  0.0565 -0.2007
 3496TIP3    H131979   0.112   0.835  16.884 -0.1741  1.0422 -1.7799
 3496TIP3    H231980   0.025   0.747  16.971  2.2643  0.1501 -0.1252
 3497TIP3   OH231981   5.570   0.138  15.773 -0.1887  0.2463  0.6043
 3497TIP3    H131982   5.506   0.172  15.836 -2.9098 -0.8563 -1.3833
 3497TIP3    H231983   5.541   0.173  15.689  1.0452 -1.3495 -0.5393
 3498TIP3   OH231984   2.117   4.658   0.387 -0.1027 -0.4495  0.1730
 3498TIP3    H131985   2.155   4.690   0.305 -1.4039 -2.2933 -1.2334
 3498TIP3    H231986   2.125   4.732   0.448  0.2642  1.2224 -1.8034
 3499TIP3   OH231987   4.846   2.445   1.145  0.1036  0.0636 -0.2751
 3499TIP3    H131988   4.778   2.464   1.081 -1.0297 -0.8008  0.6455
 3499TIP3    H231989   4.868   2.353   1.130  0.9365  0.2732 -0.4178
 3500TIP3   OH231990   1.108   2.658  15.590 -0.5502  0.2704  0.4300
 3500TIP3    H131991   1.180   2.618  15.541 -1.1923 -1.1868  0.6036
 3500TIP3    H231992   1.034   2.598  15.577 -1.3752  1.0667  1.2797
 3501TIP3   OH231993   4.263   4.819   1.278  0.0036 -0.3373  0.2144
 3501TIP3    H131994   4.296   4.852   1.362 -1.7076  2.9817 -0.2367
 3501TIP3    H231995   4.227   4.733   1.298  0.6754 -0.1197  2.6233
 3502TIP3   OH231996   5.575   4.857   2.983 -0.3001  0.1736 -0.0392
 3502TIP3    H131997   5.651   4.833   3.035 -1.1229 -0.8729  0.7369
 3502TIP3    H231998   5.515   4.898   3.045 -0.5320  0.6124 -0.5504
 3503TIP3   OH231999   0.814   6.400   4.376 -0.2156  0.0378  0.3136
 3503TIP3    H132000   0.735   6.451   4.359 -0.4577 -0.2325  0.6164
 3503TIP3    H232001   0.818   6.391   4.471 -0.0542 -0.3074  0.2781
 3504TIP3   OH232002   1.843   4.968   4.711 -0.7372 -0.1142 -0.0254
 3504TIP3    H132003   1.779   5.009   4.769 -0.0476  0.8112  0.0965
 3504TIP3    H232004   1.879   4.896   4.763 -0.6305  0.2723  0.4458
 3505TIP3   OH232005   0.395   0.379   2.143  0.1178 -0.3928  0.1209
 3505TIP3    H132006   0.461   0.433   2.185  0.6871 -1.0699  0.1155
 3505TIP3    H232007   0.313   0.426   2.157  0.7334  1.0157 -0.8253
 3506TIP3   OH232008   5.555   3.273  11.435 -0.4588 -0.0909 -0.2945
 3506TIP3    H132009   5.509   3.349  11.399 -0.3278 -0.5120 -1.3823
 3506TIP3    H232010   5.592   3.229  11.359 -2.8298 -2.7926 -0.0674
 3507TIP3   OH232011   0.013   5.997  12.546  1.0461  0.4919  0.2276
 3507TIP3    H132012   0.045   6.006  12.636  1.6473 -1.7103  0.2790
 3507TIP3    H232013  -0.077   5.965  12.555  1.1282  0.2064  0.0538
 3508TIP3   OH232014   2.477   4.191   0.161  0.2372  0.5651  0.4522
 3508TIP3    H132015   2.535   4.191   0.085  1.1065 -0.8852  1.0827
 3508TIP3    H232016   2.419   4.117   0.148  0.4986  0.2009  1.2551
 3509TIP3   OH232017   6.517   1.422  15.874  0.0063 -0.3616  0.3791
 3509TIP3    H132018   6.567   1.443  15.795  3.3900 -0.6401  2.2445
 3509TIP3    H232019   6.503   1.327  15.869 -0.2014 -0.3043 -0.1067
 3510TIP3   OH232020   5.541   4.760  12.768  0.1783 -0.0949 -0.1583
 3510TIP3    H132021   5.598   4.797  12.835 -1.2482  1.8380  0.0758
 3510TIP3    H232022   5.453   4.790  12.792 -0.5057 -0.1552 -2.3407
 3511TIP3   OH232023   2.396   3.062   2.079  0.2404 -0.0658  0.3152
 3511TIP3    H132024   2.365   2.996   2.140  0.2173  0.8225  1.3012
 3511TIP3    H232025   2.489   3.072   2.099 -0.2309  1.9047  1.9085
 3512TIP3   OH232026   2.534   5.208  10.931 -0.5568 -0.1370  0.0719
 3512TIP3    H132027   2.545   5.157  10.851 -2.4949  1.9202 -1.6647
 3512TIP3    H232028   2.623   5.237  10.953  0.0870 -1.1926 -1.0098
 3513TIP3   OH232029   4.146   2.374   4.212  0.0498  0.0724  0.4262
 3513TIP3    H132030   4.143   2.298   4.155 -0.8266  1.1960 -1.1032
 3513TIP3    H232031   4.078   2.358   4.277  0.3764 -0.7707  0.5687
 3514TIP3   OH232032   5.405   6.330  13.063 -0.1921 -0.2667 -0.1090
 3514TIP3    H132033   5.315   6.298  13.057 -1.0432  0.1212  5.2440
 3514TIP3    H232034   5.455   6.255  13.094 -0.0731  0.8352  2.6551
 3515TIP3   OH232035   6.248   1.237  13.154  0.7693  0.6026 -0.2088
 3515TIP3    H132036   6.234   1.158  13.103 -0.2669  0.5290  0.1685
 3515TIP3    H232037   6.285   1.300  13.092  2.0948 -0.3267 -0.3875
 3516TIP3   OH232038   1.796   4.532  16.224 -0.5705  0.4069 -0.1950
 3516TIP3    H132039   1.838   4.542  16.139  0.6895 -1.6022  0.1303
 3516TIP3    H232040   1.868   4.535  16.287 -1.1888 -0.5265  0.5817
 3517TIP3   OH232041   4.411   6.443  16.907 -0.3928 -0.0666 -0.0509
 3517TIP3    H132042   4.421   6.358  16.949 -1.2798 -1.4566 -2.4441
 3517TIP3    H232043   4.471   6.440  16.833 -0.5724  1.3255 -0.2737
 3518TIP3   OH232044   2.852   6.078   2.921 -0.3214  0.1956 -0.1622
 3518TIP3    H132045   2.862   6.174   2.920 -0.5733  0.2728  1.7294
 3518TIP3    H232046   2.777   6.062   2.864 -0.3077  1.1269 -0.4681
 3519TIP3   OH232047   0.191   1.306   3.211 -0.2647  0.1199 -0.4304
 3519TIP3    H132048   0.125   1.262   3.158 -2.0959  4.1064 -1.9049
 3519TIP3    H232049   0.270   1.305   3.157 -0.6061 -0.3154 -0.9357
 3520TIP3   OH232050   3.078   0.621   5.080  0.5332 -0.5627 -0.1011
 3520TIP3    H132051   3.018   0.677   5.131  1.6890  0.4609  0.1901
 3520TIP3    H232052   3.028   0.541   5.063 -0.3879 -0.3445  1.4089
 3521TIP3   OH232053   2.347   0.010   0.512 -0.1760  0.3482 -0.2531
 3521TIP3    H132054   2.407  -0.004   0.584 -0.7169  0.3769  0.2114
 3521TIP3    H232055   2.261   0.023   0.553 -0.5745 -0.0942 -0.9118
 3522TIP3   OH232056   0.855   0.416   4.687 -0.5031  0.9442 -0.3664
 3522TIP3    H132057   0.791   0.400   4.756  0.2643  2.8907  0.8621
 3522TIP3    H232058   0.807   0.400   4.606 -1.0377 -2.8760  0.5084
 3523TIP3   OH232059   0.252   5.216   3.229  0.4257  0.3794  0.0318
 3523TIP3    H132060   0.293   5.209   3.143  1.5922 -0.4733  0.6368
 3523TIP3    H232061   0.282   5.139   3.277  2.7662  2.5985  2.4472
 3524TIP3   OH232062   6.003   1.678  12.840  0.6623 -0.1202 -0.4466
 3524TIP3    H132063   5.933   1.727  12.883  1.0848 -0.8224  1.0907
 3524TIP3    H232064   6.037   1.739  12.774 -0.2025  0.8736 -0.0064
 3525TIP3   OH232065   6.357   2.610  10.620 -0.3846  0.5062 -0.0243
 3525TIP3    H132066   6.393   2.560  10.694 -1.3958 -0.6265 -0.2634
 3525TIP3    H232067   6.427   2.671  10.596 -0.1047  1.0609  2.0067
 3526TIP3   OH232068   2.912   4.308   1.374 -0.1163  0.4292  0.4279
 3526TIP3    H132069   2.882   4.398   1.358  0.2529  0.6000  0.6608
 3526TIP3    H232070   2.851   4.253   1.326  0.3646  0.8657 -0.7104
 3527TIP3   OH232071   1.256   1.592   4.966 -0.4144 -0.1316  0.2037
 3527TIP3    H132072   1.272   1.573   4.873 -3.6300  0.9283 -0.7032
 3527TIP3    H232073   1.266   1.507   5.009  1.7370 -0.5379 -0.9508
 3528TIP3   OH232074   2.011   2.727  14.740  0.1872  0.2058 -0.3672
 3528TIP3    H132075   2.048   2.815  14.739 -0.6625  0.5780 -1.7245
 3528TIP3    H232076   1.916   2.741  14.745  0.0803 -0.6741  0.5173
 3529TIP3   OH232077   5.901   6.708  11.704 -0.4349 -0.2979  0.0214
 3529TIP3    H132078   5.865   6.636  11.756  0.6291  0.0620  1.2895
 3529TIP3    H232079   5.922   6.668  11.619 -1.5708 -1.0415  0.0700
 3530TIP3   OH232080   0.316   1.230   3.518 -0.5314  0.3203 -0.0344
 3530TIP3    H132081   0.286   1.163   3.456 -0.3410  0.7939 -0.6530
 3530TIP3    H232082   0.239   1.247   3.573 -0.5759 -0.4098  0.1438
 3531TIP3   OH232083   1.633   3.042   2.699 -0.2142  0.2445 -0.1731
 3531TIP3    H132084   1.625   2.963   2.645  0.5984  1.1250 -1.6585
 3531TIP3    H232085   1.725   3.044   2.724 -0.7229 -0.5398  1.9355
 3532TIP3   OH232086   1.987   5.590  13.251 -0.3093  0.2161  0.2167
 3532TIP3    H132087   1.953   5.565  13.165  1.2359 -1.2304 -0.0293
 3532TIP3    H232088   1.923   5.558  13.313  0.5864 -2.6816 -0.2154
 3533TIP3   OH232089   5.795   2.000   2.158 -0.0692  0.0537  0.3366
 3533TIP3    H132090   5.766   1.910   2.145 -1.6732  0.6774 -0.6801
 3533TIP3    H232091   5.749   2.050   2.091  3.6041  1.1388 -1.6658
 3534TIP3   OH232092   0.080   3.176   5.785 -0.3801 -0.0485  0.2766
 3534TIP3    H132093   0.164   3.201   5.822 -0.8234 -0.1534  1.4094
 3534TIP3    H232094   0.074   3.225   5.703  0.2952  0.8306  0.7337
 3535TIP3   OH232095   4.075   4.142   0.472 -0.0874  0.5263  0.2582
 3535TIP3    H132096   4.135   4.115   0.403  0.1999 -0.7865  0.9836
 3535TIP3    H232097   3.991   4.105   0.445  0.4973 -2.0974  1.7269
 3536TIP3   OH232098   2.773   3.701   4.291  0.4860 -0.6402  0.2981
 3536TIP3    H132099   2.794   3.729   4.202 -0.5045  1.3354  0.6254
 3536TIP3    H232100   2.814   3.615   4.300  4.2767  0.8684 -0.6146
 3537TIP3   OH232101   5.099   2.472  14.022  0.4123 -0.5354  0.1692
 3537TIP3    H132102   5.162   2.525  13.973  1.2814 -2.7466 -1.2681
 3537TIP3    H232103   5.023   2.530  14.035  2.8501  2.4814  2.5703
 3538TIP3   OH232104   6.709   5.137  10.298 -0.3687 -0.5917 -0.7608
 3538TIP3    H132105   6.785   5.144  10.239  2.1209  0.3332  2.2844
 3538TIP3    H232106   6.723   5.207  10.362 -2.9541 -1.4855  0.8949
 3539TIP3   OH232107   1.505   3.802   5.248  0.2184 -0.5496 -0.4530
 3539TIP3    H132108   1.506   3.714   5.286  1.0549 -1.1311 -1.7638
 3539TIP3    H232109   1.589   3.809   5.202 -0.0379  0.7726 -0.7496
 3540TIP3   OH232110   6.236   0.861  14.501  0.2280 -0.0951  0.0345
 3540TIP3    H132111   6.155   0.877  14.549 -0.0395 -0.1228 -0.4084
 3540TIP3    H232112   6.214   0.794  14.437  0.4608  0.2805 -0.4481
 3541TIP3   OH232113   6.112   4.917  11.171 -0.7178  0.0808 -0.1376
 3541TIP3    H132114   6.091   4.939  11.080 -0.5901 -4.0430 -1.3414
 3541TIP3    H232115   6.204   4.944  11.181 -1.2693  2.3051 -0.4945
 3542TIP3   OH232116   1.200   3.284   3.596 -0.2941  0.1533  0.1183
 3542TIP3    H132117   1.135   3.327   3.652  0.9986  1.5386  0.6276
 3542TIP3    H232118   1.202   3.193   3.628 -3.5428 -0.6106 -1.3991
 3543TIP3   OH232119   1.234   2.519  16.986 -0.0666  0.1165  0.3915
 3543TIP3    H132120   1.259   2.612  16.986 -2.2774  0.7686  1.0268
 3543TIP3    H232121   1.153   2.516  16.934 -0.9578 -1.1499  1.7759
 3544TIP3   OH232122   2.223   4.960  10.748  0.1845  0.0714 -0.3266
 3544TIP3    H132123   2.249   5.008  10.669  0.5417 -0.3976 -0.5054
 3544TIP3    H232124   2.156   4.898  10.717 -0.1277  0.3176 -0.1404
 3545TIP3   OH232125   4.051   3.936  10.872  0.3290  0.9621  0.3947
 3545TIP3    H132126   4.053   4.032  10.867 -0.2916  0.9823  0.3683
 3545TIP3    H232127   3.986   3.911  10.806  0.9560  0.4847 -0.0508
 3546TIP3   OH232128   5.717   5.358   0.386 -0.8643  0.1534 -0.1757
 3546TIP3    H132129   5.696   5.347   0.293 -0.7703 -0.8998 -0.0856
 3546TIP3    H232130   5.813   5.361   0.389 -0.8455 -0.4147 -0.0618
 3547TIP3   OH232131   1.827   4.629  11.400 -0.7625 -0.3290  0.1567
 3547TIP3    H132132   1.750   4.572  11.405 -0.3679 -1.1373 -1.8574
 3547TIP3    H232133   1.867   4.623  11.487 -1.0031 -2.7900  0.1697
 3548TIP3   OH232134   4.226   0.485  14.353  0.2582  0.5576 -0.0436
 3548TIP3    H132135   4.153   0.532  14.393 -0.1318  0.3825 -0.5328
 3548TIP3    H232136   4.293   0.482  14.421  0.7341  2.7749 -0.3274
 3549TIP3   OH232137   2.242   3.300  14.075  0.3752 -0.4115  0.4281
 3549TIP3    H132138   2.240   3.395  14.087 -0.7369 -0.3006 -0.4279
 3549TIP3    H232139   2.193   3.286  13.994  0.9432 -1.6802  0.2880
 3550TIP3   OH232140   2.645   5.564   1.003 -0.9431  0.1155  0.2525
 3550TIP3    H132141   2.696   5.645   0.992  0.1959 -0.2461  2.3195
 3550TIP3    H232142   2.587   5.562   0.927 -0.0900  2.1979 -0.5411
 3551TIP3   OH232143   6.143   1.472  16.862  0.6789 -0.4381 -1.2014
 3551TIP3    H132144   6.233   1.479  16.895  0.0769  0.4040  0.3857
 3551TIP3    H232145   6.090   1.455  16.940 -0.5654 -0.6699 -2.0725
 3552TIP3   OH232146   0.586   0.439   4.242 -0.0537  0.1078 -0.1884
 3552TIP3    H132147   0.507   0.438   4.188 -0.3647  0.1203  0.2635
 3552TIP3    H232148   0.647   0.495   4.194 -1.0892  1.9183  0.5178
 3553TIP3   OH232149   1.620   6.551  12.252  0.1436  0.6878 -0.2885
 3553TIP3    H132150   1.535   6.578  12.218 -0.1494  0.6791  0.4239
 3553TIP3    H232151   1.601   6.506  12.333  0.8174  0.4974 -0.2257
 3554TIP3   OH232152   2.374   3.574  11.028 -0.5348 -0.6751  0.4038
 3554TIP3    H132153   2.417   3.561  10.943 -0.9916 -1.1923  0.2410
 3554TIP3    H232154   2.356   3.668  11.032 -2.7172 -0.9230 -1.1952
 3555TIP3   OH232155   6.693   5.614  14.037  0.5919  0.2800  0.0377
 3555TIP3    H132156   6.622   5.677  14.031  0.7157  0.4647  0.4732
 3555TIP3    H232157   6.732   5.630  14.123 -0.5141 -1.5796  0.9743
 3556TIP3   OH232158   6.789   0.828  11.970 -0.1363 -0.1143 -0.0840
 3556TIP3    H132159   6.850   0.766  11.930 -0.7289 -1.2834  0.8157
 3556TIP3    H232160   6.760   0.882  11.896  0.8656 -0.4729 -0.7702
 3557TIP3   OH232161   0.947   3.362  12.436 -0.1439  0.5277 -0.5525
 3557TIP3    H132162   0.856   3.388  12.448 -0.1365  1.0380 -1.4984
 3557TIP3    H232163   0.992   3.395  12.514 -0.9633 -0.8165  0.5322
 3558TIP3   OH232164   6.050   1.926   2.118 -0.4096 -1.0288 -0.2659
 3558TIP3    H132165   6.109   2.002   2.114 -1.5728 -0.0961 -0.1187
 3558TIP3    H232166   5.964   1.963   2.136 -0.8119 -2.4856  1.0332
 3559TIP3   OH232167   5.296   4.208   4.364  0.1703 -0.7852 -0.0523
 3559TIP3    H132168   5.202   4.190   4.367  0.1226 -0.7050 -0.8727
 3559TIP3    H232169   5.305   4.296   4.400 -0.0804 -0.7515 -0.0715
 3560TIP3   OH232170   4.075   4.970   6.546  0.5537  0.0894 -0.2199
 3560TIP3    H132171   4.148   4.994   6.488  1.2596 -0.5694  0.3823
 3560TIP3    H232172   4.064   4.876   6.533 -0.8680  0.3303 -1.0456
 3561TIP3   OH232173   1.366   2.451   1.716 -0.0442  0.0168  0.1784
 3561TIP3    H132174   1.362   2.382   1.782  1.8956  0.4303  0.8071
 3561TIP3    H232175   1.438   2.423   1.658  0.4529  1.2529  0.1750
 3562TIP3   OH232176   5.080   1.718   6.043  0.1296  0.0840  0.1320
 3562TIP3    H132177   5.001   1.701   6.094 -0.9903  0.6722 -1.3095
 3562TIP3    H232178   5.094   1.812   6.051  1.6169 -0.2313  1.6163
 3563TIP3   OH232179   1.484   2.435  14.070 -0.5075 -0.8927 -0.5647
 3563TIP3    H132180   1.512   2.518  14.032 -1.1312 -1.2682 -1.9015
 3563TIP3    H232181   1.561   2.402  14.115 -0.2130  0.3401 -0.1203
 3564TIP3   OH232182   1.745   1.224   5.509  0.0429 -0.2860  0.9107
 3564TIP3    H132183   1.748   1.307   5.555 -1.0699 -0.5246  1.4475
 3564TIP3    H232184   1.653   1.198   5.512  0.0397 -0.6152 -0.9044
 3565TIP3   OH232185   4.305   2.707  13.498  0.8680 -0.2710 -0.0090
 3565TIP3    H132186   4.262   2.790  13.479  1.7770  0.4933  1.1241
 3565TIP3    H232187   4.379   2.703  13.437  0.8369 -0.2310 -0.0487
 3566TIP3   OH232188   2.216   5.038   5.924 -0.3121  0.2862 -0.2375
 3566TIP3    H132189   2.293   5.065   5.873  0.1073  2.1560  1.2832
 3566TIP3    H232190   2.195   4.950   5.891  2.9215 -0.6380 -0.2111
 3567TIP3   OH232191   6.529   0.983   5.727  0.3437 -0.0656  0.6375
 3567TIP3    H132192   6.516   0.891   5.748 -1.5634  0.0827  0.3702
 3567TIP3    H232193   6.503   1.030   5.806 -0.4507  0.2707  0.1959
 3568TIP3   OH232194   0.616   2.955   2.466  0.1985  0.1711  0.1886
 3568TIP3    H132195   0.543   2.903   2.432 -0.4895 -0.3204  2.2545
 3568TIP3    H232196   0.576   3.033   2.503  0.4089 -0.9408  2.9893
 3569TIP3   OH232197   6.102   0.345  13.950 -0.4105 -0.3360  0.2292
 3569TIP3    H132198   6.088   0.408  13.879  0.9632 -1.5128 -1.1844
 3569TIP3    H232199   6.197   0.348  13.965 -0.3598 -1.8294  0.3210
 3570TIP3   OH232200   3.556   0.852  17.018  0.1232 -0.5805 -0.2979
 3570TIP3    H132201   3.561   0.770  17.067  0.7376 -0.3491  0.0364
 3570TIP3    H232202   3.643   0.862  16.979  0.6688  0.8204  1.1600
 3571TIP3   OH232203   4.479   1.256  15.178 -0.1431  0.6213  0.4476
 3571TIP3    H132204   4.530   1.175  15.176 -1.0799  0.0070 -1.3622
 3571TIP3    H232205   4.522   1.309  15.245  3.5388  0.5808 -1.5730
 3572TIP3   OH232206   2.188   5.577   4.305  0.2437 -0.0737 -0.3780
 3572TIP3    H132207   2.193   5.612   4.393 -2.5680  0.7511 -0.4506
 3572TIP3    H232208   2.278   5.581   4.272  1.0851  1.0534  1.8772
 3573TIP3   OH232209   2.926   1.456  13.454 -0.0218  0.3809  0.7595
 3573TIP3    H132210   3.010   1.495  13.479 -0.6705  1.9658  0.6147
 3573TIP3    H232211   2.916   1.381  13.512  1.3070  0.3944  1.0448
 3574TIP3   OH232212   3.222   6.212   4.945 -0.0341  0.1970  0.1299
 3574TIP3    H132213   3.183   6.297   4.926  0.7610  1.2584  2.7583
 3574TIP3    H232214   3.316   6.225   4.931  0.0009 -0.5213 -0.3279
 3575TIP3   OH232215   2.005   2.307   4.647  0.2827 -0.1414 -0.4682
 3575TIP3    H132216   1.990   2.312   4.553  1.6423 -2.7290 -0.8883
 3575TIP3    H232217   1.922   2.335   4.686 -0.2056  1.2637 -2.3862
 3576TIP3   OH232218   0.210   5.924  11.536 -0.3173  0.3948 -0.4684
 3576TIP3    H132219   0.196   5.937  11.442 -1.4205  0.7368 -0.2752
 3576TIP3    H232220   0.206   5.829  11.548  0.8376  0.2795 -0.9008
 3577TIP3   OH232221   3.942   3.041  16.954 -0.3902  0.3587  0.0561
 3577TIP3    H132222   4.008   3.029  17.023  0.7944 -0.4899 -1.1800
 3577TIP3    H232223   3.912   3.131  16.966  1.8610  1.1813 -0.0347
 3578TIP3   OH232224   0.961   1.283   4.159  0.1874 -0.3295 -0.6128
 3578TIP3    H132225   0.914   1.199   4.167 -1.2886  0.6207  3.2536
 3578TIP3    H232226   1.046   1.266   4.199 -0.8524  0.3242  2.1302
 3579TIP3   OH232227   3.777   1.263  14.636  1.0262 -0.5586 -0.1042
 3579TIP3    H132228   3.785   1.357  14.653  0.9315 -0.6018  0.1782
 3579TIP3    H232229   3.864   1.237  14.604  1.2814 -0.5252  0.5468
 3580TIP3   OH232230   5.837   6.455  11.518 -0.3890  0.9938 -0.6591
 3580TIP3    H132231   5.868   6.412  11.598  2.4139  0.7920 -1.7598
 3580TIP3    H232232   5.748   6.485  11.541 -0.9716 -1.8311  1.4413
 3581TIP3   OH232233   2.340   5.653   0.037  0.1385  0.1899 -0.2290
 3581TIP3    H132234   2.418   5.666  -0.017  0.3156  0.6745  0.1375
 3581TIP3    H232235   2.336   5.730   0.094 -0.6235  0.1872 -0.2615
 3582TIP3   OH232236   5.213   6.061  10.905 -0.5738  0.3034  0.4341
 3582TIP3    H132237   5.290   6.097  10.860 -1.0447  2.8070  1.4494
 3582TIP3    H232238   5.139   6.089  10.851 -0.8651 -1.7680 -0.3315
 3583TIP3   OH232239   3.015   1.753  17.077 -0.0217  0.3495 -0.0789
 3583TIP3    H132240   3.031   1.660  17.093 -1.0868 -0.1185 -1.4791
 3583TIP3    H232241   3.102   1.792  17.075  0.4902 -0.7632 -0.2144
 3584TIP3   OH232242   4.799   3.331  10.977  0.3850 -0.0722 -0.3653
 3584TIP3    H132243   4.767   3.241  10.973 -0.9142  0.3573 -0.2533
 3584TIP3    H232244   4.860   3.339  10.904  0.5149 -1.0388 -0.3721
 3585TIP3   OH232245   2.330   4.580   1.788 -0.0960  0.8519 -0.0950
 3585TIP3    H132246   2.407   4.569   1.843 -0.0948  0.5591 -0.1548
 3585TIP3    H232247   2.360   4.634   1.715  0.0586  0.7249 -0.1262
 3586TIP3   OH232248   4.358   0.979   0.909  0.1662 -0.2732  0.0125
 3586TIP3    H132249   4.404   1.054   0.945 -1.0547  1.0004 -0.9610
 3586TIP3    H232250   4.294   0.954   0.976 -1.0262  1.0846 -0.5776
 3587TIP3   OH232251   5.849   5.463  14.705  0.3450 -0.0427  0.2016
 3587TIP3    H132252   5.924   5.446  14.761  0.2306  1.7955  0.9970
 3587TIP3    H232253   5.878   5.532  14.645 -0.6892  0.6950  0.5231
 3588TIP3   OH232254   5.492   0.995   2.937 -0.1301  0.5562 -0.2154
 3588TIP3    H132255   5.401   1.000   2.968 -0.2722  0.3399 -0.5857
 3588TIP3    H232256   5.540   0.955   3.009 -0.6069 -0.6924 -0.5598
 3589TIP3   OH232257   3.448   6.114  14.087  0.0726 -0.7783 -0.1407
 3589TIP3    H132258   3.516   6.168  14.127 -0.6952 -2.2196  3.5851
 3589TIP3    H232259   3.496   6.055  14.029  1.2777  1.6125 -1.7389
 3590TIP3   OH232260   6.532   4.285  11.432  0.4902  0.5275  0.4723
 3590TIP3    H132261   6.587   4.243  11.366  2.0286  1.7930  0.9155
 3590TIP3    H232262   6.561   4.248  11.515 -2.2356 -1.9600  0.4786
 3591TIP3   OH232263   5.583   1.279  16.694  0.0726  0.3245 -0.3416
 3591TIP3    H132264   5.519   1.210  16.674  0.6392  0.0362 -1.2130
 3591TIP3    H232265   5.645   1.238  16.754 -0.1461  0.3850 -0.0701
 3592TIP3   OH232266   3.253   5.458   3.291  0.0711  0.2804 -0.0521
 3592TIP3    H132267   3.216   5.380   3.248 -2.0318  0.2007  1.6990
 3592TIP3    H232268   3.184   5.524   3.283  0.1134  0.6264  2.0550
 3593TIP3   OH232269   0.572   0.313   2.380 -0.3544  0.7358 -0.2353
 3593TIP3    H132270   0.635   0.358   2.325 -0.7103 -0.1813 -1.4622
 3593TIP3    H232271   0.522   0.382   2.423 -0.4222  1.4984 -1.5074
 3594TIP3   OH232272   3.276   4.449  13.720  0.1234  0.8234 -0.5621
 3594TIP3    H132273   3.328   4.376  13.686 -0.3627 -0.1936  0.8043
 3594TIP3    H232274   3.338   4.499  13.773  0.3855  1.2779 -1.2706
 3595TIP3   OH232275   6.416   4.421  11.205  0.9261 -0.1010  0.2741
 3595TIP3    H132276   6.383   4.337  11.175 -0.7307  1.0182 -1.2240
 3595TIP3    H232277   6.460   4.402  11.287 -1.2414 -2.1006  1.0544
 3596TIP3   OH232278   0.341   2.179  16.007 -0.0400 -0.4434 -0.2780
 3596TIP3    H132279   0.247   2.194  15.993 -0.4277 -1.3616  1.1053
 3596TIP3    H232280   0.358   2.095  15.964 -0.0688 -0.7330  0.2736
 3597TIP3   OH232281   1.916   2.167   5.778 -0.7713 -0.1836 -0.1572
 3597TIP3    H132282   1.844   2.115   5.813 -0.8636  0.3487  0.4772
 3597TIP3    H232283   1.899   2.255   5.811 -0.8363  0.3453 -1.5310
 3598TIP3   OH232284   4.358   0.332   3.364 -0.7834  0.0124 -0.8360
 3598TIP3    H132285   4.367   0.241   3.333 -1.9049 -1.1707  2.0463
 3598TIP3    H232286   4.447   0.355   3.392 -0.9376 -1.1674  0.7654
 3599TIP3   OH232287   2.416   2.936  14.443 -0.0032  0.1238 -0.8200
 3599TIP3    H132288   2.359   2.985  14.385  0.0831  0.5549 -0.5468
 3599TIP3    H232289   2.504   2.951  14.408  0.0242  0.1710 -0.7304
 3600TIP3   OH232290   1.219   5.467   5.040 -0.5748 -0.2770  0.0824
 3600TIP3    H132291   1.303   5.492   5.080 -0.3358  1.4667 -1.3781
 3600TIP3    H232292   1.240   5.389   4.988  0.1506  0.0964 -0.2041
 3601TIP3   OH232293   0.602   4.350   2.493 -0.2443 -0.3724 -0.1180
 3601TIP3    H132294   0.618   4.390   2.578 -2.2007 -1.7416  0.9723
 3601TIP3    H232295   0.670   4.386   2.436  0.2436  1.6836  1.6452
 3602TIP3   OH232296   6.677   2.495  13.831 -0.2943  0.4568  0.1544
 3602TIP3    H132297   6.634   2.516  13.749 -0.2183  1.7108  0.4122
 3602TIP3    H232298   6.752   2.555  13.835  1.2682 -1.3720 -0.0915
 3603TIP3   OH232299   3.287   6.339   3.998  0.2538  0.0478  0.3803
 3603TIP3    H132300   3.369   6.377   4.028  0.3944 -0.8961  1.2619
 3603TIP3    H232301   3.237   6.413   3.963 -0.3631  1.5327  3.8842
 3604TIP3   OH232302   4.942   6.043  16.240 -0.3116 -0.4115 -0.5043
 3604TIP3    H132303   4.887   6.119  16.222  1.2842  0.4317 -2.2444
 3604TIP3    H232304   4.926   5.984  16.166 -1.3918 -1.7545  0.7299
 3605TIP3   OH232305   1.381   3.865   3.917 -0.3854  0.0367  0.7750
 3605TIP3    H132306   1.383   3.892   3.825 -0.5991  0.1921  0.8152
 3605TIP3    H232307   1.445   3.794   3.923 -0.3066  0.0875  0.5252
 3606TIP3   OH232308   5.479   2.836   4.115  0.3075  0.0064  0.0440
 3606TIP3    H132309   5.514   2.761   4.067  0.1336 -0.1093  0.0959
 3606TIP3    H232310   5.396   2.805   4.151  0.3749  0.1326  0.3131
 3607TIP3   OH232311   6.519   2.662   1.740  0.0197 -0.1782  0.1516
 3607TIP3    H132312   6.431   2.661   1.778 -0.0272  1.5219  0.1688
 3607TIP3    H232313   6.578   2.676   1.814  0.1111  0.8720 -0.1079
 3608TIP3   OH232314   6.131   5.701   1.155 -0.0983 -0.1320 -0.8906
 3608TIP3    H132315   6.117   5.615   1.116  4.7190 -1.6705  0.1059
 3608TIP3    H232316   6.105   5.690   1.247 -1.3024  0.1533 -1.1795
 3609TIP3   OH232317   5.223   0.369   2.072 -0.1857 -0.1201 -0.0296
 3609TIP3    H132318   5.303   0.316   2.071 -0.7361 -1.0176 -1.4678
 3609TIP3    H232319   5.253   0.459   2.062  0.6492 -0.4921 -1.0846
 3610TIP3   OH232320   1.596   3.217  16.849 -0.0691 -0.0093  0.2154
 3610TIP3    H132321   1.618   3.308  16.828 -0.8136  0.2809  0.6597
 3610TIP3    H232322   1.608   3.170  16.767 -2.4755  1.0120 -0.8040
 3611TIP3   OH232323   6.214   2.341  12.606 -0.0244 -0.4911 -0.0975
 3611TIP3    H132324   6.271   2.410  12.641 -1.6788  0.8630  0.0815
 3611TIP3    H232325   6.189   2.372  12.519  0.8118 -1.8695 -0.8513
 3612TIP3   OH232326   6.540   1.904  12.253 -0.0748 -0.1135 -0.2296
 3612TIP3    H132327   6.601   1.975  12.232  1.9406 -1.6700  0.0986
 3612TIP3    H232328   6.488   1.893  12.173 -1.2270  2.3854  0.0570
 3613TIP3   OH232329   0.756   5.270  12.780 -1.0110 -0.2162  0.3221
 3613TIP3    H132330   0.845   5.290  12.809 -0.6905 -1.4701  0.2603
 3613TIP3    H232331   0.766   5.245  12.688 -1.3981 -0.5490  0.3709
 3614TIP3   OH232332   1.758   2.029  13.525  0.0234  0.2633 -0.1936
 3614TIP3    H132333   1.683   2.043  13.584 -0.5107  1.5617 -1.1245
 3614TIP3    H232334   1.833   2.064  13.573 -0.3928  1.2119 -0.2045
 3615TIP3   OH232335   2.108   3.947  12.476  0.4862 -0.6840  0.2011
 3615TIP3    H132336   2.021   3.909  12.465 -0.2072 -0.2746  3.2291
 3615TIP3    H232337   2.167   3.871  12.474 -0.0646 -1.1053 -0.6915
 3616TIP3   OH232338   4.278   1.727  11.198 -0.3698  0.9139 -0.2818
 3616TIP3    H132339   4.363   1.689  11.223 -1.0880  0.8733  2.4081
 3616TIP3    H232340   4.249   1.673  11.124  0.6671 -0.8946  0.5599
 3617TIP3   OH232341   3.811   2.137   5.302 -0.0628  0.1573 -0.0695
 3617TIP3    H132342   3.843   2.125   5.212  1.0466 -0.5539  0.3907
 3617TIP3    H232343   3.850   2.064   5.351 -2.3004 -0.6721  0.5951
 3618TIP3   OH232344   5.807   3.705  14.775 -0.4203  0.1305  0.0796
 3618TIP3    H132345   5.881   3.657  14.740 -1.3015 -0.8878 -0.4423
 3618TIP3    H232346   5.736   3.641  14.779 -1.5720  1.3256 -0.4172
 3619TIP3   OH232347   3.241   2.402  11.603  0.0571 -0.1269 -0.0287
 3619TIP3    H132348   3.280   2.391  11.690 -0.3530 -0.3407  0.1317
 3619TIP3    H232349   3.219   2.313  11.576 -0.6553  0.0211  0.0444
 3620TIP3   OH232350   5.458   4.559  14.388  0.1358  0.1320  0.7761
 3620TIP3    H132351   5.499   4.580  14.305  1.0033 -2.8748  0.3291
 3620TIP3    H232352   5.530   4.556  14.451 -0.2436  0.5374  1.2402
 3621TIP3   OH232353   3.958   5.461  11.787  0.1029  0.4259 -0.5246
 3621TIP3    H132354   4.022   5.491  11.852 -0.4556 -0.9008  0.6984
 3621TIP3    H232355   3.973   5.366  11.780 -1.6944  0.0671 -0.1877
 3622TIP3   OH232356   5.674   2.007  11.547 -0.2916 -0.7226 -0.1913
 3622TIP3    H132357   5.697   2.096  11.523 -1.2773 -0.4137 -0.0470
 3622TIP3    H232358   5.752   1.971  11.589 -0.0788  0.2651  0.2718
 3623TIP3   OH232359   5.133   1.422   1.402  0.1266  0.1017  0.4087
 3623TIP3    H132360   5.165   1.511   1.418  1.5673 -0.5573  1.4405
 3623TIP3    H232361   5.209   1.375   1.367 -0.8926 -0.4936 -1.1166
 3624TIP3   OH232362   1.781   4.440   2.415 -0.1794 -0.0064  0.1041
 3624TIP3    H132363   1.769   4.347   2.400  1.6166 -0.0969 -1.0796
 3624TIP3    H232364   1.697   4.480   2.390 -1.0252 -1.2975  0.8111
 3625TIP3   OH232365   0.170   4.037   2.392 -0.4095 -0.3198 -0.0451
 3625TIP3    H132366   0.167   4.085   2.309  0.0284 -0.9473 -0.4299
 3625TIP3    H232367   0.079   4.015   2.410 -0.7822  1.6087  0.7161
 3626TIP3   OH232368   2.115   0.575   2.237  0.6368 -0.3322  0.3163
 3626TIP3    H132369   2.100   0.668   2.257  2.0812 -0.4307  2.1257
 3626TIP3    H232370   2.137   0.574   2.144  0.0901  1.0652  0.1410
 3627TIP3   OH232371   1.555   4.444  16.682  0.1011 -0.2693 -0.4240
 3627TIP3    H132372   1.649   4.440  16.661  0.0536  0.8272 -0.9154
 3627TIP3    H232373   1.546   4.523  16.735 -0.1624 -1.7363  1.8080
 3628TIP3   OH232374   6.176   2.491  15.853 -0.1463 -0.4994 -0.1593
 3628TIP3    H132375   6.145   2.446  15.932  0.9898  0.1210  0.6837
 3628TIP3    H232376   6.218   2.422  15.801  0.8541 -0.5918  0.7335
 3629TIP3   OH232377   4.767   6.136  15.970  0.0800 -0.1750 -0.1640
 3629TIP3    H132378   4.674   6.135  15.949 -0.4121 -0.4587  1.7931
 3629TIP3    H232379   4.772   6.185  16.052  1.7831  0.6374 -0.7087
 3630TIP3   OH232380   0.296   4.647  16.424 -0.1216  0.2029  0.8788
 3630TIP3    H132381   0.320   4.735  16.456  0.1439  1.1812 -1.7814
 3630TIP3    H232382   0.323   4.647  16.332  0.6346 -3.0063  0.9992
 3631TIP3   OH232383   2.664   4.750   2.083  0.0395  0.3004  0.5103
 3631TIP3    H132384   2.686   4.695   2.158  0.2488  0.3957  0.5179
 3631TIP3    H232385   2.718   4.828   2.094  0.6757 -0.0299 -0.1666
 3632TIP3   OH232386   5.945   3.509   0.998  0.5111  0.6775  0.2179
 3632TIP3    H132387   5.978   3.595   0.973  2.8369 -0.3526 -0.4940
 3632TIP3    H232388   6.010   3.474   1.058 -0.4600 -0.5519  0.6074
 3633TIP3   OH232389   0.707   5.183   5.361 -0.4424 -0.7863  1.3562
 3633TIP3    H132390   0.689   5.221   5.275 -2.0844 -2.5316  0.8654
 3633TIP3    H232391   0.774   5.240   5.398 -0.3302  0.5437 -0.6983
 3634TIP3   OH232392   0.909   6.254  15.006  0.1025  0.4022  0.5870
 3634TIP3    H132393   0.913   6.348  14.993  1.0855  0.0491 -2.5375
 3634TIP3    H232394   0.945   6.217  14.925 -1.5068 -2.6735  1.1116
 3635TIP3   OH232395   0.784   2.743  15.502  0.4028  0.0203 -0.0457
 3635TIP3    H132396   0.780   2.830  15.461  0.8728 -0.1200 -0.3985
 3635TIP3    H232397   0.777   2.760  15.596  1.0515  0.4892 -0.0770
 3636TIP3   OH232398   6.819   5.660   1.784 -0.9688 -0.3608 -0.1717
 3636TIP3    H132399   6.749   5.709   1.741 -2.1253  0.5268  2.5327
 3636TIP3    H232400   6.782   5.574   1.802 -0.3556 -0.8653 -1.1777
 3637TIP3   OH232401   6.089   5.670   4.879  0.0915 -0.2932 -0.5277
 3637TIP3    H132402   6.012   5.684   4.935  0.5326 -1.9765  0.5956
 3637TIP3    H232403   6.072   5.585   4.837  1.2059 -0.5550 -0.4749
 3638TIP3   OH232404   0.760   5.987   3.920  0.5107  0.3868  0.8307
 3638TIP3    H132405   0.747   5.981   4.015  3.7197 -4.2579  1.2867
 3638TIP3    H232406   0.854   6.002   3.910  0.4050 -0.2282 -1.6006
 3639TIP3   OH232407   1.463   0.892  11.049 -0.4242  0.5800  0.0718
 3639TIP3    H132408   1.382   0.844  11.065 -0.3312 -0.2442 -1.6476
 3639TIP3    H232409   1.531   0.840  11.092 -0.8184  1.5236  1.9248
 3640TIP3   OH232410   1.159   2.619   0.890  0.3082  0.0882  0.2638
 3640TIP3    H132411   1.241   2.650   0.929  0.2977 -0.1610  0.4838
 3640TIP3    H232412   1.137   2.540   0.939 -1.2770  1.3857  1.7728
 3641TIP3   OH232413   6.555   2.268   1.155 -0.0673 -0.0979  0.0891
 3641TIP3    H132414   6.536   2.239   1.066 -1.5841 -0.6819  0.5681
 3641TIP3    H232415   6.532   2.361   1.156 -1.9244 -0.5140  0.3291
 3642TIP3   OH232416   3.384   0.781   4.959  0.2467 -0.3182 -0.0046
 3642TIP3    H132417   3.376   0.865   5.003  1.8018 -0.1939  0.0764
 3642TIP3    H232418   3.446   0.796   4.888  0.4508 -1.3720 -0.0703
 3643TIP3   OH232419   6.802   2.915  15.749 -0.9036  0.6670 -0.6646
 3643TIP3    H132420   6.803   2.844  15.684 -0.4341  0.9953 -1.0189
 3643TIP3    H232421   6.869   2.976  15.719  0.9038 -0.2319  1.2872
 3644TIP3   OH232422   1.432   5.907   4.384 -0.0642 -0.1494 -0.0466
 3644TIP3    H132423   1.467   5.995   4.398  0.9853 -0.3453 -1.3185
 3644TIP3    H232424   1.354   5.921   4.330 -1.5201  0.1974  2.0043
 3645TIP3   OH232425   6.663   1.699  13.880 -0.0247  0.6902 -0.3590
 3645TIP3    H132426   6.631   1.757  13.811  0.4814  1.1426 -0.2311
 3645TIP3    H232427   6.733   1.750  13.922  1.9129 -0.8215 -1.6108
 3646TIP3   OH232428   4.815   1.834   4.490 -0.3784  0.2195 -0.2438
 3646TIP3    H132429   4.807   1.865   4.580 -0.9333  0.4367 -0.3621
 3646TIP3    H232430   4.865   1.752   4.497  0.7690  0.9274  0.1057
 3647TIP3   OH232431   5.430   3.776   2.886  0.3464  0.1201 -0.4660
 3647TIP3    H132432   5.486   3.827   2.828  0.4851  0.5390  0.0272
 3647TIP3    H232433   5.433   3.823   2.970  0.9286 -0.9744  0.1621
 3648TIP3   OH232434   0.003   5.311   2.070  0.5272  0.4110  0.3366
 3648TIP3    H132435   0.051   5.375   2.016 -1.3013  1.1539 -0.4897
 3648TIP3    H232436  -0.078   5.295   2.021  0.1706 -1.2471  1.3985
 3649TIP3   OH232437   5.272   4.902   4.471 -0.4495  0.0298  0.0897
 3649TIP3    H132438   5.218   4.867   4.400 -1.0796 -2.2356  1.5590
 3649TIP3    H232439   5.210   4.915   4.543  0.7495 -1.9574  1.5879
 3650TIP3   OH232440   5.513   4.155   0.418 -0.0273 -0.2932 -0.6102
 3650TIP3    H132441   5.600   4.171   0.381  0.0961 -0.0857 -0.2405
 3650TIP3    H232442   5.499   4.061   0.407  1.2798 -0.8078  1.4664
 3651TIP3   OH232443   3.686   5.108  10.896  0.0522  0.3943 -0.2409
 3651TIP3    H132444   3.670   5.175  10.829 -1.4759 -0.3263 -0.6401
 3651TIP3    H232445   3.774   5.077  10.877 -0.5072 -0.1045 -2.2481
 3652TIP3   OH232446   3.101   3.285  15.899  0.3978  0.1952  0.1233
 3652TIP3    H132447   3.179   3.239  15.867  1.5102  2.0283 -0.0032
 3652TIP3    H232448   3.046   3.217  15.936  1.2068 -1.4230 -1.4845
 3653TIP3   OH232449   0.450   4.599   2.896  0.1876  0.5621 -0.1626
 3653TIP3    H132450   0.428   4.661   2.965 -0.0127  0.5987 -0.2573
 3653TIP3    H232451   0.389   4.526   2.908  2.1516 -0.9401  1.6519
 3654TIP3   OH232452   4.404   5.474  14.394 -0.4938 -0.0964 -0.5486
 3654TIP3    H132453   4.480   5.532  14.402  0.3015 -1.3254  1.4850
 3654TIP3    H232454   4.440   5.390  14.366 -0.9877 -0.8318  0.9206
 3655TIP3   OH232455   0.680   0.266  17.183  0.4668  0.0905  0.2962
 3655TIP3    H132456   0.740   0.326  17.228  1.4086  0.1823 -1.0507
 3655TIP3    H232457   0.731   0.229  17.112 -0.7841 -0.6151 -0.2661
 3656TIP3   OH232458   5.477   4.206  11.159 -0.4605 -0.3357 -0.5944
 3656TIP3    H132459   5.482   4.301  11.174 -0.0794 -0.3175 -0.8177
 3656TIP3    H232460   5.563   4.174  11.185 -0.5171 -0.5925 -0.7239
 3657TIP3   OH232461   5.558   5.865  14.958  0.7628  0.0668 -0.2591
 3657TIP3    H132462   5.596   5.785  14.923  0.0775 -0.4136  0.0548
 3657TIP3    H232463   5.633   5.918  14.983  1.2441 -0.0045 -1.4885
 3658TIP3   OH232464   3.812   5.683  11.031  0.0760 -0.7676  0.0029
 3658TIP3    H132465   3.904   5.696  11.009  0.0240 -0.2142  0.1018
 3658TIP3    H232466   3.804   5.588  11.045  0.5571 -0.8595 -0.3143
 3659TIP3   OH232467   1.043   4.006   3.463  0.2288 -0.1256 -0.2651
 3659TIP3    H132468   1.101   3.955   3.519  0.5479  0.0078 -0.4732
 3659TIP3    H232469   0.999   3.941   3.408 -0.2623 -0.2791  0.2961
 3660TIP3   OH232470   2.349   2.108  14.024  0.5187  0.7521 -0.5334
 3660TIP3    H132471   2.309   2.194  14.018  1.1956  1.0387 -1.1208
 3660TIP3    H232472   2.276   2.049  14.042 -0.0919  1.3246 -1.0608
 3661TIP3   OH232473   0.946   2.400  14.750 -0.4706 -0.0181 -0.6920
 3661TIP3    H132474   0.880   2.335  14.725  0.4225 -1.3069  0.2050
 3661TIP3    H232475   0.896   2.471  14.790 -1.2759 -1.2895  0.6315
 3662TIP3   OH232476   2.244   3.028  12.100  0.7705  0.3629 -0.0449
 3662TIP3    H132477   2.290   2.995  12.023  0.5476 -0.4436  0.1638
 3662TIP3    H232478   2.186   3.096  12.065 -1.8178 -2.2024 -1.1693
 3663TIP3   OH232479   6.497   5.478   5.788 -0.2788  0.2783  0.1848
 3663TIP3    H132480   6.544   5.460   5.706 -2.1893 -1.4017 -0.6543
 3663TIP3    H232481   6.431   5.543   5.763  1.4150  2.5369  1.3190
 3664TIP3   OH232482   0.226   2.247  11.935 -0.4031  0.4403  0.0879
 3664TIP3    H132483   0.280   2.234  11.858  0.1911 -0.0625  0.5769
 3664TIP3    H232484   0.258   2.182  11.998 -1.5800  0.1275  0.3866
 3665TIP3   OH232485   1.372   6.147  15.345 -0.0904 -0.3708 -0.2606
 3665TIP3    H132486   1.445   6.107  15.298  1.1445  2.5454 -1.0253
 3665TIP3    H232487   1.312   6.177  15.277 -1.6012 -1.8391  0.3320
 3666TIP3   OH232488   4.864   1.365   6.055 -0.0620  0.9023  0.1643
 3666TIP3    H132489   4.859   1.447   6.103 -2.6400  0.4446  0.8163
 3666TIP3    H232490   4.844   1.389   5.964  0.3461  1.1309  0.1314
 3667TIP3   OH232491   0.620   2.253   0.728  0.5108 -0.5267 -0.0357
 3667TIP3    H132492   0.566   2.328   0.752  0.5997 -0.4643 -0.0299
 3667TIP3    H232493   0.660   2.223   0.810  0.4965 -0.5633 -0.0419
 3668TIP3   OH232494   5.810   1.357   5.281  0.0303 -0.2354 -0.5480
 3668TIP3    H132495   5.757   1.436   5.293  1.0975  0.5850 -1.1203
 3668TIP3    H232496   5.875   1.361   5.351  1.3172  0.4401 -1.7457
 3669TIP3   OH232497   4.155   5.030   2.268  0.1664 -0.1712  0.9555
 3669TIP3    H132498   4.149   4.937   2.288  2.4144 -0.3731  0.9596
 3669TIP3    H232499   4.219   5.036   2.197 -2.1213  1.1682 -1.1698
 3670TIP3   OH232500   4.309   5.935  14.863 -0.6462  0.1568 -0.2380
 3670TIP3    H132501   4.393   5.896  14.888 -0.8591  0.3451  0.8099
 3670TIP3    H232502   4.257   5.861  14.829 -0.0229  0.0620 -1.0016
 3671TIP3   OH232503   1.729   6.815  16.435  0.4283 -0.4261 -0.0833
 3671TIP3    H132504   1.750   6.751  16.367  0.0667  1.0055 -1.5879
 3671TIP3    H232505   1.810   6.863  16.449  0.1208  0.2765 -0.6264
 3672TIP3   OH232506   3.995   3.323  14.771 -0.5516 -0.7118 -0.5159
 3672TIP3    H132507   3.979   3.366  14.687  1.4723  1.3623  0.0761
 3672TIP3    H232508   3.924   3.352  14.827  0.7921  2.1012 -0.1113
 3673TIP3   OH232509   4.538   1.673  11.220  0.0215  0.2671 -0.1226
 3673TIP3    H132510   4.566   1.685  11.129 -0.8377 -0.3265 -0.4781
 3673TIP3    H232511   4.587   1.597  11.251 -0.3331 -0.0732 -0.3817
 3674TIP3   OH232512   1.615   6.319  15.456  0.0953  0.3030  0.1130
 3674TIP3    H132513   1.646   6.409  15.444  0.1186  0.2233 -0.5051
 3674TIP3    H232514   1.584   6.293  15.369 -0.4787 -0.0756  0.4277
 3675TIP3   OH232515   2.814   5.975   4.648 -0.2063 -0.6437 -0.1124
 3675TIP3    H132516   2.779   5.960   4.561  0.0644 -0.5128 -0.2431
 3675TIP3    H232517   2.908   5.963   4.639 -0.1972 -0.8616  0.2102
 3676TIP3   OH232518   6.053   2.233  16.306 -0.0255 -0.0997 -0.0935
 3676TIP3    H132519   5.987   2.278  16.358 -0.2134  0.6341 -0.9329
 3676TIP3    H232520   6.014   2.149  16.284 -0.1717 -0.1776  0.4473
 3677TIP3   OH232521   4.160   5.162  16.389  0.0837  0.3648  0.4819
 3677TIP3    H132522   4.089   5.207  16.343  0.0135 -1.9252 -1.9129
 3677TIP3    H232523   4.154   5.192  16.479 -2.9265  1.4388  0.0164
 3678TIP3   OH232524   2.386   3.956   2.573 -0.3636  0.1800 -0.0617
 3678TIP3    H132525   2.441   3.978   2.498  1.3177  0.6521  1.2451
 3678TIP3    H232526   2.380   3.861   2.571  1.0207  0.0670  0.0781
 3679TIP3   OH232527   5.073   2.499  16.647  0.6156  0.0704 -0.4530
 3679TIP3    H132528   5.078   2.575  16.589 -0.4455  0.0475 -0.5995
 3679TIP3    H232529   5.062   2.536  16.735 -0.5219  0.0988 -0.5940
 3680TIP3   OH232530   2.078   0.663  14.680  0.1514 -0.5193  0.2428
 3680TIP3    H132531   2.071   0.685  14.773 -1.0271  0.0804  0.0344
 3680TIP3    H232532   2.122   0.738  14.641 -2.6176  1.0171 -0.2342
 3681TIP3   OH232533   1.062   3.572  11.423 -0.2996 -0.0397  0.2227
 3681TIP3    H132534   1.008   3.638  11.378 -1.1897 -0.4277  0.7014
 3681TIP3    H232535   1.000   3.519  11.472  0.6164  0.2061  1.7130
 3682TIP3   OH232536   6.449   1.419  13.610 -0.1624 -0.2946 -0.0347
 3682TIP3    H132537   6.356   1.428  13.633 -0.0240 -1.1468  0.9568
 3682TIP3    H232538   6.483   1.508  13.613 -1.1078  0.1318 -1.1989
 3683TIP3   OH232539   5.819   1.482   0.545  0.3895  0.0176 -0.6249
 3683TIP3    H132540   5.841   1.571   0.572 -2.4200  1.2831 -2.0866
 3683TIP3    H232541   5.764   1.449   0.616  1.1837 -0.4829 -0.2263
 3684TIP3   OH232542   5.006   4.531  16.234  0.3551 -0.8309 -0.2143
 3684TIP3    H132543   4.945   4.588  16.282 -1.5366 -1.5398 -1.6643
 3684TIP3    H232544   5.041   4.587  16.165  1.2340 -0.4939  0.4734
 3685TIP3   OH232545   1.302   3.406   1.396  0.7763 -0.3047  0.3977
 3685TIP3    H132546   1.381   3.381   1.445  2.8432 -0.0924 -2.5464
 3685TIP3    H232547   1.328   3.484   1.347 -2.8970  2.8608  2.9427
 3686TIP3   OH232548   4.924   1.441  12.218  0.0594  0.0397 -0.3726
 3686TIP3    H132549   4.858   1.496  12.261  0.4650  0.2152  0.0365
 3686TIP3    H232550   4.907   1.451  12.125 -1.2493 -0.8510 -0.2569
 3687TIP3   OH232551   1.367   2.574   2.512 -0.6865 -0.1403 -0.3203
 3687TIP3    H132552   1.289   2.524   2.535 -0.1142  0.0461  2.3259
 3687TIP3    H232553   1.438   2.511   2.512 -0.4178  0.1525  0.1273
 3688TIP3   OH232554   1.531   6.593  12.641 -0.1751  0.1870 -0.2586
 3688TIP3    H132555   1.615   6.552  12.621  0.6471  0.9992  1.3182
 3688TIP3    H232556   1.492   6.536  12.707 -0.6194  0.0954 -0.6014
 3689TIP3   OH232557   4.545   6.064  14.119 -0.2161 -0.1522  0.0123
 3689TIP3    H132558   4.500   6.139  14.082  0.4962  0.1205 -0.3321
 3689TIP3    H232559   4.615   6.101  14.172  0.0616 -0.5646 -0.0582
 3690TIP3   OH232560   5.828   0.820  15.250  0.2103 -0.2924  0.5287
 3690TIP3    H132561   5.920   0.827  15.272 -0.3165  0.1521  2.7631
 3690TIP3    H232562   5.817   0.876  15.173  2.0394 -1.5044 -0.6877
 3691TIP3   OH232563   3.624   0.427   4.048 -0.3858 -0.6007  0.6560
 3691TIP3    H132564   3.609   0.483   4.124 -1.4477  0.3047 -0.2013
 3691TIP3    H232565   3.707   0.457   4.012 -0.1633 -0.6552  1.1034
 3692TIP3   OH232566   1.483   5.921  14.589 -0.2973  0.3356  0.4462
 3692TIP3    H132567   1.529   5.978  14.652 -0.1794  0.2064  0.4774
 3692TIP3    H232568   1.482   5.835  14.631 -0.4014  0.2953  0.3615
 3693TIP3   OH232569   5.504   4.384  12.390 -0.0509 -0.0413 -0.1620
 3693TIP3    H132570   5.571   4.452  12.404  1.1033 -0.9873 -0.8612
 3693TIP3    H232571   5.458   4.378  12.473  1.7869 -0.4407  0.8974
 3694TIP3   OH232572   0.763   5.958  12.584 -0.3784  0.0097  0.1139
 3694TIP3    H132573   0.851   5.923  12.592  0.6727  2.6512  0.9799
 3694TIP3    H232574   0.745   6.000  12.669 -1.4819  1.6089 -0.8495
 3695TIP3   OH232575   0.257   2.674   4.384 -0.3710  0.3997 -0.2411
 3695TIP3    H132576   0.339   2.683   4.432  0.0862 -1.4347 -0.6003
 3695TIP3    H232577   0.221   2.589   4.413 -1.5173  0.5994 -1.0002
 3696TIP3   OH232578   4.932   3.916   4.601 -0.1894 -0.0706  0.0957
 3696TIP3    H132579   4.986   3.913   4.680 -1.1915  0.5292  0.8247
 3696TIP3    H232580   4.842   3.913   4.633 -0.6307  0.8946 -0.9690
 3697TIP3   OH232581   4.841   2.695   5.813 -0.1125 -0.5537  0.0820
 3697TIP3    H132582   4.855   2.640   5.890  0.9541 -1.4245 -0.7005
 3697TIP3    H232583   4.927   2.700   5.771 -0.6289  0.0834 -0.9332
 3698TIP3   OH232584   2.078   0.182   2.193  0.7343  0.2890 -0.1046
 3698TIP3    H132585   2.057   0.140   2.110 -0.9490 -0.3233  0.5848
 3698TIP3    H232586   2.064   0.114   2.259  2.1182  0.7399  0.6989
 3699TIP3   OH232587   2.701   3.151   1.727 -0.0413  0.0242 -0.0385
 3699TIP3    H132588   2.657   3.185   1.648 -0.1606  0.0716  0.0475
 3699TIP3    H232589   2.647   3.184   1.799  0.2508  0.2485  0.0757
 3700TIP3   OH232590   1.025   4.113   5.103 -0.4670 -0.1233  0.6079
 3700TIP3    H132591   1.104   4.074   5.139 -0.2354 -1.0663 -0.8505
 3700TIP3    H232592   1.040   4.117   5.009 -2.0310 -0.0315  0.3342
 3701TIP3   OH232593   5.801   0.187  11.972 -0.3620  0.2161 -0.0396
 3701TIP3    H132594   5.812   0.154  12.062 -0.2044 -0.8151 -0.4171
 3701TIP3    H232595   5.890   0.210  11.944 -0.5180  1.3667  0.3530
 3702TIP3   OH232596   5.670   3.704   6.827  0.0153  0.1900 -0.6719
 3702TIP3    H132597   5.605   3.645   6.790 -0.5846  0.2880  0.2137
 3702TIP3    H232598   5.701   3.755   6.752  1.0447 -1.6805 -1.5926
 3703TIP3   OH232599   5.494   1.358   4.446 -0.0401 -0.3181 -0.0682
 3703TIP3    H132600   5.406   1.323   4.436  0.2551 -0.9954 -0.3589
 3703TIP3    H232601   5.482   1.438   4.497 -0.8586 -0.2144 -0.4042
 3704TIP3   OH232602   1.869   2.678   4.444 -0.1898 -0.0625  0.3674
 3704TIP3    H132603   1.816   2.756   4.429 -0.6576 -0.4387  0.0289
 3704TIP3    H232604   1.937   2.683   4.376 -0.6638 -0.3269 -0.1410
 3705TIP3   OH232605   2.630   0.267   5.337  0.1067  0.5529  0.2950
 3705TIP3    H132606   2.693   0.195   5.331 -1.1360 -0.6619  1.4098
 3705TIP3    H232607   2.613   0.291   5.245  1.6717  0.4849 -0.0455
 3706TIP3   OH232608   0.855   6.555  14.321 -0.0700 -0.4624 -0.8091
 3706TIP3    H132609   0.847   6.476  14.376 -0.7447 -1.3611 -2.1506
 3706TIP3    H232610   0.788   6.544  14.254  1.6279 -0.0829 -2.6605
 3707TIP3   OH232611   5.033   1.515  13.987 -0.0467  0.1166  0.6556
 3707TIP3    H132612   5.078   1.500  13.903 -0.4561 -1.1880  0.6515
 3707TIP3    H232613   4.944   1.540  13.962 -0.3421 -0.8630  0.6919
 3708TIP3   OH232614   3.382   4.734  13.380  0.2331 -0.2778  0.1975
 3708TIP3    H132615   3.443   4.804  13.356  1.3418 -0.4524  2.2773
 3708TIP3    H232616   3.309   4.780  13.422 -0.2657 -0.2067 -0.7192
 3709TIP3   OH232617   0.096   5.113   5.010 -0.3757  0.1358 -0.3512
 3709TIP3    H132618   0.018   5.158   5.045 -0.7469  0.3446 -1.4152
 3709TIP3    H232619   0.061   5.051   4.947  0.2295 -0.8595  0.2745
 3710TIP3   OH232620   5.890   2.478   4.829  0.4839 -0.1118  0.0418
 3710TIP3    H132621   5.804   2.480   4.786  0.7636  1.6052 -0.5223
 3710TIP3    H232622   5.900   2.388   4.858 -0.7302 -0.7833 -1.4676
 3711TIP3   OH232623   4.126   5.634  14.082  1.0000  0.3493 -0.2685
 3711TIP3    H132624   4.116   5.715  14.132 -0.1012  0.3598 -0.4778
 3711TIP3    H232625   4.086   5.654  13.997 -1.4726 -1.1156  0.4581
 3712TIP3   OH232626   4.381   1.518   4.561  0.0412 -0.3768 -0.4100
 3712TIP3    H132627   4.433   1.599   4.564  0.1870 -0.4693 -0.4239
 3712TIP3    H232628   4.446   1.448   4.561 -0.0993 -0.5369  0.9835
 3713TIP3   OH232629   1.522   0.780  17.047  0.1278 -0.1102 -0.4143
 3713TIP3    H132630   1.468   0.859  17.044 -1.6233 -0.9943  2.8141
 3713TIP3    H232631   1.512   0.740  16.961 -0.4021  2.2089 -1.5108
 3714TIP3   OH232632   2.509   2.447   0.836  0.1095  0.2052 -0.7741
 3714TIP3    H132633   2.561   2.383   0.788  1.9165 -0.6566  2.0580
 3714TIP3    H232634   2.494   2.406   0.921 -1.8826  2.0916 -0.1307
 3715TIP3   OH232635   0.577   6.729  14.690 -0.4252 -0.0940  0.7960
 3715TIP3    H132636   0.618   6.767  14.767 -1.3999  0.9276  0.8409
 3715TIP3    H232637   0.634   6.753  14.617  1.2767 -2.2747  1.2983
 3716TIP3   OH232638   5.841   6.314  12.355  0.0870  0.0426 -0.1693
 3716TIP3    H132639   5.922   6.327  12.306 -0.4562  0.2455 -1.0452
 3716TIP3    H232640   5.803   6.402  12.361 -1.0656 -0.3210 -1.5769
 3717TIP3   OH232641   0.036   2.962  14.983 -0.0570  0.7865  0.2349
 3717TIP3    H132642  -0.038   2.908  14.956  2.9434 -3.8846  0.4045
 3717TIP3    H232643   0.072   2.996  14.901 -0.1575 -0.1597 -0.2123
 3718TIP3   OH232644   0.393   4.306   1.116  0.1380 -0.4684  0.4497
 3718TIP3    H132645   0.452   4.296   1.190  1.1445  0.0288 -0.2593
 3718TIP3    H232646   0.336   4.380   1.139  1.4584  0.6925  0.1067
 3719TIP3   OH232647   0.497   4.732  12.166 -0.3399 -0.3224  0.5892
 3719TIP3    H132648   0.536   4.693  12.245  0.6148 -0.7992 -0.1023
 3719TIP3    H232649   0.482   4.823  12.189 -1.5227 -0.7959  1.8465
 3720TIP3   OH232650   6.232   2.846   5.432 -0.0790 -0.2864 -0.1789
 3720TIP3    H132651   6.185   2.766   5.454  0.2835 -0.5545 -0.3582
 3720TIP3    H232652   6.195   2.874   5.349 -1.8991  1.0797  1.0169
 3721TIP3   OH232653   5.255   4.235  14.025  0.1280 -0.2688  0.0739
 3721TIP3    H132654   5.309   4.277  14.092 -0.1008  0.3332 -0.1133
 3721TIP3    H232655   5.190   4.184  14.074  0.6237 -0.6921  0.3019
 3722TIP3   OH232656   5.526   3.018  16.562 -0.6167 -0.1257 -0.7677
 3722TIP3    H132657   5.493   3.068  16.487  0.5359  0.4967 -0.8737
 3722TIP3    H232658   5.470   3.046  16.635 -0.5940  0.6086 -1.0222
 3723TIP3   OH232659   0.951   0.185  13.659  0.3427 -0.0031 -0.2861
 3723TIP3    H132660   0.946   0.268  13.707  0.3363 -1.1044  1.6909
 3723TIP3    H232661   1.045   0.174  13.642  0.5005 -0.2551  0.6937
 3724TIP3   OH232662   3.312   4.799   5.216 -0.0069 -0.4839 -0.7613
 3724TIP3    H132663   3.228   4.827   5.252  1.1099  1.2313  0.6369
 3724TIP3    H232664   3.324   4.710   5.251 -1.0674 -0.6328 -0.7319
 3725TIP3   OH232665   0.472   5.069   4.863  0.6162 -0.4714  0.3477
 3725TIP3    H132666   0.469   5.007   4.791 -1.9015 -0.8098  0.6549
 3725TIP3    H232667   0.424   5.145   4.831 -0.0231 -0.3936  1.4525
 3726TIP3   OH232668   5.744   2.699   2.414  0.0048 -0.2136 -0.5625
 3726TIP3    H132669   5.792   2.617   2.410 -1.6091 -1.2397  0.1566
 3726TIP3    H232670   5.736   2.727   2.323  2.0035  0.0687 -0.6989
 3727TIP3   OH232671   2.125   5.586  12.804  0.1938 -0.1800 -0.1038
 3727TIP3    H132672   2.191   5.637  12.757  0.3577 -1.2904 -1.1182
 3727TIP3    H232673   2.052   5.647  12.816  0.3501  0.2770 -1.3735
 3728TIP3   OH232674   2.310   0.299   6.047 -0.4384  0.9216 -0.1785
 3728TIP3    H132675   2.337   0.245   6.121 -2.1194  0.9410  0.4841
 3728TIP3    H232676   2.362   0.379   6.056 -0.8556  1.0596  1.1775
 3729TIP3   OH232677   5.561   2.534  15.258 -0.0605  0.6492  0.1463
 3729TIP3    H132678   5.475   2.561  15.291 -0.8592  0.5003 -1.6464
 3729TIP3    H232679   5.623   2.593  15.301 -0.9902  0.4805  1.8159
 3730TIP3   OH232680   0.550   4.279  14.588  0.4630 -0.0566 -0.0295
 3730TIP3    H132681   0.525   4.227  14.511 -1.5126 -1.0179  1.1658
 3730TIP3    H232682   0.524   4.368  14.566 -1.5650 -0.5732  0.0451
 3731TIP3   OH232683   4.629   6.038   1.864  0.5171 -0.1100 -0.1719
 3731TIP3    H132684   4.569   6.082   1.803  2.3315  2.3191 -0.3564
 3731TIP3    H232685   4.573   6.005   1.934 -1.1898  0.5599 -1.1633
 3732TIP3   OH232686   6.378   3.495   6.346 -0.1852  0.6493  0.3660
 3732TIP3    H132687   6.474   3.492   6.351 -0.2255  1.6276  2.4484
 3732TIP3    H232688   6.352   3.561   6.410 -2.2539  0.6973 -0.4487
 3733TIP3   OH232689   3.004   5.763   5.353  0.1156  0.1578  0.3348
 3733TIP3    H132690   3.001   5.746   5.259  1.8981  2.0386 -0.1329
 3733TIP3    H232691   3.042   5.683   5.390 -1.6684 -1.0765 -0.3295
 3734TIP3   OH232692   4.383   6.640   5.723  0.1155 -0.0814  0.6628
 3734TIP3    H132693   4.347   6.689   5.797  0.5363  0.5936  0.4363
 3734TIP3    H232694   4.346   6.683   5.646 -1.0026 -1.3273  0.4918
 3735TIP3   OH232695   0.546   1.070  12.259 -1.1203  0.2099  0.1112
 3735TIP3    H132696   0.477   1.105  12.315 -1.3809 -2.0463  1.3274
 3735TIP3    H232697   0.605   1.023  12.319  1.0162  1.3035 -1.0039
 3736TIP3   OH232698   3.778   0.265  12.382  0.2063 -0.5265  0.2109
 3736TIP3    H132699   3.839   0.203  12.421 -0.8316 -0.5747  1.8400
 3736TIP3    H232700   3.757   0.228  12.296 -0.5529 -2.5639  1.2238
 3737TIP3   OH232701   4.094   6.417  11.070 -0.2032  0.2038 -0.6078
 3737TIP3    H132702   4.067   6.409  10.979 -0.1176 -1.0381 -0.5397
 3737TIP3    H232703   4.091   6.328  11.104 -2.0139  0.8546  1.1291
 3738TIP3   OH232704   3.076   1.637  16.374  0.7545  0.2244 -0.1714
 3738TIP3    H132705   3.082   1.564  16.436 -2.7373  0.7582  0.9706
 3738TIP3    H232706   2.992   1.625  16.330  1.4216  1.9854 -2.1219
 3739TIP3   OH232707   5.621   1.133  13.053  0.0461  0.0855  0.0161
 3739TIP3    H132708   5.625   1.228  13.067 -0.0656 -0.3050  3.7391
 3739TIP3    H232709   5.713   1.106  13.050  0.0841  0.1749  0.3212
 3740TIP3   OH232710   1.563   3.205   5.470  0.4262 -0.5900 -0.1017
 3740TIP3    H132711   1.649   3.166   5.480  0.2389 -1.1590 -0.6541
 3740TIP3    H232712   1.501   3.133   5.484  0.0501 -0.2523  0.0003
 3741TIP3   OH232713   1.029   6.372  14.027  0.2254 -0.3782 -0.0452
 3741TIP3    H132714   1.082   6.452  14.034 -0.2689  0.0191 -0.7498
 3741TIP3    H232715   1.079   6.306  14.075 -0.2581  0.7847  2.1423
 3742TIP3   OH232716   0.561   2.295   3.799 -0.0172 -0.4373  0.7344
 3742TIP3    H132717   0.608   2.355   3.741 -1.9416  0.1891 -0.2818
 3742TIP3    H232718   0.617   2.218   3.805  0.1858 -0.6384 -2.2152
 3743TIP3   OH232719   3.909   3.930   5.870 -0.1315 -0.2330 -0.0377
 3743TIP3    H132720   3.926   3.850   5.920 -1.2971  0.1148  0.9650
 3743TIP3    H232721   3.955   3.917   5.787  1.9678 -0.7991  1.1483
 3744TIP3   OH232722   0.958   2.978   3.811 -0.4954  0.6443 -0.2954
 3744TIP3    H132723   1.043   2.985   3.854  0.5533 -0.3416 -2.0871
 3744TIP3    H232724   0.954   3.055   3.753  1.4211 -1.5903 -3.7769
 3745TIP3   OH232725   1.372   4.359  16.500  0.1885 -0.1980 -0.3611
 3745TIP3    H132726   1.444   4.367  16.563  1.1929  0.1210 -1.5171
 3745TIP3    H232727   1.412   4.375  16.415 -1.1425 -0.6305 -1.1016
 3746TIP3   OH232728   1.048   3.868   1.204  0.6983 -0.4051  0.2317
 3746TIP3    H132729   1.095   3.833   1.128  0.8124  1.7232 -0.7488
 3746TIP3    H232730   0.957   3.843   1.189  0.8760 -0.8836 -0.0765
 3747TIP3   OH232731   5.964   3.326  14.932  0.1647  0.2358  0.7312
 3747TIP3    H132732   5.894   3.363  14.985  0.3434  2.2950 -0.3881
 3747TIP3    H232733   5.921   3.297  14.852  0.5495  1.6211 -0.0133
 3748TIP3   OH232734   4.410   6.092  15.371  0.1295 -0.0965 -0.0847
 3748TIP3    H132735   4.421   6.040  15.451  0.6600 -1.1934 -0.8430
 3748TIP3    H232736   4.376   6.029  15.306  0.0384  0.6869 -0.8113
 3749TIP3   OH232737   3.835   6.441   5.049 -0.5452  0.0675 -0.1706
 3749TIP3    H132738   3.858   6.509   4.986  2.5048 -1.5476 -1.0052
 3749TIP3    H232739   3.907   6.443   5.112 -2.2366 -0.0796  1.8733
 3750TIP3   OH232740   3.585   0.026  12.493 -0.3275  0.3673  0.1811
 3750TIP3    H132741   3.615  -0.063  12.478 -1.5338 -0.3412  1.6700
 3750TIP3    H232742   3.657   0.068  12.540  0.3155  0.2481 -0.6824
 3751TIP3   OH232743   3.188   5.681   0.668 -0.0164  0.4316 -0.1084
 3751TIP3    H132744   3.126   5.695   0.740 -2.3059 -1.5915 -1.5098
 3751TIP3    H232745   3.166   5.748   0.604  1.0781  1.3487  0.4365
 3752TIP3   OH232746   1.515   5.460  13.579  0.1456  0.0650  0.7258
 3752TIP3    H132747   1.495   5.374  13.615 -1.2006  0.0886  0.0763
 3752TIP3    H232748   1.435   5.511  13.592 -0.3261  0.1589 -2.0417
 3753TIP3   OH232749   3.090   2.405   1.026 -0.3445  0.6396  0.6775
 3753TIP3    H132750   3.168   2.423   1.079 -1.2113  0.9135  1.9151
 3753TIP3    H232751   3.043   2.489   1.025 -1.2096  0.1683  0.9815
 3754TIP3   OH232752   3.473   2.959   4.734 -0.3958 -0.1151  0.0432
 3754TIP3    H132753   3.509   2.874   4.758 -0.2314  0.0126  0.2485
 3754TIP3    H232754   3.549   3.012   4.710 -0.2524  0.6806  2.0899
 3755TIP3   OH232755   5.727   5.856  11.557  0.1621 -0.2547  0.1328
 3755TIP3    H132756   5.741   5.868  11.463  1.3161  0.8230  0.4105
 3755TIP3    H232757   5.805   5.809  11.587  0.8747  1.3069  0.8734
 3756TIP3   OH232758   0.355   0.871   4.160 -0.1190 -0.3311  1.1906
 3756TIP3    H132759   0.418   0.902   4.224  1.9266 -0.1114 -0.7842
 3756TIP3    H232760   0.404   0.809   4.105 -1.9618 -1.0864  0.2786
 3757TIP3   OH232761   0.621   2.814   0.220  0.4604  0.5290 -0.0347
 3757TIP3    H132762   0.645   2.901   0.187  1.5503 -0.1481 -1.1377
 3757TIP3    H232763   0.586   2.768   0.143  1.6128 -0.5881  0.0673
 3758TIP3   OH232764   6.671   3.374   0.585  0.1473  0.3640 -0.1560
 3758TIP3    H132765   6.740   3.344   0.644 -0.4369 -0.6763  0.0262
 3758TIP3    H232766   6.687   3.327   0.504 -1.0341 -0.8521  0.2680
 3759TIP3   OH232767   4.196   0.292   4.640  0.7153  0.6325  0.0925
 3759TIP3    H132768   4.214   0.207   4.600 -0.8361 -0.0568  0.7883
 3759TIP3    H232769   4.200   0.275   4.734 -2.2790  0.6192  0.3238
 3760TIP3   OH232770   3.202   5.062   0.231 -0.0320 -0.4755  0.0851
 3760TIP3    H132771   3.207   4.998   0.160  1.4668 -0.1701 -0.1161
 3760TIP3    H232772   3.111   5.059   0.260 -0.3827 -1.4595 -1.0582
 3761TIP3   OH232773   1.806   6.825  12.228 -0.5666 -0.1510 -0.5812
 3761TIP3    H132774   1.739   6.866  12.284 -0.4789 -1.4682  0.5605
 3761TIP3    H232775   1.873   6.795  12.290  1.3124  1.4730 -1.7379
 3762TIP3   OH232776   6.427   0.248   0.107 -0.5790  0.3451  0.2519
 3762TIP3    H132777   6.348   0.288   0.070 -0.1169  1.0915  0.0480
 3762TIP3    H232778   6.463   0.196   0.035 -1.1743 -0.4704  0.5142
 3763TIP3   OH232779   4.854   2.753  13.133 -0.4583  0.1355 -0.4108
 3763TIP3    H132780   4.823   2.798  13.212 -2.2689  2.2456 -2.1689
 3763TIP3    H232781   4.937   2.714  13.159 -1.5322 -0.3496  2.8464
 3764TIP3   OH232782   1.942   3.585   1.700 -0.0234  0.3416  0.6073
 3764TIP3    H132783   1.884   3.521   1.742  1.1595 -0.6963  0.7223
 3764TIP3    H232784   2.000   3.614   1.769 -0.3173  1.3031  0.4686
 3765TIP3   OH232785   3.477   6.254   4.896 -0.3499 -0.2299  0.3212
 3765TIP3    H132786   3.507   6.304   4.819 -4.0565 -1.0298 -1.8789
 3765TIP3    H232787   3.502   6.164   4.877  1.4658 -0.0714  1.6716
 3766TIP3   OH232788   2.111   2.717  14.156 -0.1762  0.4999  0.3453
 3766TIP3    H132789   2.106   2.766  14.074  0.8818 -1.2638 -0.8319
 3766TIP3    H232790   2.146   2.780  14.219 -0.0057  1.5890 -0.7998
 3767TIP3   OH232791   6.511   5.297  15.362  0.1330  0.9701 -0.0911
 3767TIP3    H132792   6.494   5.386  15.392 -1.3042 -0.4484  3.8668
 3767TIP3    H232793   6.602   5.280  15.388 -0.5258  0.3783  2.0052
 3768TIP3   OH232794   0.908   1.591  16.561  0.2695  0.1454 -0.3096
 3768TIP3    H132795   0.837   1.650  16.588  2.0473  1.5127  1.6373
 3768TIP3    H232796   0.867   1.534  16.496 -2.3909  1.4129  0.1013
 3769TIP3   OH232797   4.644   5.552   3.827  0.1431  0.5441 -0.3119
 3769TIP3    H132798   4.688   5.497   3.892  0.0850  1.2476  0.3368
 3769TIP3    H232799   4.701   5.550   3.751  0.6741  0.4454  0.0860
 3770TIP3   OH232800   4.182   1.009  13.184 -0.2756  0.2052  0.4449
 3770TIP3    H132801   4.122   0.979  13.116  0.0110 -1.9754  1.0491
 3770TIP3    H232802   4.233   0.931  13.206  1.0368  1.3682  1.7228
 3771TIP3   OH232803   6.497   1.205  14.383 -0.7648  0.0672 -0.2434
 3771TIP3    H132804   6.523   1.276  14.324  0.0833  1.6324  1.9074
 3771TIP3    H232805   6.412   1.231  14.418 -0.2526  0.2784  0.8890
 3772TIP3   OH232806   3.178   6.699  16.927  0.3166  0.3173  0.1955
 3772TIP3    H132807   3.221   6.781  16.906  1.0329  0.4378  1.9268
 3772TIP3    H232808   3.089   6.708  16.894  0.7784  1.2255 -0.8445
 3773TIP3   OH232809   0.207   5.129  15.421  0.1797 -0.0273  0.2730
 3773TIP3    H132810   0.167   5.200  15.371  1.4591  0.3983 -0.1954
 3773TIP3    H232811   0.295   5.161  15.442  0.3354 -0.9706  1.1529
 3774TIP3   OH232812   2.810   1.892  14.126 -0.3822  0.0769 -0.6547
 3774TIP3    H132813   2.856   1.970  14.094  1.4741 -1.1668 -1.1496
 3774TIP3    H232814   2.725   1.925  14.155  0.3175  2.2672 -0.9201
 3775TIP3   OH232815   3.701   4.298   3.242  0.1401  0.2235  0.1946
 3775TIP3    H132816   3.673   4.278   3.331  1.5388  1.6815  1.0157
 3775TIP3    H232817   3.781   4.349   3.253  0.8677 -0.3520 -1.9286
 3776TIP3   OH232818   2.732   2.022   1.878 -0.2563  0.1063 -0.8099
 3776TIP3    H132819   2.787   1.948   1.901 -0.5392 -0.0960 -0.7827
 3776TIP3    H232820   2.789   2.078   1.823  0.8785  1.2949  1.4449
 3777TIP3   OH232821   3.729   2.374   5.027 -0.2001  0.0430  0.8055
 3777TIP3    H132822   3.732   2.369   5.122  0.9305 -0.3633  0.7625
 3777TIP3    H232823   3.765   2.460   5.006  0.2695 -0.1717  0.7206
 3778TIP3   OH232824   4.482   4.208  12.598  0.4281 -0.5120  0.3833
 3778TIP3    H132825   4.428   4.287  12.596  0.4831 -0.4767  0.2645
 3778TIP3    H232826   4.443   4.154  12.667 -0.8523 -1.2489 -0.8437
 3779TIP3   OH232827   3.153   1.767  14.880  0.0657 -0.2975 -0.2122
 3779TIP3    H132828   3.111   1.700  14.826  0.1859 -1.2012  0.7958
 3779TIP3    H232829   3.106   1.848  14.859 -1.6283 -1.1314  0.2842
 3780TIP3   OH232830   1.688   2.954  10.994 -0.3821  0.2364  0.0911
 3780TIP3    H132831   1.722   3.036  10.958  0.1707 -0.8869 -2.0920
 3780TIP3    H232832   1.597   2.950  10.964 -0.1103 -0.4052 -0.6747
 3781TIP3   OH232833   4.760   2.052  12.460  0.6875 -0.5412  0.3078
 3781TIP3    H132834   4.731   2.052  12.551 -0.7098 -0.4808 -0.1155
 3781TIP3    H232835   4.679   2.060  12.409  1.5472  1.1208 -0.8993
 3782TIP3   OH232836   2.838   4.603   1.001  0.2294 -0.6200 -0.0328
 3782TIP3    H132837   2.821   4.578   1.092  2.3518  0.7802  0.8198
 3782TIP3    H232838   2.931   4.584   0.987  0.3142  0.6067 -1.4159
 3783TIP3   OH232839   5.885   4.668  15.380 -0.0798 -0.1925 -0.1555
 3783TIP3    H132840   5.950   4.601  15.402  0.1632  0.7112  2.0985
 3783TIP3    H232841   5.866   4.712  15.463 -2.0977  0.8995 -1.1153
 3784TIP3   OH232842   1.536   2.194  13.858  0.0781 -0.1065  0.0158
 3784TIP3    H132843   1.536   2.147  13.774 -0.1311 -0.7639  0.3752
 3784TIP3    H232844   1.468   2.260  13.849  0.4935  0.2518 -0.5618
 3785TIP3   OH232845   3.747   1.365  17.149  0.5234 -0.8938  0.5269
 3785TIP3    H132846   3.831   1.367  17.103  0.2806 -1.0373  0.0657
 3785TIP3    H232847   3.704   1.286  17.117 -1.0977  0.7179 -1.6459
 3786TIP3   OH232848   4.213   1.533  11.009  0.6560  0.1304  0.5063
 3786TIP3    H132849   4.304   1.525  10.977  0.4674  0.6823 -0.1954
 3786TIP3    H232850   4.168   1.459  10.969  0.5226  0.5642 -0.1598
 3787TIP3   OH232851   0.952   1.923  17.198 -0.3781 -0.2019  0.1858
 3787TIP3    H132852   0.972   1.833  17.221 -0.2646 -0.8406 -2.1195
 3787TIP3    H232853   0.857   1.929  17.203 -0.4228 -0.6098 -0.1630
 3788TIP3   OH232854   2.085   3.852   5.477 -0.8282  0.8089  0.1866
 3788TIP3    H132855   2.036   3.778   5.514 -0.1807 -1.7679 -3.5045
 3788TIP3    H232856   2.160   3.863   5.535 -0.6088 -1.9429  0.5589
 3789TIP3   OH232857   3.307   5.017   0.541  0.0764  0.4258  0.6311
 3789TIP3    H132858   3.260   5.061   0.612 -0.0298  2.4632 -0.5947
 3789TIP3    H232859   3.274   4.928   0.542 -1.2941  0.8918  1.9575
 3790TIP3   OH232860   6.518   0.007   6.115  0.0912 -0.3920  0.2271
 3790TIP3    H132861   6.595  -0.045   6.091  1.7395  2.5161 -1.2490
 3790TIP3    H232862   6.540   0.043   6.201  1.2938  1.8379 -0.9269
 3791TIP3   OH232863   1.401   4.658   0.978  0.3842 -0.4730  0.5294
 3791TIP3    H132864   1.449   4.698   0.905  1.6247  0.0505  1.5757
 3791TIP3    H232865   1.321   4.624   0.939  0.8716  0.0602 -1.0132
 3792TIP3   OH232866   2.357   4.409   1.313 -0.0448 -0.1703 -0.3440
 3792TIP3    H132867   2.295   4.435   1.245 -1.3124 -1.0045  0.4680
 3792TIP3    H232868   2.303   4.375   1.384  1.2293  0.9105  1.2218
 3793TIP3   OH232869   5.374   4.873  11.090  0.1582 -0.4252  0.0601
 3793TIP3    H132870   5.427   4.795  11.078  1.1320  0.3748 -1.0328
 3793TIP3    H232871   5.413   4.916  11.166  1.3166  0.3088 -0.9111
 3794TIP3   OH232872   3.644   5.854  10.887  0.0787 -0.7109 -0.0568
 3794TIP3    H132873   3.695   5.792  10.941  0.8949  1.2056  1.5191
 3794TIP3    H232874   3.561   5.862  10.933 -0.1048 -0.7871 -0.3754
 3795TIP3   OH232875   4.591   2.313   0.349 -0.6389 -0.1607  0.2330
 3795TIP3    H132876   4.549   2.236   0.310  0.1809 -0.6689  0.3327
 3795TIP3    H232877   4.541   2.330   0.429 -0.3415 -1.0919  0.6372
 3796TIP3   OH232878   6.703   4.925  13.840  0.4671  0.2435  0.3100
 3796TIP3    H132879   6.768   4.883  13.896  0.4256 -1.1811 -0.6692
 3796TIP3    H232880   6.619   4.899  13.878  0.4440  0.1540  0.1961
 3797TIP3   OH232881   4.797   0.240  13.299 -0.2157 -0.3832 -0.3911
 3797TIP3    H132882   4.812   0.191  13.218  0.2362  0.1924 -0.6595
 3797TIP3    H232883   4.776   0.329  13.269  1.4670  0.2292  0.1492
 3798TIP3   OH232884   3.359   1.583  11.769 -0.3729 -0.5541  0.0729
 3798TIP3    H132885   3.277   1.549  11.733 -0.0026 -2.0599  0.6089
 3798TIP3    H232886   3.361   1.554  11.860 -0.3861  1.5953  0.8247
 3799TIP3   OH232887   3.652   0.332  16.346 -0.4128 -0.3588  0.0179
 3799TIP3    H132888   3.594   0.334  16.423  0.0071  0.6096  0.3263
 3799TIP3    H232889   3.610   0.271  16.286 -0.6153 -1.3527  1.1269
 3800TIP3   OH232890   5.031   4.802  16.065 -0.1824  0.3355  0.0784
 3800TIP3    H132891   5.069   4.856  15.996  1.3701 -1.2814 -0.3819
 3800TIP3    H232892   5.055   4.847  16.146  0.3390  0.7870 -0.3225
 3801TIP3   OH232893   5.662   5.775  12.841 -0.0963  0.4713  0.1928
 3801TIP3    H132894   5.673   5.860  12.882  0.4421  0.3082  0.3940
 3801TIP3    H232895   5.746   5.732  12.852 -0.5729 -0.3550  0.7010
 3802TIP3   OH232896   1.894   5.061   0.623  0.5259 -0.2420  0.1729
 3802TIP3    H132897   1.869   5.045   0.714 -0.6160  0.8324  0.0796
 3802TIP3    H232898   1.958   5.133   0.628  0.4690 -0.1881  0.1302
 3803TIP3   OH232899   3.504   5.251  11.283 -0.0855  1.0815 -0.0228
 3803TIP3    H132900   3.540   5.182  11.226  0.6026  1.5895 -0.2170
 3803TIP3    H232901   3.413   5.260  11.255 -0.5085 -0.5121  0.7488
 3804TIP3   OH232902   0.982   3.830  12.147 -0.2795  0.2087  0.2832
 3804TIP3    H132903   0.956   3.784  12.067  0.3415  0.7279 -0.2149
 3804TIP3    H232904   0.921   3.903  12.153  0.4126  0.8492 -0.3524
 3805TIP3   OH232905   4.581   2.444  12.890  0.1994 -0.0785 -0.2867
 3805TIP3    H132906   4.627   2.467  12.810  2.0287 -1.8483  0.1695
 3805TIP3    H232907   4.489   2.464  12.871  0.7454  0.8389 -2.2910
 3806TIP3   OH232908   3.828   6.137  13.555  0.0701  0.5065  0.2128
 3806TIP3    H132909   3.774   6.195  13.502 -1.1849 -2.4912 -2.0714
 3806TIP3    H232910   3.852   6.065  13.495  0.8998 -1.7149  2.9926
 3807TIP3   OH232911   2.146   5.746  13.852  0.0332 -0.1410 -0.1145
 3807TIP3    H132912   2.164   5.840  13.855  1.4064 -0.3771 -0.0728
 3807TIP3    H232913   2.108   5.726  13.937  0.0803  0.3168  0.0153
 3808TIP3   OH232914   1.012   4.517  14.132 -0.3518 -0.4114  0.5122
 3808TIP3    H132915   1.081   4.553  14.187  1.0972 -0.5245 -1.1304
 3808TIP3    H232916   1.037   4.542  14.043 -2.3237 -0.6577 -0.1728
 3809TIP3   OH232917   2.327   2.823   5.726 -0.1236 -0.0931  0.2688
 3809TIP3    H132918   2.417   2.830   5.759 -0.7627  1.6016  1.8163
 3809TIP3    H232919   2.329   2.749   5.666  2.1733 -0.4603  0.7203
 3810TIP3   OH232920   2.540   2.851   3.613 -0.3969 -0.3368 -0.0103
 3810TIP3    H132921   2.452   2.820   3.637 -0.5766  0.7880  0.8583
 3810TIP3    H232922   2.592   2.771   3.604 -1.1429 -0.9561  0.9561
 3811TIP3   OH232923   1.477   5.570  10.875  0.2872 -0.1570  0.1822
 3811TIP3    H132924   1.468   5.480  10.844 -0.9088  0.2493 -0.7534
 3811TIP3    H232925   1.400   5.584  10.930  0.3495  0.3602  0.1390
 3812TIP3   OH232926   2.073   6.791  14.592 -0.9553  0.5070 -0.0404
 3812TIP3    H132927   2.161   6.828  14.585 -1.7303  2.1934 -1.5110
 3812TIP3    H232928   2.045   6.812  14.681  0.8574 -1.9231  1.2210
 3813TIP3   OH232929   1.397   0.252   5.462 -0.5024  0.5342  0.5551
 3813TIP3    H132930   1.303   0.234   5.461 -0.5326  0.6278 -0.6840
 3813TIP3    H232931   1.423   0.242   5.553 -1.3016 -1.5743  0.5960
 3814TIP3   OH232932   0.676   1.371  16.908 -0.1493  0.2412 -0.0388
 3814TIP3    H132933   0.650   1.376  17.000  1.1944  0.8576  0.3494
 3814TIP3    H232934   0.698   1.279  16.895  0.2743  0.2615  0.4634
 3815TIP3   OH232935   1.704   2.042   1.716  0.1161  0.1133  0.2886
 3815TIP3    H132936   1.755   2.123   1.711  0.1068  0.1840  1.1885
 3815TIP3    H232937   1.771   1.972   1.721  0.1217  0.1074  0.1426
 3816TIP3   OH232938   5.911   6.685   0.019  0.5247 -0.3050  0.5882
 3816TIP3    H132939   5.928   6.778   0.035 -1.4489  0.1847  0.1621
 3816TIP3    H232940   5.858   6.658   0.094  0.2115 -0.7919  0.1976
 3817TIP3   OH232941   0.288   1.647   2.875  0.0926 -0.2794 -0.2487
 3817TIP3    H132942   0.209   1.657   2.927  0.7278  1.9778  0.3962
 3817TIP3    H232943   0.262   1.671   2.786 -0.6195 -2.6027 -0.7338
 3818TIP3   OH232944   6.043   4.535  14.399 -0.3304 -0.1869 -0.0096
 3818TIP3    H132945   6.122   4.501  14.441  0.0996 -0.2055 -0.8112
 3818TIP3    H232946   6.043   4.628  14.423  0.2584 -0.0576 -0.4806
 3819TIP3   OH232947   6.693   3.688   4.600  0.4594  0.3980 -0.1318
 3819TIP3    H132948   6.731   3.644   4.524  0.8420 -0.0097  0.2897
 3819TIP3    H232949   6.622   3.630   4.628 -1.2315  1.6749 -1.5680
 3820TIP3   OH232950   1.521   4.425  14.626 -0.1110 -0.5293  0.3066
 3820TIP3    H132951   1.585   4.434  14.556 -0.3752 -2.6317 -0.2589
 3820TIP3    H232952   1.569   4.443  14.706  0.1253  2.2709 -0.3465
 3821TIP3   OH232953   0.836   5.074  16.651 -0.1140 -0.4948 -0.1773
 3821TIP3    H132954   0.901   5.109  16.712  0.3847 -0.5462 -0.6712
 3821TIP3    H232955   0.797   5.001  16.697  0.0536 -0.3531  0.1963
 3822TIP3   OH232956   5.056   6.335  12.867 -1.0317 -0.2259 -0.3606
 3822TIP3    H132957   5.054   6.426  12.840  0.3548  0.1471  0.6448
 3822TIP3    H232958   5.085   6.287  12.790  0.2976  0.4749 -0.3272
 3823TIP3   OH232959   2.884   1.181  16.428  0.1357 -0.6834  0.4494
 3823TIP3    H132960   2.845   1.172  16.515  1.3635 -0.2668  1.0669
 3823TIP3    H232961   2.967   1.133  16.434  1.4066  1.3553  0.2971
 3824TIP3   OH232962   3.863   1.827  13.569  0.0130  0.0628  0.0328
 3824TIP3    H132963   3.809   1.773  13.627 -1.3398  0.5455 -0.7459
 3824TIP3    H232964   3.929   1.766  13.536 -0.7578 -0.8382  0.0983
 3825TIP3   OH232965   4.650   2.845  16.589  0.3871 -0.3363  0.5247
 3825TIP3    H132966   4.685   2.919  16.539 -1.8340 -0.2058 -0.9368
 3825TIP3    H232967   4.564   2.828  16.550  0.7102 -3.5313  0.9795
 3826TIP3   OH232968   5.804   5.262  11.048  0.8327  0.4621  0.2394
 3826TIP3    H132969   5.844   5.176  11.059 -1.0462 -0.4902  0.1440
 3826TIP3    H232970   5.761   5.258  10.963 -1.0190  0.6968  1.1025
 3827TIP3   OH232971   4.986   4.554   3.151 -0.3868 -0.8085 -0.0512
 3827TIP3    H132972   4.915   4.537   3.214  0.0553 -1.0252  0.3919
 3827TIP3    H232973   4.941   4.584   3.072 -0.9870 -1.1222  0.1657
 3828TIP3   OH232974   1.785   1.737  11.428  0.3228 -0.3534  0.3256
 3828TIP3    H132975   1.766   1.813  11.373  0.0294 -1.8431 -1.7889
 3828TIP3    H232976   1.699   1.699  11.447  0.5467 -2.4861 -2.2995
 3829TIP3   OH232977   5.359   1.053   3.628  0.2400  0.1299 -0.0001
 3829TIP3    H132978   5.450   1.030   3.606  0.3418  0.3182  0.2225
 3829TIP3    H232979   5.306   0.988   3.581  0.5458 -0.9460  1.0946
 3830TIP3   OH232980   3.676   4.691   1.697 -0.4146 -0.3820  0.0180
 3830TIP3    H132981   3.584   4.690   1.673 -0.8123 -1.6829  1.4585
 3830TIP3    H232982   3.697   4.784   1.707 -1.5479 -0.0681 -0.3799
 3831TIP3   OH232983   1.440   2.768  16.738  0.5294  0.3393  0.6096
 3831TIP3    H132984   1.415   2.733  16.653 -0.0937 -0.8406  1.2609
 3831TIP3    H232985   1.497   2.702  16.776  0.4049  0.6263  1.3206
 3832TIP3   OH232986   1.975   5.692  12.206 -0.4486 -0.0225  0.3970
 3832TIP3    H132987   1.882   5.671  12.196 -0.7793  1.0116  1.1616
 3832TIP3    H232988   1.995   5.668  12.297  0.6613 -2.4735 -0.4129
 3833TIP3   OH232989   2.184   2.713  16.076  0.0620  0.6660  0.1719
 3833TIP3    H132990   2.199   2.715  15.981  0.1107 -1.2951  0.0913
 3833TIP3    H232991   2.157   2.802  16.098  0.4964  1.2817 -1.6025
 3834TIP3   OH232992   4.426   1.200   4.622 -0.1013 -0.4854  0.3081
 3834TIP3    H132993   4.502   1.143   4.631  0.8739  0.9182  1.4755
 3834TIP3    H232994   4.410   1.232   4.711 -2.1936 -0.8907  0.1249
 3835TIP3   OH232995   0.349   5.961   3.074 -0.0178  0.3839  0.1790
 3835TIP3    H132996   0.345   6.033   3.010  1.7377 -2.1196 -3.0508
 3835TIP3    H232997   0.299   5.890   3.034  1.3343 -1.3917  1.4739
 3836TIP3   OH232998   2.415   5.924   1.747 -0.0728 -0.1500 -0.5391
 3836TIP3    H132999   2.418   6.017   1.770  0.3121 -0.0220 -1.0862
 3836TIP3    H233000   2.503   5.905   1.713 -0.7268 -0.2364 -2.2518
 3837TIP3   OH233001   4.640   2.977   2.392  0.1392  0.4803  0.8719
 3837TIP3    H133002   4.599   2.945   2.473  0.3306  2.3294  1.7417
 3837TIP3    H233003   4.607   3.067   2.382  1.8664  1.0672  0.1159
 3838TIP3   OH233004   3.204   5.917   5.937 -0.5271  0.0301 -0.2100
 3838TIP3    H133005   3.187   5.962   6.020  0.5807 -2.2342  1.3251
 3838TIP3    H233006   3.271   5.970   5.895 -0.5571  0.8103  0.6836
 3839TIP3   OH233007   5.158   0.784  12.090  0.5961 -0.0119 -0.5119
 3839TIP3    H133008   5.183   0.863  12.139 -0.4261 -0.1296  0.2182
 3839TIP3    H233009   5.217   0.716  12.122  0.7116  0.1856 -0.3051
 3840TIP3   OH233010   6.008   4.588  16.332  0.4535 -0.0759 -0.1764
 3840TIP3    H133011   6.006   4.683  16.334 -1.5501 -0.0902  0.3475
 3840TIP3    H233012   6.009   4.567  16.238 -0.3088  0.4722 -0.3194
 3841TIP3   OH233013   0.392   4.350  11.659  0.1062 -0.2576 -0.1055
 3841TIP3    H133014   0.385   4.394  11.574  0.2490  1.3396  0.6848
 3841TIP3    H233015   0.302   4.339  11.688  0.0788 -0.3720 -0.2281
 3842TIP3   OH233016   6.752   4.329   0.376 -0.0012 -0.0997  0.1622
 3842TIP3    H133017   6.717   4.247   0.339 -0.3859  1.2321 -2.7736
 3842TIP3    H233018   6.797   4.302   0.456 -0.0113 -3.1930 -0.7241
 3843TIP3   OH233019   4.700   2.147   5.654  0.4286  0.2946  0.7461
 3843TIP3    H133020   4.789   2.171   5.680  0.2435  0.9627  0.7946
 3843TIP3    H233021   4.658   2.231   5.635  0.0964 -0.0807 -0.2278
 3844TIP3   OH233022   1.626   1.758  17.138 -0.2954 -0.4410  0.0700
 3844TIP3    H133023   1.694   1.732  17.199  0.9464  0.7162 -0.7588
 3844TIP3    H233024   1.574   1.822  17.187  0.1527 -0.1786  0.2090
 3845TIP3   OH233025   3.804   2.146   4.537 -0.3744 -0.2041 -0.2117
 3845TIP3    H133026   3.709   2.152   4.547 -0.2734  1.8092 -0.0869
 3845TIP3    H233027   3.830   2.079   4.600 -1.5814  0.2534  0.8213
 3846TIP3   OH233028   0.386   1.176   0.431 -0.1148  0.0139  0.1032
 3846TIP3    H133029   0.388   1.133   0.345  2.1386  0.6485 -0.2504
 3846TIP3    H233030   0.464   1.143   0.475 -0.3286  0.9747  1.2393
 3847TIP3   OH233031   0.435   2.439   0.065  0.0130 -0.0598 -0.1784
 3847TIP3    H133032   0.346   2.475   0.064  0.9065  2.4453  1.6945
 3847TIP3    H233033   0.438   2.386   0.145  0.6853  1.3159  0.7354
 3848TIP3   OH233034   6.743   3.341   2.833 -0.1113 -0.3457 -0.3581
 3848TIP3    H133035   6.777   3.291   2.908 -1.6259 -2.8077 -1.1933
 3848TIP3    H233036   6.671   3.392   2.870 -0.1815 -0.7404  0.0672
 3849TIP3   OH233037   3.839   4.956  10.474 -0.0298  0.2709 -0.4586
 3849TIP3    H133038   3.876   4.923  10.556  0.9855  1.2947 -0.4904
 3849TIP3    H233039   3.808   4.877  10.429  1.6039 -0.5798 -0.1737
 3850TIP3   OH233040   0.736   3.607   3.030 -0.3824 -0.2293 -0.8105
 3850TIP3    H133041   0.652   3.569   3.003 -0.5993  0.3190 -0.9134
 3850TIP3    H233042   0.727   3.701   3.013 -0.1136 -0.0217  0.1206
 3851TIP3   OH233043   6.201   5.876  12.014 -0.6980 -0.1557 -0.6013
 3851TIP3    H133044   6.218   5.795  11.965  1.7730  1.4102 -2.6150
 3851TIP3    H233045   6.157   5.933  11.951  0.7953  1.2486 -0.4426
 3852TIP3   OH233046   1.346   4.077  15.243  0.4904  0.4313  0.1498
 3852TIP3    H133047   1.407   4.015  15.284  1.6128  0.9405 -0.6679
 3852TIP3    H233048   1.351   4.056  15.150 -0.1413  0.8727  0.0152
 3853TIP3   OH233049   3.679   0.712  10.613 -0.0468  0.8746  0.1599
 3853TIP3    H133050   3.706   0.777  10.679  0.3001  0.9415 -0.0482
 3853TIP3    H233051   3.760   0.686  10.570 -0.4151  1.9493 -1.2785
 3854TIP3   OH233052   1.848   5.883  15.893  0.1658  0.2184  0.5555
 3854TIP3    H133053   1.918   5.933  15.935  1.3800 -0.9624  0.0263
 3854TIP3    H233054   1.881   5.863  15.805 -1.0193 -0.0154  0.1349
 3855TIP3   OH233055   4.023   1.381  15.351 -0.1300 -0.1489 -0.1939
 3855TIP3    H133056   4.012   1.476  15.353  0.6694 -0.0652  1.3165
 3855TIP3    H233057   3.945   1.348  15.306 -0.8356  1.1509  0.0508
 3856TIP3   OH233058   2.599   2.743  11.913 -0.0207  0.3402  0.3137
 3856TIP3    H133059   2.544   2.794  11.854 -1.8354 -0.9250  0.8008
 3856TIP3    H233060   2.684   2.739  11.870 -1.4010 -1.0406 -2.5756
 3857TIP3   OH233061   3.648   0.375   0.391 -0.3396 -0.1513 -0.3999
 3857TIP3    H133062   3.660   0.470   0.390 -0.6849 -0.1092 -1.1176
 3857TIP3    H233063   3.642   0.350   0.299 -0.1674 -0.8864 -0.2253
 3858TIP3   OH233064   1.918   0.194   0.460  0.0874 -0.0964  0.3948
 3858TIP3    H133065   1.844   0.254   0.452  0.2479 -0.0493 -1.1430
 3858TIP3    H233066   1.931   0.161   0.371  0.2665 -2.1046  1.1241
 3859TIP3   OH233067   1.684   2.008  16.266  0.0935 -0.4943  0.0951
 3859TIP3    H133068   1.612   2.069  16.279 -0.8524 -1.7802  1.1548
 3859TIP3    H233069   1.691   1.998  16.171 -1.9018 -1.2214 -0.0094
 3860TIP3   OH233070   1.581   2.829   2.922 -0.7099 -0.1000  0.3639
 3860TIP3    H133071   1.590   2.908   2.870  0.0688 -0.1413  0.4168
 3860TIP3    H233072   1.516   2.776   2.876  0.7667 -0.6312 -1.2109
 3861TIP3   OH233073   6.590   2.574   3.159 -0.1768 -0.6220  0.4897
 3861TIP3    H133074   6.534   2.589   3.235 -0.1880 -0.8441  0.5274
 3861TIP3    H233075   6.667   2.628   3.174  0.0789 -1.1088  0.9392
 3862TIP3   OH233076   3.302   0.453  13.119  0.4466 -0.0598 -0.0970
 3862TIP3    H133077   3.343   0.380  13.164 -0.2975 -0.7136 -0.4577
 3862TIP3    H233078   3.364   0.478  13.051  0.2310 -1.0702 -0.6728
 3863TIP3   OH233079   3.576   6.369   4.664  0.7744 -0.2859  0.4617
 3863TIP3    H133080   3.626   6.405   4.591 -1.4169  0.1902 -0.8737
 3863TIP3    H233081   3.571   6.275   4.645  1.3091 -0.3791  0.7355
 3864TIP3   OH233082   6.156   5.142   1.733 -0.0935  0.2164  0.1699
 3864TIP3    H133083   6.089   5.076   1.714  0.1494  0.5705 -2.1797
 3864TIP3    H233084   6.106   5.218   1.765 -0.5973 -0.2815  0.5821
 3865TIP3   OH233085   0.232   0.632  12.683 -0.0088  0.4522  0.0264
 3865TIP3    H133086   0.278   0.589  12.611  0.9891  2.0080 -0.3187
 3865TIP3    H233087   0.206   0.561  12.741 -1.3840 -0.9126 -2.1300
 3866TIP3   OH233088   3.489   1.802   5.855  0.7319  0.1297 -0.1887
 3866TIP3    H133089   3.508   1.809   5.762  2.7378 -0.6259  0.1357
 3866TIP3    H233090   3.485   1.708   5.873 -2.3394  0.1943  0.0327
 3867TIP3   OH233091   5.872   4.147  12.884 -0.0176 -0.6140  0.3406
 3867TIP3    H133092   5.949   4.154  12.827 -0.2903 -2.4073 -0.2926
 3867TIP3    H233093   5.805   4.109  12.829 -1.0967  0.0374  1.1637
 3868TIP3   OH233094   0.234   0.532  11.500  0.0767  0.5344 -0.1655
 3868TIP3    H133095   0.202   0.586  11.428  1.3793  0.6039 -0.7231
 3868TIP3    H233096   0.297   0.472  11.459  0.9624  0.6827  0.9214
 3869TIP3   OH233097   0.619   6.201   0.422  0.2876 -0.0581  0.1469
 3869TIP3    H133098   0.641   6.292   0.401 -0.6143 -0.1814 -1.5689
 3869TIP3    H233099   0.694   6.168   0.471  0.1689  1.9068  1.7580
 3870TIP3   OH233100   6.323   1.331   2.304 -0.7274 -0.2339  0.9911
 3870TIP3    H133101   6.241   1.283   2.290  0.4270 -2.3345  0.9533
 3870TIP3    H233102   6.390   1.276   2.263  0.5706  2.1299 -0.2350
 3871TIP3   OH233103   3.289   2.488   4.177 -0.1851 -0.5219 -0.2471
 3871TIP3    H133104   3.289   2.413   4.118  0.0554 -0.7946  0.0930
 3871TIP3    H233105   3.362   2.543   4.146  0.2776 -0.9212  0.1075
 3872TIP3   OH233106   3.792   4.939  12.245  0.6061 -0.3073 -0.5079
 3872TIP3    H133107   3.788   5.035  12.241  0.6080 -0.2749  0.1588
 3872TIP3    H233108   3.711   4.914  12.288  0.2104 -0.6656 -1.4455
 3873TIP3   OH233109   4.649   3.166   2.716  0.1599 -0.4828  0.0007
 3873TIP3    H133110   4.650   3.070   2.713  0.8430 -0.4618 -1.0399
 3873TIP3    H233111   4.566   3.191   2.677 -0.9509 -0.6492  2.0698
 3874TIP3   OH233112   2.426   4.153  15.690 -0.3573 -0.9119  0.4636
 3874TIP3    H133113   2.406   4.060  15.679 -1.2980 -0.5603 -0.8890
 3874TIP3    H233114   2.421   4.190  15.602  2.3511 -0.0002  0.5935
 3875TIP3   OH233115   1.726   4.309  14.067 -0.1418  0.4707 -0.0251
 3875TIP3    H133116   1.686   4.391  14.096  0.3185  0.6235  0.1956
 3875TIP3    H233117   1.778   4.281  14.142  0.0484  0.2046 -0.2567
 3876TIP3   OH233118   0.731   5.100  10.993 -0.1324  0.0842  0.2179
 3876TIP3    H133119   0.728   5.089  10.898  1.7240  2.2700 -0.1605
 3876TIP3    H233120   0.733   5.194  11.007  1.2365 -0.1866  2.3529
 3877TIP3   OH233121   1.827   5.336  12.073  0.6064 -0.1327  0.2948
 3877TIP3    H133122   1.748   5.343  12.126  0.0424 -0.6829 -0.4678
 3877TIP3    H233123   1.858   5.246  12.088 -0.2345 -0.7042 -1.2423
 3878TIP3   OH233124   2.540   2.346   5.472 -0.0120  0.1940  0.1348
 3878TIP3    H133125   2.534   2.438   5.497  0.9061  0.6067 -1.0569
 3878TIP3    H233126   2.612   2.311   5.526 -0.8305 -0.0352  1.1102
 3879TIP3   OH233127   1.349   4.173   1.442 -0.3806  0.2790 -0.5662
 3879TIP3    H133128   1.343   4.264   1.414 -3.9290 -0.0179 -1.2577
 3879TIP3    H233129   1.296   4.168   1.522  1.6325 -0.8091  0.8007
 3880TIP3   OH233130   0.968   5.709  10.859  0.1252 -0.1247 -0.2493
 3880TIP3    H133131   0.912   5.688  10.784 -2.2162  2.0018  0.7832
 3880TIP3    H233132   1.011   5.791  10.835  0.8791 -0.4547 -0.0392
 3881TIP3   OH233133   4.654   6.700  16.165 -0.4669  0.3063  0.5122
 3881TIP3    H133134   4.643   6.632  16.099 -1.6261  0.7267  0.2463
 3881TIP3    H233135   4.634   6.782  16.119  0.1022  0.7510  1.0314
 3882TIP3   OH233136   2.963   5.819   0.474  0.2071 -0.1204  0.1762
 3882TIP3    H133137   2.889   5.874   0.448  0.7388  0.9658  0.8726
 3882TIP3    H233138   2.928   5.764   0.544  0.0846  0.5131  0.6268
 3883TIP3   OH233139   0.417   4.324   5.594 -0.5148  0.3751 -0.3015
 3883TIP3    H133140   0.427   4.300   5.501 -0.7422 -0.6230 -0.0880
 3883TIP3    H233141   0.498   4.296   5.635 -0.2557  1.1703 -0.2539
 3884TIP3   OH233142   1.479   1.156   3.173 -0.4416 -0.9889 -0.0252
 3884TIP3    H133143   1.523   1.135   3.256  1.9487  0.1697 -0.9069
 3884TIP3    H233144   1.415   1.223   3.196  2.2967  1.6469  0.5726
 3885TIP3   OH233145   1.806   5.055  13.270  0.0755 -0.6257  0.2278
 3885TIP3    H133146   1.747   5.020  13.337 -1.4347  1.5034  0.1202
 3885TIP3    H233147   1.885   5.003  13.278  0.0848 -0.2949  3.8844
 3886TIP3   OH233148   1.548   2.686   6.285 -0.4297 -0.2658 -0.3372
 3886TIP3    H133149   1.475   2.706   6.227 -0.5466 -1.4750 -0.6254
 3886TIP3    H233150   1.604   2.628   6.234  1.9880  2.4208 -1.0232
 3887TIP3   OH233151   1.906   3.784   3.979 -0.7052  0.2799  0.0765
 3887TIP3    H133152   1.999   3.799   3.994 -0.7996  0.3082  0.6474
 3887TIP3    H233153   1.878   3.859   3.926 -0.3343  0.0955 -0.3957
 3888TIP3   OH233154   3.847   4.991  13.239  0.1054  0.5113  0.4801
 3888TIP3    H133155   3.890   4.973  13.155  0.3950  3.0351  0.0089
 3888TIP3    H233156   3.895   5.065  13.275  0.7060 -1.1900  3.4933
 3889TIP3   OH233157   3.394   1.249   2.095  0.2813  0.5252 -0.5232
 3889TIP3    H133158   3.318   1.228   2.041 -0.2226  2.1745 -0.5152
 3889TIP3    H233159   3.357   1.293   2.172  1.1907  0.6807 -0.1645
 3890TIP3   OH233160   6.818   2.787   1.225  0.3163  0.8233  0.4729
 3890TIP3    H133161   6.879   2.713   1.235  0.3722  0.7564 -0.2912
 3890TIP3    H233162   6.869   2.864   1.250  1.1926  0.9448 -1.4633
 3891TIP3   OH233163   0.246   1.383  16.779  0.4206 -0.1507  0.3119
 3891TIP3    H133164   0.223   1.314  16.717 -1.7419  1.3001 -0.6143
 3891TIP3    H233165   0.177   1.448  16.770  2.1303  1.9679  1.4504
 3892TIP3   OH233166   2.727   1.362   1.686  0.4284 -0.3310  0.0553
 3892TIP3    H133167   2.821   1.367   1.702  0.4584  1.4350 -0.4028
 3892TIP3    H233168   2.691   1.327   1.767  1.4022 -0.1689  0.5803
 3893TIP3   OH233169   3.845   5.196  14.004  0.1232 -0.6425 -0.2623
 3893TIP3    H133170   3.933   5.216  14.035 -0.0600 -0.2056 -0.0274
 3893TIP3    H233171   3.794   5.179  14.083  0.1126 -1.4082 -0.4206
 3894TIP3   OH233172   5.540   4.864   2.288 -0.6627 -0.2558 -0.2650
 3894TIP3    H133173   5.454   4.905   2.278 -0.7791 -0.5601 -0.5329
 3894TIP3    H233174   5.596   4.934   2.320 -0.5257  0.5264 -2.0711
 3895TIP3   OH233175   2.373   1.525   1.141 -0.6274 -0.2549  0.4014
 3895TIP3    H133176   2.369   1.528   1.045  0.3694  0.2079  0.3641
 3895TIP3    H233177   2.360   1.615   1.168 -0.7753 -0.3662  0.7077
 3896TIP3   OH233178   4.957   3.597   2.744 -0.1863 -0.0164 -0.1035
 3896TIP3    H133179   5.011   3.592   2.823 -0.8423  0.0516  0.3582
 3896TIP3    H233180   4.876   3.552   2.767  0.1773 -1.3211 -1.2376
 3897TIP3   OH233181   0.308   4.498   4.907  0.0211  0.2512  0.5759
 3897TIP3    H133182   0.276   4.502   4.997  0.1257 -0.2588  0.6367
 3897TIP3    H233183   0.275   4.415   4.873  0.8271 -0.0356  0.4730
 3898TIP3   OH233184   6.792   1.617  15.921  0.1406 -0.0437 -0.1627
 3898TIP3    H133185   6.797   1.668  16.002  0.8023  1.5033 -1.1265
 3898TIP3    H233186   6.708   1.642  15.882 -0.0943 -0.6485 -0.0509
 3899TIP3   OH233187   5.334   2.177   5.415  0.0160  0.0452  0.3364
 3899TIP3    H133188   5.333   2.084   5.439  0.4847 -0.2141 -0.5951
 3899TIP3    H233189   5.258   2.214   5.458 -0.2246 -0.7994  0.6474
 3900TIP3   OH233190   2.794   4.156   5.471 -0.1134  0.2269 -0.0299
 3900TIP3    H133191   2.865   4.218   5.486  0.9857 -0.8814 -0.5292
 3900TIP3    H233192   2.837   4.077   5.440 -1.5387 -0.6096  0.0465
 3901TIP3   OH233193   5.550   1.858  10.710 -0.6511  0.1796  0.1230
 3901TIP3    H133194   5.487   1.931  10.707 -0.6186  0.2221  0.4306
 3901TIP3    H233195   5.585   1.853  10.621  0.5538  1.6023  0.4925
 3902TIP3   OH233196   2.830   6.115  13.350 -0.5446  0.4637 -0.1156
 3902TIP3    H133197   2.916   6.155  13.359  0.1777 -0.3544 -2.5307
 3902TIP3    H233198   2.848   6.025  13.322 -2.1755  0.2001 -0.4625
 3903TIP3   OH233199   6.156   4.763   6.116  0.1363  0.4669  0.0737
 3903TIP3    H133200   6.150   4.713   6.198 -2.0670 -1.1367 -0.9606
 3903TIP3    H233201   6.100   4.839   6.130 -0.6606 -0.0752 -0.0754
 3904TIP3   OH233202   5.366   5.750  12.804  0.2205  0.6105 -0.0519
 3904TIP3    H133203   5.447   5.781  12.844  0.1664  0.3903  0.2324
 3904TIP3    H233204   5.384   5.659  12.780 -0.1212  0.3823  0.5293
 3905TIP3   OH233205   3.990   1.645   0.146  0.1824  0.0690 -0.0390
 3905TIP3    H133206   4.015   1.556   0.170 -3.2112 -1.0703 -0.1640
 3905TIP3    H233207   4.017   1.654   0.054  2.4219  0.0311  0.5609
 3906TIP3   OH233208   5.642   6.687  15.749 -0.5198  0.0804  0.2598
 3906TIP3    H133209   5.561   6.657  15.708 -0.3123 -0.0962 -0.0358
 3906TIP3    H233210   5.640   6.782  15.740 -0.6378  0.0671  0.1413
 3907TIP3   OH233211   3.713   6.710  15.329 -0.1052  0.3949  0.3866
 3907TIP3    H133212   3.803   6.679  15.321 -0.3094 -0.2821  0.6434
 3907TIP3    H233213   3.667   6.641  15.377 -0.7023  0.8527  0.4962
 3908TIP3   OH233214   4.579   1.432  16.590  0.0053 -0.1370 -0.3311
 3908TIP3    H133215   4.558   1.378  16.666 -1.1683 -2.2727 -2.0796
 3908TIP3    H233216   4.537   1.516  16.608  1.1520  0.0079  2.0652
 3909TIP3   OH233217   3.399   4.308   5.447  0.2844 -0.1052 -0.0756
 3909TIP3    H133218   3.358   4.342   5.526 -1.4651 -0.3559 -0.8396
 3909TIP3    H233219   3.459   4.241   5.479  0.2747  0.4070  1.0892
 3910TIP3   OH233220   1.087   3.187  14.013 -0.1618 -0.2445 -0.6039
 3910TIP3    H133221   1.082   3.234  14.096  0.0018 -3.0085  1.0969
 3910TIP3    H233222   0.996   3.175  13.987 -0.3273 -1.3574  0.4245
 3911TIP3   OH233223   3.050   3.932  11.781 -0.4177 -0.2934  0.2691
 3911TIP3    H133224   3.106   4.003  11.813 -1.3746  2.8063 -4.0645
 3911TIP3    H233225   3.111   3.860  11.762  0.8685 -0.0027  2.8692
 3912TIP3   OH233226   5.016   6.041  12.283  0.0550  0.2555  0.4502
 3912TIP3    H133227   4.935   6.041  12.335 -0.6543  1.1007 -0.6267
 3912TIP3    H233228   4.992   5.996  12.202  0.0405  2.3385 -0.7685
 3913TIP3   OH233229   4.637   4.893  13.427  0.6307  0.3196 -0.0650
 3913TIP3    H133230   4.544   4.914  13.430  1.0157  2.2329 -0.5598
 3913TIP3    H233231   4.646   4.818  13.485 -1.4135 -0.7461 -1.0088
 3914TIP3   OH233232   6.310   1.863   1.887 -0.4116 -0.0016  0.2808
 3914TIP3    H133233   6.385   1.919   1.908 -0.6002  0.2922  0.1768
 3914TIP3    H233234   6.289   1.820   1.970  1.5576 -2.1752 -0.2335
 3915TIP3   OH233235   0.966   2.596   0.057 -0.4811 -0.7625  0.6486
 3915TIP3    H133236   0.965   2.671  -0.002  1.0506 -1.1545  0.0624
 3915TIP3    H233237   0.949   2.520   0.000  0.9796 -1.1401  0.6537
 3916TIP3   OH233238   5.446   1.605   4.144  0.3561  0.0370  0.1933
 3916TIP3    H133239   5.513   1.553   4.099 -0.5517 -0.0688 -1.1065
 3916TIP3    H233240   5.478   1.613   4.234  1.5293 -1.0024 -0.0994
 3917TIP3   OH233241   4.696   1.128   6.123  0.3728  0.3729  0.0790
 3917TIP3    H133242   4.789   1.116   6.103  0.3897  1.9843 -0.9817
 3917TIP3    H233243   4.668   1.198   6.065 -1.7831 -0.7672 -0.3522
 3918TIP3   OH233244   6.721   0.288  17.018  0.0140 -0.1033 -0.5204
 3918TIP3    H133245   6.680   0.352  17.077 -2.4716 -0.6928 -1.4877
 3918TIP3    H233246   6.791   0.337  16.975  0.3790  0.9761  1.2122
 3919TIP3   OH233247   2.095   0.780  12.084 -0.3474 -0.2743  0.4594
 3919TIP3    H133248   2.132   0.722  12.017  1.0089  0.2416  0.7301
 3919TIP3    H233249   2.054   0.851  12.035 -0.9731 -0.8427  0.1490
 3920TIP3   OH233250   2.435   6.505   1.326  0.6194 -0.0399  0.1441
 3920TIP3    H133251   2.518   6.535   1.289  0.4257  0.6504  0.2667
 3920TIP3    H233252   2.443   6.523   1.420 -0.0409  0.9321  0.0274
 3921TIP3   OH233253   4.614   0.782  14.781 -0.2838  0.4586 -0.0977
 3921TIP3    H133254   4.694   0.813  14.823 -0.8976  0.1443  1.3892
 3921TIP3    H233255   4.566   0.861  14.756 -0.2355  0.6761  0.4825
 3922TIP3   OH233256   4.966   5.677  14.472 -0.7375  0.1960 -0.2080
 3922TIP3    H133257   4.998   5.699  14.560 -1.0008  0.5997 -0.2125
 3922TIP3    H233258   4.916   5.596  14.485  0.2420 -0.4350 -0.1972
 3923TIP3   OH233259   1.756   6.720  15.065  0.9193  0.3399  0.4207
 3923TIP3    H133260   1.699   6.772  15.009 -0.6590  0.1596  1.7856
 3923TIP3    H233261   1.824   6.781  15.093  0.6720  0.9137 -0.1849
 3924TIP3   OH233262   1.647   5.578   1.360  0.4162  0.2038 -0.0101
 3924TIP3    H133263   1.647   5.581   1.264  0.6870 -1.6806 -0.1080
 3924TIP3    H233264   1.689   5.661   1.386  1.5011  0.1938 -1.5537
 3925TIP3   OH233265   4.269   3.756  11.021  0.1451 -0.2864 -0.1694
 3925TIP3    H133266   4.350   3.775  11.068  0.2329 -1.0171 -0.0191
 3925TIP3    H233267   4.211   3.828  11.045  0.5532 -0.0667  0.1832
 3926TIP3   OH233268   2.137   3.747   2.264  0.5102  0.1317 -0.0078
 3926TIP3    H133269   2.135   3.743   2.360  0.5375  0.5034  0.0105
 3926TIP3    H233270   2.116   3.658   2.236 -0.6255  0.2778  0.3370
 3927TIP3   OH233271   0.307   2.434  12.291  0.5194 -0.1295  0.4880
 3927TIP3    H133272   0.397   2.418  12.265  0.5483 -1.2176  1.1920
 3927TIP3    H233273   0.257   2.435  12.209  0.8584 -1.6706  0.2428
 3928TIP3   OH233274   2.257   3.120  13.600  0.6317  0.2832  0.0978
 3928TIP3    H133275   2.191   3.116  13.669  0.7754 -0.5070  0.1991
 3928TIP3    H233276   2.223   3.185  13.538 -1.0738 -1.2897 -0.6910
 3929TIP3   OH233277   1.503   5.526   2.679  0.7189  0.2479 -0.4854
 3929TIP3    H133278   1.585   5.486   2.707  0.0665  0.2909  1.6648
 3929TIP3    H233279   1.472   5.470   2.607  1.1853 -1.4870  0.6122
 3930TIP3   OH233280   2.626   4.132   1.538  0.5902 -0.2497  0.0730
 3930TIP3    H133281   2.683   4.057   1.555  0.1942 -0.5272  0.2068
 3930TIP3    H233282   2.566   4.134   1.613  1.6129  1.1837  0.8903
 3931TIP3   OH233283   0.656   4.931   2.407 -0.0869  0.0003 -0.6039
 3931TIP3    H133284   0.714   4.861   2.378 -0.6147 -0.5058 -0.4516
 3931TIP3    H233285   0.583   4.929   2.346 -1.2148 -1.0831  0.7036
 3932TIP3   OH233286   4.503   6.182  14.897 -0.1332 -1.0811  0.6273
 3932TIP3    H133287   4.499   6.157  14.805  0.9194  0.0742  0.2482
 3932TIP3    H233288   4.470   6.105  14.944 -0.6951 -1.6776 -0.7027
 3933TIP3   OH233289   3.449   6.380  15.982 -0.0659  0.1301  0.0078
 3933TIP3    H133290   3.497   6.329  16.048 -0.8338 -0.3345  0.2212
 3933TIP3    H233291   3.438   6.466  16.022 -0.7644 -0.2290  0.6216
 3934TIP3   OH233292   3.423   1.474  16.668  0.1010 -0.2621 -0.4950
 3934TIP3    H133293   3.395   1.429  16.589 -0.5298  0.0065 -0.4326
 3934TIP3    H233294   3.507   1.514  16.645 -0.6308  0.8191 -1.4218
 3935TIP3   OH233295   0.355   0.012   5.726  0.4698 -0.0037 -0.4416
 3935TIP3    H133296   0.378   0.104   5.742  3.3490 -0.8514  0.8117
 3935TIP3    H233297   0.274  -0.001   5.776 -0.2651  1.9364 -1.0413
 3936TIP3   OH233298   0.580   3.463  16.121  0.9244  0.0976 -0.0894
 3936TIP3    H133299   0.644   3.524  16.085 -0.1110  1.5113  0.4143
 3936TIP3    H233300   0.536   3.427  16.044  1.1588  0.3997 -0.3679
 3937TIP3   OH233301   4.823   5.581  13.481  0.5081  0.1186  0.1267
 3937TIP3    H133302   4.737   5.541  13.467  0.6342 -0.2599  0.4103
 3937TIP3    H233303   4.812   5.636  13.559  0.9285 -1.1829  1.1317
 3938TIP3   OH233304   0.104   0.552  16.418 -0.0690  0.3024  0.4042
 3938TIP3    H133305   0.041   0.573  16.349  0.6082  3.3808  0.6092
 3938TIP3    H233306   0.134   0.463  16.397  1.8843  1.8414 -4.7741
 3939TIP3   OH233307   1.735   4.929  16.478 -0.1179  0.2842 -0.4593
 3939TIP3    H133308   1.812   4.908  16.425  0.4282  0.0415  0.4156
 3939TIP3    H233309   1.672   4.963  16.415  1.1000  1.5640 -1.0444
 3940TIP3   OH233310   6.481   5.750  13.880 -0.2418  0.1427 -0.0939
 3940TIP3    H133311   6.425   5.807  13.827  0.0854 -1.3467 -2.1672
 3940TIP3    H233312   6.430   5.670  13.893 -0.0741  0.2382  1.3887
 3941TIP3   OH233313   3.219   6.154   3.758 -0.5119 -0.4805  0.4422
 3941TIP3    H133314   3.198   6.224   3.695 -3.1507  0.9351  2.6819
 3941TIP3    H233315   3.292   6.188   3.809 -0.7337 -0.0316  0.4661
 3942TIP3   OH233316   5.733   4.407  15.512 -0.1114 -0.1257  0.3944
 3942TIP3    H133317   5.683   4.488  15.499 -0.4328 -0.4653 -0.5512
 3942TIP3    H233318   5.717   4.356  15.433  1.0647 -0.6022  0.4521
 3943TIP3   OH233319   1.198   3.911  14.591 -0.1436  0.2502  0.0075
 3943TIP3    H133320   1.178   3.980  14.527  0.6470 -1.7551 -2.5828
 3943TIP3    H233321   1.293   3.911  14.597 -0.1536 -0.3740  0.2362
 3944TIP3   OH233322   5.097   1.917  11.926  0.1151 -0.4714  0.0376
 3944TIP3    H133323   5.184   1.955  11.936 -0.0561 -0.6506  2.9976
 3944TIP3    H233324   5.037   1.990  11.943 -0.4757 -0.0051 -3.2845
 3945TIP3   OH233325   2.426   6.107  16.153 -1.0297 -0.6467  0.2983
 3945TIP3    H133326   2.471   6.182  16.115 -2.3293 -1.0513 -2.2569
 3945TIP3    H233327   2.343   6.143  16.186 -1.2536 -0.7890 -0.0983
 3946TIP3   OH233328   2.864   4.198   0.254 -0.0213 -0.4426  0.0518
 3946TIP3    H133329   2.860   4.293   0.268  0.1286 -0.2926 -0.8906
 3946TIP3    H233330   2.931   4.167   0.315 -0.7408 -0.0830  1.0537
 3947TIP3   OH233331   2.414   1.103  12.432  0.0545  0.6843 -0.1229
 3947TIP3    H133332   2.359   1.038  12.389 -0.0329 -0.7807  2.0198
 3947TIP3    H233333   2.354   1.150  12.490  0.5351  1.1285  0.0206
 3948TIP3   OH233334   3.041   3.483  11.606  0.1251 -0.2309 -0.2253
 3948TIP3    H133335   3.012   3.451  11.521 -1.0478 -1.3036  0.5417
 3948TIP3    H233336   2.969   3.539  11.637 -0.2609 -1.2280  0.7778
 3949TIP3   OH233337   0.698   2.718   0.946  0.2675  0.3037  0.2156
 3949TIP3    H133338   0.766   2.783   0.966  1.5756 -0.7835 -0.5043
 3949TIP3    H233339   0.738   2.662   0.880 -1.1384 -0.7352  0.2080
 3950TIP3   OH233340   5.321   4.716   6.791  0.3534 -0.2195 -0.1263
 3950TIP3    H133341   5.251   4.652   6.781  0.2585  0.0296 -1.2028
 3950TIP3    H233342   5.280   4.792   6.832  0.5784 -1.0068  1.6443
 3951TIP3   OH233343   3.022   4.301   5.536  0.5152  0.6198  0.0361
 3951TIP3    H133344   3.044   4.269   5.623 -0.1776  0.2265  0.0725
 3951TIP3    H233345   3.100   4.348   5.507  1.0882 -0.0440  0.4867
 3952TIP3   OH233346   1.966   2.940  15.047  0.0890 -0.5974 -0.6098
 3952TIP3    H133347   1.941   2.970  14.960  0.8837 -0.2818 -0.7388
 3952TIP3    H233348   2.053   2.902  15.035  0.0484 -0.8955 -0.0213
 3953TIP3   OH233349   4.341   2.052  16.151 -0.2162  0.0324  0.4384
 3953TIP3    H133350   4.319   1.963  16.179  1.6823 -0.3323  0.8671
 3953TIP3    H233351   4.296   2.062  16.067 -0.8089 -1.1613  0.5869
 3954TIP3   OH233352   6.151   5.802   4.265 -0.1158  0.0109 -0.3384
 3954TIP3    H133353   6.085   5.869   4.246 -0.1263  0.0758 -0.0658
 3954TIP3    H233354   6.124   5.763   4.347 -1.3242 -1.8363 -1.5472
 3955TIP3   OH233355   6.122   1.217  12.211  0.5106  0.4654 -0.3580
 3955TIP3    H133356   6.157   1.152  12.271 -1.0761 -0.0203  0.0976
 3955TIP3    H233357   6.051   1.172  12.166 -1.1491  2.0417  0.5294
 3956TIP3   OH233358   0.355   2.798   5.199 -0.4832  0.4150  0.2914
 3956TIP3    H133359   0.279   2.781   5.254  0.4295  0.5008  1.6027
 3956TIP3    H233360   0.358   2.894   5.192 -0.3425  0.4230  0.4601
 3957TIP3   OH233361   6.424   0.288   5.255 -0.8086  0.2234  0.0155
 3957TIP3    H133362   6.386   0.285   5.343 -0.6713 -0.7689  0.0505
 3957TIP3    H233363   6.511   0.249   5.266 -0.3591  1.1082 -0.3536
 3958TIP3   OH233364   2.318   1.580   2.834 -0.0870  0.5987 -0.1080
 3958TIP3    H133365   2.235   1.538   2.810 -1.4655  2.6521  0.7317
 3958TIP3    H233366   2.364   1.591   2.752 -0.5518 -0.7315 -0.5767
 3959TIP3   OH233367   1.733   3.272   4.335 -0.3375 -0.4061 -0.4720
 3959TIP3    H133368   1.829   3.270   4.339 -0.1643  0.3386 -2.6926
 3959TIP3    H233369   1.706   3.184   4.361  1.1035 -1.3599 -2.0132
 3960TIP3   OH233370   1.943   6.202  16.915  0.1520 -0.2269 -0.6376
 3960TIP3    H133371   2.023   6.173  16.870  0.4040  0.2630 -0.5133
 3960TIP3    H233372   1.909   6.123  16.957 -0.2858 -0.7806 -1.9766
 3961TIP3   OH233373   1.296   5.722  11.025 -0.1018  0.4344  0.2734
 3961TIP3    H133374   1.271   5.788  10.961 -0.6794 -0.9476 -0.9899
 3961TIP3    H233375   1.244   5.743  11.103  1.7034  3.0258  0.8975
 3962TIP3   OH233376   0.982   0.788  13.901  0.0437 -0.2324 -0.4368
 3962TIP3    H133377   1.008   0.815  13.989 -1.0031  2.3564 -0.8291
 3962TIP3    H233378   1.050   0.727  13.873  1.4625  0.4177  1.4032
 3963TIP3   OH233379   3.821   1.538  16.832  0.3067 -0.1541 -0.2393
 3963TIP3    H133380   3.865   1.577  16.756  2.0229 -0.9865  0.2859
 3963TIP3    H233381   3.773   1.612  16.871  1.8853  1.0081 -0.3921
 3964TIP3   OH233382   0.999   2.850   0.558  0.1917 -0.0354  0.3072
 3964TIP3    H133383   1.014   2.761   0.526  0.4000  0.9366 -2.5593
 3964TIP3    H233384   0.906   2.852   0.580 -0.4699 -0.2857 -2.1934
 3965TIP3   OH233385   4.887   5.552  16.873  0.2244  0.8038  0.2445
 3965TIP3    H133386   4.946   5.626  16.858  1.4866 -0.6011 -2.5193
 3965TIP3    H233387   4.805   5.578  16.831 -0.1909  1.5990  1.5123
 3966TIP3   OH233388   1.770   2.318   2.729  0.0883 -0.1580  0.0848
 3966TIP3    H133389   1.844   2.358   2.775 -1.7098  0.4170  2.7440
 3966TIP3    H233390   1.762   2.231   2.768 -3.0441  1.2323  3.1894
 3967TIP3   OH233391   2.787   1.758   6.826 -0.6925  0.6401 -0.3100
 3967TIP3    H133392   2.768   1.814   6.751  0.2859  0.4801 -0.6958
 3967TIP3    H233393   2.798   1.670   6.789 -0.0760  0.5817 -0.0119
 3968TIP3   OH233394   2.417   2.092  12.275  0.4994 -0.2728 -0.1274
 3968TIP3    H133395   2.488   2.140  12.317  1.0425 -0.7667 -0.4631
 3968TIP3    H233396   2.438   2.000  12.289  1.7887 -0.5520 -3.1265
 3969TIP3   OH233397   6.758   1.755   0.459  0.0076 -0.0874 -0.3374
 3969TIP3    H133398   6.755   1.795   0.372  2.0072 -1.3582 -1.0564
 3969TIP3    H233399   6.826   1.688   0.452  1.1095  0.6187  2.5878
 3970TIP3   OH233400   2.359   6.670   3.381  0.3054 -0.5764 -0.2034
 3970TIP3    H133401   2.319   6.751   3.348 -2.0314 -1.0705  1.1820
 3970TIP3    H233402   2.339   6.605   3.314  2.5868  0.0039 -1.5432
 3971TIP3   OH233403   3.217   1.216  16.537 -0.8976  0.6790  0.0241
 3971TIP3    H133404   3.141   1.274  16.540 -2.0375 -0.6599 -1.5748
 3971TIP3    H233405   3.283   1.268  16.491 -1.0203  1.5972  0.8275
 3972TIP3   OH233406   1.211   3.684   2.865  0.4384  0.2119 -0.6240
 3972TIP3    H133407   1.268   3.759   2.846  0.3588  0.1404 -1.1685
 3972TIP3    H233408   1.242   3.615   2.806  1.3214 -0.6024  0.7599
 3973TIP3   OH233409   5.763   1.625  13.129  0.2031 -0.0908 -0.5513
 3973TIP3    H133410   5.727   1.714  13.128 -0.4633 -0.2894  1.3655
 3973TIP3    H233411   5.773   1.605  13.222  1.1595 -1.7109 -0.9731
 3974TIP3   OH233412   1.925   0.487   0.374  0.0857  0.1384 -0.1665
 3974TIP3    H133413   2.021   0.486   0.366  0.4560  2.3649  2.3527
 3974TIP3    H233414   1.906   0.426   0.445 -0.1728  0.9373  0.4605
 3975TIP3   OH233415   5.611   3.041  13.944  0.2654 -0.1782 -0.1955
 3975TIP3    H133416   5.623   3.089  13.862  2.1119  1.2278  0.8215
 3975TIP3    H233417   5.684   3.069  14.000 -2.6935  1.5491  3.1821
 3976TIP3   OH233418   0.939   0.442  16.998 -0.1157  0.2980 -0.4612
 3976TIP3    H133419   0.931   0.535  16.973  1.0501  0.5037 -0.1221
 3976TIP3    H233420   1.029   0.434  17.030 -0.8989 -0.4476  1.6646
 3977TIP3   OH233421   2.935   3.085  10.604 -0.2601 -0.1885 -0.0760
 3977TIP3    H133422   2.904   3.084  10.694 -3.1740  0.1238 -0.9412
 3977TIP3    H233423   2.978   3.170  10.594  0.0353 -0.2055  1.0050
 3978TIP3   OH233424   5.920   1.423   1.701  0.5641  0.2881  0.5095
 3978TIP3    H133425   5.842   1.474   1.723  0.2363  0.1998 -0.3840
 3978TIP3    H233426   5.965   1.475   1.635  0.2729 -0.5084 -0.3522
 3979TIP3   OH233427   6.155   6.267   3.804  0.5008 -0.3160 -0.1467
 3979TIP3    H133428   6.085   6.201   3.802 -1.1344  1.3382 -1.0293
 3979TIP3    H233429   6.230   6.221   3.840 -0.0403 -3.1405 -2.2754
 3980TIP3   OH233430   2.741   5.644  11.331  0.0697 -0.9013  0.2013
 3980TIP3    H133431   2.761   5.658  11.423  1.7360  1.3248 -0.4186
 3980TIP3    H233432   2.726   5.732  11.296  0.0039 -1.6488 -1.7709
 3981TIP3   OH233433   0.583   2.952  16.485  0.0473  0.0900 -0.3798
 3981TIP3    H133434   0.619   2.863  16.489 -0.5842 -0.1472  0.2282
 3981TIP3    H233435   0.642   2.999  16.426 -0.2778 -1.0454 -1.6527
 3982TIP3   OH233436   0.567   3.096  11.345  0.7509  0.0966  0.1575
 3982TIP3    H133437   0.490   3.057  11.386  0.9599 -0.9107 -0.3871
 3982TIP3    H233438   0.549   3.093  11.251  1.4270 -0.0852  0.0296
 3983TIP3   OH233439   2.474   4.120  13.346 -0.5071  0.2674  0.9140
 3983TIP3    H133440   2.386   4.156  13.332 -0.9021 -0.2324  1.9992
 3983TIP3    H233441   2.528   4.162  13.279 -1.7306 -0.0329 -0.3123
 3984TIP3   OH233442   1.185   5.128   0.076  0.2829  0.4095  0.4635
 3984TIP3    H133443   1.171   5.194   0.008  2.1802 -0.6459 -1.0738
 3984TIP3    H233444   1.279   5.133   0.096  0.4863 -1.6776  0.3599
 3985TIP3   OH233445   4.769   5.478   4.402  0.1574  0.3256  0.0538
 3985TIP3    H133446   4.735   5.390   4.420 -2.0464  1.2293  0.7077
 3985TIP3    H233447   4.699   5.521   4.354  1.8597  1.2631 -1.7221
 3986TIP3   OH233448   6.115   4.168   2.563 -0.2971  0.2914 -0.7354
 3986TIP3    H133449   6.030   4.192   2.601 -0.4897  0.5576 -1.3204
 3986TIP3    H233450   6.104   4.182   2.469 -0.1859 -1.4328 -1.0409
 3987TIP3   OH233451   3.669   0.830  16.715  0.1122 -0.1003  0.3020
 3987TIP3    H133452   3.697   0.826  16.624 -2.4165 -0.7667 -0.5009
 3987TIP3    H233453   3.576   0.853  16.711  0.5124  2.5140  2.8183
 3988TIP3   OH233454   5.710   2.314   0.791  0.7879  0.1165  0.2457
 3988TIP3    H133455   5.633   2.339   0.843 -0.3348 -1.7941 -0.3870
 3988TIP3    H233456   5.784   2.335   0.847 -0.2439  0.9899  1.3464
 3989TIP3   OH233457   6.757   0.018  14.859 -0.1126  0.1021  0.1905
 3989TIP3    H133458   6.664  -0.003  14.866  0.2159 -1.7842 -0.6596
 3989TIP3    H233459   6.763   0.070  14.778 -0.3014 -0.6163 -0.2925
 3990TIP3   OH233460   3.618   0.626  17.155  0.3763  0.1089 -0.4148
 3990TIP3    H133461   3.612   0.532  17.173  0.1571  0.0362 -0.8625
 3990TIP3    H233462   3.711   0.640  17.139  0.4835  0.0612  0.1434
 3991TIP3   OH233463   2.168   5.564  15.349 -0.1090 -0.4267  0.4609
 3991TIP3    H133464   2.094   5.529  15.397 -0.5912  1.6484  1.3292
 3991TIP3    H233465   2.136   5.576  15.259 -0.9357  0.6974  0.8890
 3992TIP3   OH233466   2.421   3.275  11.641 -0.2632 -0.0895  0.0170
 3992TIP3    H133467   2.459   3.245  11.724  2.7258 -1.5762 -1.7156
 3992TIP3    H233468   2.399   3.367  11.657  1.9944  0.2207  1.9176
 3993TIP3   OH233469   5.943   3.512  15.274  0.1193 -0.4479 -0.4641
 3993TIP3    H133470   5.935   3.530  15.367  1.3504 -0.0826 -0.4068
 3993TIP3    H233471   5.900   3.427  15.262  0.3481 -0.7135  0.5115
 3994TIP3   OH233472   2.845   0.867   3.233 -0.6261  0.1672 -0.8518
 3994TIP3    H133473   2.907   0.896   3.300 -1.6131  0.4171 -0.0205
 3994TIP3    H233474   2.769   0.835   3.283 -0.8061 -0.9718 -1.8210
 3995TIP3   OH233475   5.789   5.261  12.859 -0.3975 -0.0185  0.4258
 3995TIP3    H133476   5.851   5.307  12.803  0.1848 -0.0523  1.0313
 3995TIP3    H233477   5.711   5.317  12.858 -0.0243  0.5166  0.4235
 3996TIP3   OH233478   4.610   5.354   3.029  0.6066 -0.3038  0.6816
 3996TIP3    H133479   4.567   5.431   3.066 -0.4849 -0.1484 -0.7934
 3996TIP3    H233480   4.552   5.327   2.957  2.1236 -1.1376 -0.2762
 3997TIP3   OH233481   0.919   6.659  14.690  0.2597 -0.2784  0.3870
 3997TIP3    H133482   0.961   6.590  14.639 -0.9455 -1.7020  1.2508
 3997TIP3    H233483   0.946   6.740  14.646 -0.2784 -1.3922 -2.2122
 3998TIP3   OH233484   4.985   6.423   3.125 -0.2696 -0.1975 -0.2297
 3998TIP3    H133485   4.921   6.465   3.182  1.9179  1.9450  0.8129
 3998TIP3    H233486   4.992   6.333   3.158 -0.7417  0.3321  1.3584
 3999TIP3   OH233487   1.012   5.406  14.763 -0.9305 -0.5127  0.4957
 3999TIP3    H133488   0.936   5.382  14.817  0.3619 -1.3300  2.0468
 3999TIP3    H233489   1.084   5.355  14.800 -0.1127 -1.8926 -2.6296
 4000TIP3   OH233490   0.983   6.474   3.425 -0.2940 -0.0113 -0.3447
 4000TIP3    H133491   1.064   6.522   3.443 -1.2366  0.9184  1.8230
 4000TIP3    H233492   0.923   6.541   3.393 -0.5571 -0.4800 -0.8497
 4001TIP3   OH233493   0.424   5.554   1.176  0.3394  0.2875 -0.3445
 4001TIP3    H133494   0.471   5.472   1.193 -0.8898 -0.2917  0.3731
 4001TIP3    H233495   0.396   5.583   1.262 -0.9368  0.4119 -0.7894
 4002TIP3   OH233496   5.703   2.196  12.919  0.2714  0.9476 -0.2791
 4002TIP3    H133497   5.734   2.278  12.880  0.1275  0.7155 -0.8989
 4002TIP3    H233498   5.645   2.159  12.852  1.1819 -0.1872 -0.4720
 4003TIP3   OH233499   1.640   4.080  14.864  0.8490 -0.0273  0.0651
 4003TIP3    H133500   1.671   4.159  14.909  0.2618 -0.0743  0.5818
 4003TIP3    H233501   1.719   4.036  14.835  1.1795  0.8768 -0.4475
 4004TIP3   OH233502   0.005   4.694   4.370  0.3991  0.1217 -0.3762
 4004TIP3    H133503  -0.076   4.744   4.366  0.1522 -0.1130  1.1081
 4004TIP3    H233504  -0.007   4.635   4.444  1.6005 -0.5012 -0.6546
 4005TIP3   OH233505   3.559   0.048   6.263  0.2796 -0.3684  0.1446
 4005TIP3    H133506   3.545  -0.011   6.337  1.0068  1.5739  1.9349
 4005TIP3    H233507   3.570   0.134   6.303  2.7165  0.4835 -2.0485
 4006TIP3   OH233508   4.041   5.207  11.474  0.3636  0.1858  0.1541
 4006TIP3    H133509   4.128   5.226  11.439  0.2648  0.3961  0.0199
 4006TIP3    H233510   4.000   5.293  11.487  0.5429  0.1217  1.1734
 4007TIP3   OH233511   0.509   6.556   4.492  0.3662  0.1765 -0.1570
 4007TIP3    H133512   0.602   6.559   4.516  0.1767 -3.2793  1.6938
 4007TIP3    H233513   0.463   6.566   4.575 -0.8501 -0.1041 -0.7751
 4008TIP3   OH233514   5.516   3.895   1.155 -0.0813 -0.2030  0.7149
 4008TIP3    H133515   5.547   3.937   1.075  0.0037  0.9294  1.3271
 4008TIP3    H233516   5.594   3.855   1.193 -0.3063 -1.6490 -0.2825
 4009TIP3   OH233517   1.814   0.919   1.073  0.0288 -0.5096 -0.0918
 4009TIP3    H133518   1.843   0.948   0.987  0.3161 -0.4722  0.0170
 4009TIP3    H233519   1.895   0.900   1.121 -0.1101 -0.1029  0.3153
 4010TIP3   OH233520   6.033   1.931   5.560  0.3715 -0.5078  0.5237
 4010TIP3    H133521   5.997   1.846   5.533  0.6009 -0.4525  0.0347
 4010TIP3    H233522   6.127   1.922   5.546  0.4713 -0.4090  1.1330
 4011TIP3   OH233523   0.251   2.392  16.358  0.6641 -0.5347  0.7352
 4011TIP3    H133524   0.214   2.469  16.400  3.0319 -0.1113  2.1973
 4011TIP3    H233525   0.309   2.426  16.290 -0.8988 -1.1699 -1.0186
 4012TIP3   OH233526   3.899   2.088  11.831 -0.0169  0.1590 -0.6342
 4012TIP3    H133527   3.991   2.115  11.837  0.0600 -0.1544 -0.3975
 4012TIP3    H233528   3.887   2.067  11.738 -0.0149  0.7771 -0.7750
 4013TIP3   OH233529   1.118   6.590   2.160  0.8268 -0.1743 -0.3910
 4013TIP3    H133530   1.124   6.560   2.251  0.8236  0.7217 -0.0845
 4013TIP3    H233531   1.109   6.685   2.167  0.7219 -0.1080 -1.3297
 4014TIP3   OH233532   4.073   4.931  16.111  0.4002  1.1842 -0.3073
 4014TIP3    H133533   4.009   5.002  16.113 -3.0074 -1.6232  0.7495
 4014TIP3    H233534   4.115   4.934  16.197  0.7273  2.1989 -0.4837
 4015TIP3   OH233535   0.360   3.043  11.695  0.1653  0.2030  0.4554
 4015TIP3    H133536   0.427   3.112  11.691  1.3953 -0.9520  0.5280
 4015TIP3    H233537   0.402   2.966  11.657 -1.8848 -0.0068 -1.5825
 4016TIP3   OH233538   5.130   6.803   3.184 -0.4886  0.0382  0.4579
 4016TIP3    H133539   5.123   6.870   3.116 -1.4934  1.7697  2.1731
 4016TIP3    H233540   5.040   6.792   3.216 -0.1115 -1.1206  1.1749
 4017TIP3   OH233541   6.132   3.657  13.755 -0.3565 -0.0871  0.4065
 4017TIP3    H133542   6.055   3.662  13.812 -0.6226 -1.3296  0.1772
 4017TIP3    H233543   6.103   3.605  13.680  0.5272 -0.0228  0.0067
 4018TIP3   OH233544   4.777   1.365  13.964 -0.2203 -0.0927 -0.2237
 4018TIP3    H133545   4.774   1.283  13.915 -1.2284 -1.1790  1.5680
 4018TIP3    H233546   4.687   1.397  13.965 -0.0974  0.2655  0.3081
 4019TIP3   OH233547   6.336   1.088  11.898 -0.5734 -0.4017  0.0967
 4019TIP3    H133548   6.296   1.061  11.815 -1.6630 -0.7816  0.7248
 4019TIP3    H233549   6.290   1.037  11.964  1.2759 -1.2027  0.8340
 4020TIP3   OH233550   5.869   0.051  15.159  0.2894  0.5861  0.4672
 4020TIP3    H133551   5.848  -0.016  15.225 -2.6249  1.0330  0.1310
 4020TIP3    H233552   5.863   0.134  15.206 -1.6453  0.8973 -0.2556
 4021TIP3   OH233553   3.257   0.571  13.584 -0.4265 -0.2353  0.0717
 4021TIP3    H133554   3.167   0.541  13.597 -0.9094  1.5151  1.1572
 4021TIP3    H233555   3.302   0.496  13.544 -2.1545 -1.4264  0.2419
 4022TIP3   OH233556   3.624   1.432  11.762 -0.3489  0.2548 -0.2598
 4022TIP3    H133557   3.571   1.373  11.816 -0.4612  0.6901  0.1104
 4022TIP3    H233558   3.561   1.481  11.710 -0.3907  1.3672  0.7778
 4023TIP3   OH233559   1.478   1.541   2.162 -0.1915  0.3051 -0.3692
 4023TIP3    H133560   1.422   1.463   2.166 -0.8472  0.6806  4.7386
 4023TIP3    H233561   1.418   1.614   2.181  0.9457  1.7080 -1.8832
 4024TIP3   OH233562   5.404   1.067  13.494 -0.0786  0.5521  0.1947
 4024TIP3    H133563   5.353   1.145  13.516 -1.4116  0.2359 -1.6194
 4024TIP3    H233564   5.339   1.000  13.474  1.0518 -0.5078 -0.0389
 4025TIP3   OH233565   1.877   3.093  13.512 -0.7042  0.7481 -0.2775
 4025TIP3    H133566   1.894   3.168  13.568  0.6011  0.3570 -0.1262
 4025TIP3    H233567   1.848   3.024  13.572  0.6845  0.3320 -0.0601
 4026TIP3   OH233568   0.331   0.028   4.894 -0.0950  0.2204 -0.2637
 4026TIP3    H133569   0.238   0.020   4.871 -0.2896  1.3649  0.0680
 4026TIP3    H233570   0.365   0.092   4.831  0.6089 -0.5857 -0.7264
 4027TIP3   OH233571   2.610   4.283   5.684  0.4586  0.2283  0.4172
 4027TIP3    H133572   2.544   4.351   5.693 -0.4942 -0.4505 -1.0534
 4027TIP3    H233573   2.653   4.302   5.601  0.1254 -0.9778 -0.0542
 4028TIP3   OH233574   4.862   0.791  12.095 -0.1943 -0.0173 -0.5821
 4028TIP3    H133575   4.849   0.759  12.006 -2.0683 -0.9172 -0.0294
 4028TIP3    H233576   4.950   0.762  12.118 -0.6002 -1.9432 -1.2897
 4029TIP3   OH233577   3.941   6.348   3.439  0.3412  0.1562 -0.2177
 4029TIP3    H133578   3.849   6.375   3.447  0.3461  0.5213 -1.3233
 4029TIP3    H233579   3.951   6.279   3.505 -0.2757  1.2509  1.0742
 4030TIP3   OH233580   6.364   6.455  10.844  0.1116 -0.0231 -0.0113
 4030TIP3    H133581   6.372   6.542  10.805 -1.2667  0.2861  0.3459
 4030TIP3    H233582   6.443   6.408  10.815  2.8798  2.4501  2.7150
 4031TIP3   OH233583   3.365   1.441  13.421 -0.1061 -0.6923 -0.6575
 4031TIP3    H133584   3.412   1.442  13.338  0.9991  1.0460 -0.0706
 4031TIP3    H233585   3.433   1.456  13.487 -1.1083 -0.9608  0.4768
 4032TIP3   OH233586   5.063   5.650   6.308  0.3854  0.2339  0.1617
 4032TIP3    H133587   4.975   5.626   6.336  0.9967 -1.2533  0.9285
 4032TIP3    H233588   5.059   5.745   6.293 -1.1724  0.2849  0.7577
 4033TIP3   OH233589   3.847   5.378   2.397 -0.0569 -0.0191  0.1461
 4033TIP3    H133590   3.816   5.435   2.326 -0.9947 -1.0952 -0.3382
 4033TIP3    H233591   3.771   5.368   2.454 -0.0018 -1.0102  0.0641
 4034TIP3   OH233592   1.656   3.759  13.814 -0.5019 -0.0654 -0.0673
 4034TIP3    H133593   1.740   3.792  13.783 -0.8987 -0.3565 -1.5111
 4034TIP3    H233594   1.648   3.794  13.903  1.6981 -1.0592  0.5889
 4035TIP3   OH233595   2.212   2.045   3.675  0.0847  0.1693  0.4960
 4035TIP3    H133596   2.235   1.973   3.616  0.6386 -0.6658  1.7014
 4035TIP3    H233597   2.124   2.071   3.648  0.0525 -0.6521 -0.2511
 4036TIP3   OH233598   6.331   5.428  10.917  0.3788  0.3835  0.5641
 4036TIP3    H133599   6.361   5.519  10.918  0.3372  0.4222 -0.8408
 4036TIP3    H233600   6.286   5.418  10.833  0.4133 -0.9475  0.6855
 4037TIP3   OH233601   5.548   1.093   0.383  0.3326  0.4685  0.0763
 4037TIP3    H133602   5.586   1.024   0.328  0.6264  0.2062  0.6035
 4037TIP3    H233603   5.622   1.150   0.404  0.6365 -0.4850  1.7746
 4038TIP3   OH233604   3.098   1.552   5.957 -0.3886 -0.3279 -0.4303
 4038TIP3    H133605   3.130   1.524   6.043 -1.5167 -2.4450 -0.6287
 4038TIP3    H233606   3.171   1.537   5.898  1.0750  2.9442  0.3514
 4039TIP3   OH233607   3.773   5.173   0.630 -0.3759  0.2039  0.0635
 4039TIP3    H133608   3.830   5.121   0.686 -1.5885 -2.1912 -0.7738
 4039TIP3    H233609   3.688   5.174   0.675 -0.6925  0.4202 -0.5203
 4040TIP3   OH233610   0.746   5.800   2.439 -0.4438 -0.0876 -0.4256
 4040TIP3    H133611   0.747   5.861   2.512 -1.3650 -1.7689  1.0855
 4040TIP3    H233612   0.666   5.821   2.391 -0.0225  0.7888 -0.7614
 4041TIP3   OH233613   4.460   4.044  15.621  0.3324  0.1187 -0.4243
 4041TIP3    H133614   4.398   3.972  15.615  0.3677  0.1190 -0.7688
 4041TIP3    H233615   4.494   4.055  15.533  1.8193 -0.7507  0.0147
 4042TIP3   OH233616   3.986   3.414  12.860 -0.4062  0.1220 -0.2096
 4042TIP3    H133617   4.069   3.385  12.898 -0.7254 -2.0776 -1.0550
 4042TIP3    H233618   3.998   3.403  12.765 -1.9160 -1.0320 -0.3043
 4043TIP3   OH233619   0.788   5.546  12.856 -0.2694 -0.4203 -0.1070
 4043TIP3    H133620   0.802   5.555  12.951 -0.6723 -1.7015  0.0923
 4043TIP3    H233621   0.873   5.520  12.822  0.0106  0.5732 -0.1802
 4044TIP3   OH233622   3.585   0.349   3.319  0.3522 -0.0075 -0.0043
 4044TIP3    H133623   3.627   0.381   3.399  0.2432  0.1345 -0.0045
 4044TIP3    H233624   3.658   0.323   3.263  0.4065 -1.0407  0.5238
 4045TIP3   OH233625   3.323   4.666  14.941  0.1279  0.1257 -0.2419
 4045TIP3    H133626   3.326   4.627  14.854  0.6741 -1.0549  0.2785
 4045TIP3    H233627   3.234   4.702  14.948  0.3411  0.9723 -1.5668
 4046TIP3   OH233628   1.520   3.353  11.458  0.9224 -0.3714 -0.0318
 4046TIP3    H133629   1.575   3.318  11.529  3.0472 -0.0001 -1.4246
 4046TIP3    H233630   1.555   3.441  11.442 -3.2670  2.0276  2.2987
 4047TIP3   OH233631   3.271   5.296  11.137  0.2950  0.0646 -0.3764
 4047TIP3    H133632   3.193   5.241  11.128 -1.0800  1.8876 -0.1258
 4047TIP3    H233633   3.286   5.331  11.049  0.8775 -0.3076 -0.4326
 4048TIP3   OH233634   2.319   6.155   3.097  0.3776  0.2913 -0.1938
 4048TIP3    H133635   2.366   6.232   3.128  1.7927 -0.5684 -0.1230
 4048TIP3    H233636   2.332   6.155   3.003  0.2261  0.2250 -0.2151
 4049TIP3   OH233637   5.993   5.436   0.387 -0.0169  0.2809 -0.4055
 4049TIP3    H133638   5.967   5.508   0.330  1.9672  0.0915 -1.6465
 4049TIP3    H233639   6.056   5.386   0.335  1.1207 -0.4830  1.6019
 4050TIP3   OH233640   2.688   4.483  15.820  0.0787 -0.5915 -0.2333
 4050TIP3    H133641   2.718   4.393  15.828 -0.4060 -0.7126  0.3471
 4050TIP3    H233642   2.721   4.527  15.898 -0.9680 -0.6544  0.2666
 4051TIP3   OH233643   0.263   6.088   2.173 -0.0297  0.2199  0.3742
 4051TIP3    H133644   0.262   6.023   2.102  0.0071 -0.1370  0.6977
 4051TIP3    H233645   0.351   6.083   2.209  0.0936  0.7286  0.1514
 4052TIP3   OH233646   1.324   4.810  13.715  0.2575  0.1724 -0.0560
 4052TIP3    H133647   1.349   4.718  13.707 -0.3954  0.1039 -1.6852
 4052TIP3    H233648   1.228   4.809  13.710  0.2668  0.9736 -0.7472
 4053TIP3   OH233649   6.158   3.108  12.135  0.1053 -0.2578  0.2060
 4053TIP3    H133650   6.079   3.057  12.119 -1.0051  1.8432 -1.6883
 4053TIP3    H233651   6.230   3.047  12.119 -1.1378 -1.3410 -1.6367
 4054TIP3   OH233652   3.672   5.623   0.691 -0.0650 -0.2251 -0.2013
 4054TIP3    H133653   3.590   5.573   0.689  0.5338 -1.2233  0.0606
 4054TIP3    H233654   3.646   5.711   0.664 -1.0217 -0.8298 -1.3446
 4055TIP3   OH233655   5.741   2.065  14.338  0.4749 -0.5165  0.3262
 4055TIP3    H133656   5.736   1.994  14.273  0.5913 -1.4862  1.3351
 4055TIP3    H233657   5.677   2.129  14.308  0.9754 -0.6382 -1.0844
 4056TIP3   OH233658   3.684   0.410  14.611  0.5130  0.2187 -0.0526
 4056TIP3    H133659   3.728   0.354  14.548  1.2746 -1.0108  1.5032
 4056TIP3    H233660   3.599   0.368  14.626  0.7459 -0.0718  0.4863
 4057TIP3   OH233661   2.444   2.063   1.949 -0.2140 -0.2000  0.7156
 4057TIP3    H133662   2.527   2.060   1.901 -1.0593 -1.5128 -0.7733
 4057TIP3    H233663   2.462   2.020   2.032  0.1573 -2.4257 -0.4393
 4058TIP3   OH233664   5.777   2.832   2.646 -0.0724 -0.0999 -0.0438
 4058TIP3    H133665   5.769   2.754   2.699 -4.0537  0.3887  0.3821
 4058TIP3    H233666   5.738   2.808   2.562 -1.5066  1.3638  0.1458
 4059TIP3   OH233667   1.419   6.010   5.721 -0.1365 -0.0401  0.2590
 4059TIP3    H133668   1.475   5.942   5.759 -0.0448  0.1194  0.4106
 4059TIP3    H233669   1.479   6.064   5.669 -0.7359 -2.2939 -3.0924
 4060TIP3   OH233670   1.129   1.215   4.361 -0.5401  0.4757 -1.1459
 4060TIP3    H133671   1.159   1.124   4.370 -0.6286  0.5499  0.1791
 4060TIP3    H233672   1.043   1.215   4.403 -0.7103  1.0963 -1.4858
 4061TIP3   OH233673   3.035   4.716  12.759  0.2098 -0.6980  0.3138
 4061TIP3    H133674   3.007   4.807  12.770 -0.1166 -0.5846 -1.2857
 4061TIP3    H233675   3.065   4.710  12.669  3.8146 -1.2560  1.3855
 4062TIP3   OH233676   5.633   6.440  13.134  0.0393  0.2676 -0.6804
 4062TIP3    H133677   5.548   6.405  13.106  0.1525 -0.2318 -0.4072
 4062TIP3    H233678   5.616   6.478  13.220  0.0813  0.2040 -0.6439
 4063TIP3   OH233679   0.497   6.193   2.816 -0.3826 -0.1884  0.3916
 4063TIP3    H133680   0.524   6.102   2.823 -0.0202  0.0179  1.9190
 4063TIP3    H233681   0.576   6.239   2.786 -0.1088 -0.1583  1.1370
 4064TIP3   OH233682   0.885   1.485   3.777 -0.0036  0.3459  0.1338
 4064TIP3    H133683   0.812   1.451   3.830 -1.1573  1.4138 -0.7090
 4064TIP3    H233684   0.887   1.579   3.797 -0.5678  0.8076 -1.7998
 4065TIP3   OH233685   0.287   0.965   3.076 -0.5763  0.4579  0.4121
 4065TIP3    H133686   0.194   0.973   3.051 -0.1492  0.3382 -1.3999
 4065TIP3    H233687   0.315   0.884   3.034  0.8346  1.5122 -0.7673
 4066TIP3   OH233688   1.155   5.806  13.872  0.4999 -0.0705 -0.0860
 4066TIP3    H133689   1.139   5.894  13.838  0.5601  0.0044  0.0767
 4066TIP3    H233690   1.067   5.768  13.879  0.5102 -0.1928 -0.6001
 4067TIP3   OH233691   4.544   6.086   2.829 -0.5680  0.0612 -0.2146
 4067TIP3    H133692   4.557   6.174   2.864 -0.0310  0.5051 -1.4721
 4067TIP3    H233693   4.482   6.045   2.890  2.1193 -0.0952  2.6626
 4068TIP3   OH233694   1.102   1.675  12.678 -0.4264 -0.4134  0.0780
 4068TIP3    H133695   1.044   1.731  12.730 -0.5090 -0.8395  0.4478
 4068TIP3    H233696   1.186   1.678  12.725 -0.6294 -1.1742  0.5088
 4069TIP3   OH233697   0.739   1.993   4.435 -0.4529 -0.3766 -0.5889
 4069TIP3    H133698   0.664   2.018   4.381 -0.7698 -2.7380 -1.3599
 4069TIP3    H233699   0.703   1.931   4.499  0.2567  1.0293  1.2502
 4070TIP3   OH233700   2.777   5.108   1.763  0.3524 -0.4933 -0.9063
 4070TIP3    H133701   2.757   5.027   1.809 -1.2764 -0.9246 -2.2797
 4070TIP3    H233702   2.693   5.137   1.726  1.1467  1.0823 -1.6017
 4071TIP3   OH233703   4.902   0.671  15.215  0.0805  0.2613 -0.2816
 4071TIP3    H133704   4.978   0.613  15.215 -1.1461 -1.4081 -0.5745
 4071TIP3    H233705   4.927   0.744  15.158  1.2448 -0.5776 -0.8809
 4072TIP3   OH233706   0.501   0.160  12.274  0.1056  0.3700 -0.5013
 4072TIP3    H133707   0.513   0.254  12.257 -1.7695  0.3388 -2.5071
 4072TIP3    H233708   0.456   0.128  12.196  2.2627 -2.6095 -0.6923
 4073TIP3   OH233709   1.212   0.078  13.456  0.4805 -0.1852  0.0442
 4073TIP3    H133710   1.268   0.110  13.385  0.6930 -2.9734 -1.1316
 4073TIP3    H233711   1.178  -0.005  13.425  0.3228 -1.3748  3.0871
 4074TIP3   OH233712   5.143   3.993  16.758  0.7281 -0.0057  0.4210
 4074TIP3    H133713   5.136   4.081  16.795 -0.1563  0.2682 -0.3413
 4074TIP3    H233714   5.192   4.005  16.676  0.8328 -0.2679  0.4439
 4075TIP3   OH233715   6.521   6.671  14.903 -0.5575  0.2523 -0.0101
 4075TIP3    H133716   6.443   6.657  14.955  0.4246 -1.2397  1.1344
 4075TIP3    H233717   6.553   6.583  14.882  0.7661  0.8204 -0.5183
 4076TIP3   OH233718   0.061   5.401  12.246 -0.1299 -0.0488  0.0308
 4076TIP3    H133719   0.009   5.472  12.210  0.0218  0.4873  0.8505
 4076TIP3    H233720   0.005   5.323  12.235  0.2011 -0.0560 -1.9913
 4077TIP3   OH233721   2.081   0.061   3.337 -0.1766 -0.5103 -0.0417
 4077TIP3    H133722   2.017  -0.005   3.365 -1.3616  0.8509  0.5684
 4077TIP3    H233723   2.076   0.061   3.242 -0.7378 -0.7421 -0.0163
 4078TIP3   OH233724   0.969   0.571  15.767 -0.7162 -0.6193 -0.5512
 4078TIP3    H133725   0.885   0.587  15.811 -0.7346 -0.3547 -0.6807
 4078TIP3    H233726   1.035   0.599  15.831 -0.7741  2.1387 -1.5829
 4079TIP3   OH233727   3.617   6.371  14.905  0.5652 -0.4522  0.5869
 4079TIP3    H133728   3.692   6.315  14.883  0.2282 -0.8600  0.4652
 4079TIP3    H233729   3.654   6.459  14.911  1.2490 -0.7771  1.4903
 4080TIP3   OH233730   0.911   1.144   1.332  0.2581  0.7380  0.5248
 4080TIP3    H133731   0.884   1.058   1.299 -0.9188  1.3079 -0.0338
 4080TIP3    H233732   1.006   1.147   1.316 -0.0519  0.4599 -1.6048
 4081TIP3   OH233733   1.823   6.394   1.540 -0.1384 -0.2972  0.3230
 4081TIP3    H133734   1.799   6.313   1.496  1.4868 -0.4776 -0.2815
 4081TIP3    H233735   1.778   6.390   1.624 -0.1422 -1.7903  0.2736
 4082TIP3   OH233736   6.562   4.715  16.767 -0.0409 -0.2611 -0.2141
 4082TIP3    H133737   6.517   4.728  16.850 -0.2263 -2.3924  0.0547
 4082TIP3    H233738   6.553   4.799  16.722 -0.4497  0.7423  1.6485
 4083TIP3   OH233739   1.314   4.275  10.921 -0.3072 -0.0243 -0.2749
 4083TIP3    H133740   1.283   4.219  10.850 -0.0429 -2.5255  1.4926
 4083TIP3    H233741   1.407   4.289  10.903  0.5479 -3.2202  1.0548
 4084TIP3   OH233742   0.981   2.861  16.910  0.1222 -0.1108  0.1948
 4084TIP3    H133743   1.075   2.863  16.929  0.3462 -1.0294 -0.7006
 4084TIP3    H233744   0.967   2.933  16.849 -0.1006  1.1202  1.6322
 4085TIP3   OH233745   1.301   6.790   2.353  0.4443  0.6322 -0.5710
 4085TIP3    H133746   1.379   6.773   2.301  2.1409 -0.1720  2.0259
 4085TIP3    H233747   1.320   6.872   2.399 -0.7192  1.0105 -0.7280
 4086TIP3   OH233748   0.845   6.112  13.230 -0.2010 -0.3264 -0.2192
 4086TIP3    H133749   0.811   6.092  13.317  0.6417 -1.7485 -0.1904
 4086TIP3    H233750   0.867   6.027  13.193  3.3472  0.4478 -0.2238
 4087TIP3   OH233751   3.906   3.351   2.164  0.1271 -0.4398  0.4239
 4087TIP3    H133752   3.927   3.367   2.256 -2.2011  1.0442  0.7722
 4087TIP3    H233753   3.813   3.330   2.163 -0.8984  3.2339 -1.8528
 4088TIP3   OH233754   4.470   4.312  14.577 -0.8675 -0.7558 -0.2257
 4088TIP3    H133755   4.539   4.371  14.606 -0.8731 -0.3118 -1.0665
 4088TIP3    H233756   4.469   4.241  14.641 -2.1831  1.1128  1.9761
 4089TIP3   OH233757   3.379   3.480  16.603 -0.3439 -0.6521 -0.3259
 4089TIP3    H133758   3.308   3.504  16.662 -0.7811 -1.3498 -0.5685
 4089TIP3    H233759   3.336   3.454  16.522  0.2407 -0.0120 -0.8512
 4090TIP3   OH233760   1.316   1.404   4.462  0.0880 -0.0238 -0.1753
 4090TIP3    H133761   1.259   1.337   4.424 -0.5228 -0.5792  1.5890
 4090TIP3    H233762   1.399   1.394   4.416 -0.0677 -1.8581 -0.1463
 4091TIP3   OH233763   3.938   4.345  15.361  0.2796 -0.3612  0.8808
 4091TIP3    H133764   3.999   4.390  15.420 -0.0016 -0.1826  1.0394
 4091TIP3    H233765   3.851   4.376  15.388  0.2768  2.4009 -1.7779
 4092TIP3   OH233766   0.119   4.207   4.554  0.4529 -0.2584 -0.2258
 4092TIP3    H133767   0.086   4.270   4.489  0.2024 -0.7410 -0.5701
 4092TIP3    H233768   0.068   4.127   4.538 -0.7834  0.0871  1.6147
 4093TIP3   OH233769   4.057   1.049   4.196 -0.2083  0.1889  0.1580
 4093TIP3    H133770   3.998   1.078   4.126  1.4911  0.9275 -1.0403
 4093TIP3    H233771   4.104   1.128   4.223 -0.0959 -0.2852  1.4246
 4094TIP3   OH233772   2.864   2.952   5.792  0.0013  0.4947  0.3733
 4094TIP3    H133773   2.903   2.954   5.879 -1.4763  0.5546  1.0678
 4094TIP3    H233774   2.937   2.969   5.732  1.0164  0.5765  1.5978
 4095TIP3   OH233775   2.196   0.254  16.939  0.0224  0.5812 -0.2901
 4095TIP3    H133776   2.140   0.183  16.969  0.9199 -0.6223 -1.3875
 4095TIP3    H233777   2.149   0.291  16.864 -0.3390  1.0231  0.1467
 4096TIP3   OH233778   2.486   5.818  11.165 -0.2646  0.0225  0.2292
 4096TIP3    H133779   2.452   5.857  11.246 -0.7640 -0.7214  0.3877
 4096TIP3    H233780   2.578   5.842  11.163  0.4158 -2.0287  2.3324
 4097TIP3   OH233781   0.838   4.389  16.119 -0.8391  0.8432 -0.4572
 4097TIP3    H133782   0.872   4.417  16.034  2.0483 -0.0050  0.2935
 4097TIP3    H233783   0.898   4.428  16.183 -1.2849 -0.7295  1.0088
 4098TIP3   OH233784   2.076   3.532   0.972 -0.5504 -0.0554  0.4765
 4098TIP3    H133785   2.027   3.489   0.902 -2.5116 -1.2904  2.4891
 4098TIP3    H233786   2.144   3.582   0.926 -3.7507  1.9498 -2.5405
 4099TIP3   OH233787   6.756   1.697  12.450 -0.6781 -0.2664  0.5881
 4099TIP3    H133788   6.735   1.790  12.451  2.1719  0.4869 -0.2671
 4099TIP3    H233789   6.777   1.676  12.541 -1.5767 -0.1830  0.8288
 4100TIP3   OH233790   6.481   0.669  11.117  0.5674  0.3945  0.4618
 4100TIP3    H133791   6.414   0.679  11.049 -0.1608 -1.3886  0.8492
 4100TIP3    H233792   6.472   0.578  11.145  1.8551  0.6845  1.9140
 4101TIP3   OH233793   6.678   2.245   5.861 -0.2341  0.4515  1.1206
 4101TIP3    H133794   6.723   2.280   5.939  1.7265  0.2990  0.1294
 4101TIP3    H233795   6.715   2.295   5.789 -0.9026 -0.4484  0.1344
 4102TIP3   OH233796   5.025   6.589   0.183 -0.4850  0.5058  0.6839
 4102TIP3    H133797   4.981   6.670   0.209 -0.7813  1.4631 -2.3401
 4102TIP3    H233798   4.955   6.537   0.141 -0.3223 -1.4246  2.6311
 4103TIP3   OH233799   2.582   6.154  11.532  0.5213 -0.1122 -0.1554
 4103TIP3    H133800   2.504   6.145  11.587 -1.5961  0.1170 -2.8440
 4103TIP3    H233801   2.627   6.231  11.566  0.6807 -1.3527  2.6535
 4104TIP3   OH233802   3.635   6.400  11.872 -0.0779  0.5593  0.2452
 4104TIP3    H133803   3.709   6.363  11.920  0.6294  0.5817 -0.8124
 4104TIP3    H233804   3.561   6.344  11.895 -0.6127  2.4692  4.0213
 4105TIP3   OH233805   6.515   4.680   4.077 -0.6242  0.1949 -0.0783
 4105TIP3    H133806   6.585   4.694   4.013 -2.1186  0.5327 -1.7241
 4105TIP3    H233807   6.456   4.619   4.033 -1.2563 -0.2737  1.3771
 4106TIP3   OH233808   5.419   0.424  16.421 -0.3603 -0.0328  0.4190
 4106TIP3    H133809   5.514   0.412  16.422  0.0423  2.3817 -0.9867
 4106TIP3    H233810   5.393   0.417  16.513  1.4666  1.0218  1.0680
 4107TIP3   OH233811   2.135   1.711   5.649 -0.5734  0.0673 -0.3083
 4107TIP3    H133812   2.096   1.639   5.698 -0.3458  0.3186  0.2495
 4107TIP3    H233813   2.067   1.779   5.649  0.0896  0.7861  1.2907
 4108TIP3   OH233814   3.942   4.172   5.187  0.2205 -0.0497  0.5665
 4108TIP3    H133815   3.938   4.182   5.282 -2.9076 -1.6034  0.7327
 4108TIP3    H233816   3.856   4.137   5.163  1.5098 -1.3992 -2.6476
 4109TIP3   OH233817   1.702   4.889   5.370  0.8175  0.0596 -0.3893
 4109TIP3    H133818   1.673   4.944   5.298 -0.3013 -2.2101 -1.8025
 4109TIP3    H233819   1.762   4.826   5.329  1.9697  0.1186  1.1206
 4110TIP3   OH233820   5.435   3.782   3.535  0.1885 -0.0325 -0.0181
 4110TIP3    H133821   5.461   3.801   3.625  0.6247 -2.1810  0.3538
 4110TIP3    H233822   5.516   3.759   3.490 -0.3422 -1.8170 -0.1620
 4111TIP3   OH233823   4.830   4.641  14.224  0.4540 -0.1761  0.1829
 4111TIP3    H133824   4.764   4.582  14.261  0.7427 -0.3996  0.3466
 4111TIP3    H233825   4.809   4.726  14.262 -1.6551  0.4498 -2.1586
 4112TIP3   OH233826   3.265   3.164  12.512  0.0453 -0.5285 -0.0992
 4112TIP3    H133827   3.251   3.106  12.587 -0.4246 -0.8495 -0.4260
 4112TIP3    H233828   3.359   3.183  12.513 -0.0292 -0.1780  0.8193
 4113TIP3   OH233829   4.787   5.339   2.189  0.2383  0.2837 -0.4502
 4113TIP3    H133830   4.877   5.365   2.210 -0.1695  2.2356 -0.9235
 4113TIP3    H233831   4.793   5.305   2.100  0.7271 -0.9798  0.0433
 4114TIP3   OH233832   6.304   2.587  13.299 -0.0346 -0.3069  0.6947
 4114TIP3    H133833   6.329   2.673  13.265 -0.4778 -0.9761 -1.4801
 4114TIP3    H233834   6.307   2.597  13.394  2.4340  1.3751  0.5337
 4115TIP3   OH233835   1.869   5.541  13.003 -0.4733  0.3492  0.2947
 4115TIP3    H133836   1.882   5.608  12.937  0.1783  0.4667  0.5277
 4115TIP3    H233837   1.895   5.459  12.960  1.5556  0.6252  0.8583
 4116TIP3   OH233838   4.317   5.721   1.624 -0.0278 -0.3920  0.0696
 4116TIP3    H133839   4.311   5.705   1.530 -0.6294 -1.8730  0.3457
 4116TIP3    H233840   4.306   5.816   1.632  1.4575 -0.0395 -1.4476
 4117TIP3   OH233841   3.255   1.163   4.818 -0.4812 -0.6098  0.2619
 4117TIP3    H133842   3.211   1.215   4.751  1.0900 -0.4780 -0.7284
 4117TIP3    H233843   3.346   1.156   4.787  0.0273 -1.4901  1.8284
 4118TIP3   OH233844   2.441   3.995   0.536  0.0054 -0.4826 -0.7328
 4118TIP3    H133845   2.411   3.920   0.484  2.2539 -3.6611  2.0739
 4118TIP3    H233846   2.503   4.040   0.479 -0.2285 -1.7070 -2.0260
 4119TIP3   OH233847   5.521   1.379   1.031  0.0168 -0.7845  0.6254
 4119TIP3    H133848   5.582   1.437   1.077  0.0664  1.1501 -1.7041
 4119TIP3    H233849   5.575   1.306   1.002  0.7399 -0.2370  0.5564
 4120TIP3   OH233850   3.308   3.133   3.763  0.0828 -0.2321 -0.2297
 4120TIP3    H133851   3.322   3.147   3.670 -1.8727  0.5062 -0.4548
 4120TIP3    H233852   3.388   3.168   3.805  0.2544  1.0123 -1.5209
 4121TIP3   OH233853   0.527   6.260  14.219 -0.2889 -0.9547  0.2541
 4121TIP3    H133854   0.465   6.193  14.189 -0.0674 -0.9435 -0.2481
 4121TIP3    H233855   0.592   6.265  14.149 -0.4089 -0.0790  0.1930
 4122TIP3   OH233856   0.505   1.145   0.832 -0.1411  0.9916  0.2326
 4122TIP3    H133857   0.432   1.206   0.835 -0.6678  0.4554 -0.9213
 4122TIP3    H233858   0.500   1.106   0.745  2.4168  2.0264 -0.4811
 4123TIP3   OH233859   3.882   2.264   3.920  0.3258  0.3358  0.2656
 4123TIP3    H133860   3.978   2.264   3.921  0.5297 -3.4464  2.1271
 4123TIP3    H233861   3.859   2.172   3.938 -3.6486  1.2025  0.4144
 4124TIP3   OH233862   3.098   0.668  12.335  0.1816  0.3568  0.4453
 4124TIP3    H133863   3.191   0.692  12.337  0.7236 -1.5939  1.7999
 4124TIP3    H233864   3.088   0.607  12.409 -1.7882 -0.8220 -0.7131
 4125TIP3   OH233865   4.162   0.498  13.157  0.7479 -0.3074  0.5606
 4125TIP3    H133866   4.067   0.484  13.152  0.9583 -1.2746 -2.2659
 4125TIP3    H233867   4.195   0.421  13.204  0.2848 -0.8216  0.0533
 4126TIP3   OH233868   2.170   3.385   0.451 -0.4363 -0.0569  0.2976
 4126TIP3    H133869   2.130   3.443   0.516  0.8025 -2.3254  3.3669
 4126TIP3    H233870   2.119   3.304   0.456 -0.0026 -0.4517 -1.2296
 4127TIP3   OH233871   2.324   1.676   4.992 -0.3443 -0.0751 -0.5365
 4127TIP3    H133872   2.245   1.718   4.957 -1.4549 -0.1120  1.7320
 4127TIP3    H233873   2.389   1.746   4.994 -0.4800  0.1029 -1.9136
 4128TIP3   OH233874   1.103   1.873   1.989 -0.1311  0.1411 -0.3966
 4128TIP3    H133875   1.044   1.948   1.990  1.0739  1.1257  0.9930
 4128TIP3    H233876   1.064   1.811   2.050 -0.3682  0.2471 -0.4365
 4129TIP3   OH233877   4.950   4.694  12.188 -0.1428  0.0939  0.2066
 4129TIP3    H133878   5.008   4.714  12.115 -1.4883  2.2226 -0.3743
 4129TIP3    H233879   4.945   4.598  12.189 -0.4382 -0.0190 -2.8158
 4130TIP3   OH233880   0.326   4.036   5.202 -0.2758  0.6553  0.0309
 4130TIP3    H133881   0.252   4.095   5.216  0.5025  1.6907 -0.1407
 4130TIP3    H233882   0.378   4.078   5.134  1.0039  0.4391  0.8552
 4131TIP3   OH233883   3.808   1.835  12.228  0.1473  0.4703 -0.6466
 4131TIP3    H133884   3.737   1.773  12.242 -0.6307  1.5579  0.4042
 4131TIP3    H233885   3.808   1.850  12.133 -0.6117 -0.0128 -0.7294
 4132TIP3   OH233886   6.140   3.568  17.046  0.1581 -0.8506 -0.1335
 4132TIP3    H133887   6.170   3.644  17.095 -1.4148 -0.0340 -0.3883
 4132TIP3    H233888   6.173   3.493  17.095  0.2015 -0.0295  1.1213
 4133TIP3   OH233889   5.389   3.859  16.573 -0.2465  0.0826 -0.6596
 4133TIP3    H133890   5.457   3.906  16.621 -0.6187 -0.7850  0.7605
 4133TIP3    H233891   5.354   3.924  16.512 -1.3096  1.9541  1.7545
 4134TIP3   OH233892   3.915   0.303   2.441  0.7027  0.1080 -0.3032
 4134TIP3    H133893   3.907   0.349   2.524 -2.8953 -1.2901  0.2917
 4134TIP3    H233894   3.856   0.348   2.381  0.7528 -0.8573 -1.1229
 4135TIP3   OH233895   4.945   0.406  17.122  0.2206  0.3708  0.2436
 4135TIP3    H133896   4.937   0.467  17.195  0.3604  1.0840 -0.3139
 4135TIP3    H233897   4.877   0.340  17.137  0.1545  0.5881  0.9287
 4136TIP3   OH233898   5.385   5.145   3.929  0.5341 -0.2735 -0.1422
 4136TIP3    H133899   5.329   5.222   3.944  1.6726  0.3287  1.2598
 4136TIP3    H233900   5.361   5.083   3.998  0.3229 -0.7677 -0.6549
 4137TIP3   OH233901   5.135   5.836  14.630  0.3136  0.0232 -0.0100
 4137TIP3    H133902   5.052   5.861  14.668  0.8257  0.6106  0.7494
 4137TIP3    H233903   5.199   5.847  14.700  1.1911  0.5866 -0.8562
 4138TIP3   OH233904   4.347   0.044  14.463  0.8851 -0.5115  0.3588
 4138TIP3    H133905   4.406   0.071  14.393  0.1241  1.7717  0.5138
 4138TIP3    H233906   4.386   0.080  14.543 -0.5167  0.8309  0.4950
 4139TIP3   OH233907   0.664   2.709   3.741  0.2015  0.2002 -0.1452
 4139TIP3    H133908   0.690   2.755   3.820  1.1003 -1.5492  0.6379
 4139TIP3    H233909   0.600   2.644   3.771  0.8169 -0.7210 -0.7575
 4140TIP3   OH233910   2.201   6.814   2.887  0.0757  0.2092  0.0403
 4140TIP3    H133911   2.251   6.739   2.856 -1.7647 -0.9266 -0.3392
 4140TIP3    H233912   2.214   6.882   2.821 -1.2568 -1.1016 -1.6358
 4141TIP3   OH233913   5.043   1.079   4.941 -0.6191 -0.0095  0.7674
 4141TIP3    H133914   5.122   1.127   4.968 -1.1660  0.1676  2.1396
 4141TIP3    H233915   4.981   1.093   5.012 -1.2962 -1.5797  0.5320
 4142TIP3   OH233916   0.106   3.555   3.740 -0.2823 -0.6205 -0.1810
 4142TIP3    H133917   0.034   3.506   3.779 -0.2515 -0.2803  0.3120
 4142TIP3    H233918   0.182   3.533   3.795 -0.0488 -0.8294 -0.5818
 4143TIP3   OH233919   6.653   3.834   0.162  0.2874  0.2372 -0.2126
 4143TIP3    H133920   6.671   3.886   0.084 -0.9224  3.7417  1.6418
 4143TIP3    H233921   6.558   3.826   0.164  0.3055  0.1254  0.8296
 4144TIP3   OH233922   4.784   2.300  14.424  0.0338 -0.2814 -0.9546
 4144TIP3    H133923   4.740   2.231  14.474 -1.2695  2.6468  2.3484
 4144TIP3    H233924   4.870   2.263  14.403  0.4344 -2.0859  2.9609
 4145TIP3   OH233925   6.603   6.272   0.156 -0.1850  0.8341  0.3164
 4145TIP3    H133926   6.527   6.275   0.098  0.1425  2.3730 -0.0958
 4145TIP3    H233927   6.607   6.360   0.194  0.1934  0.1665  1.9210
 4146TIP3   OH233928   4.318   2.998  12.856 -0.4480 -0.1498 -0.2408
 4146TIP3    H133929   4.381   2.926  12.859  0.5387  0.7133  1.9199
 4146TIP3    H233930   4.365   3.070  12.813 -1.0821 -0.4284 -1.4607
 4147TIP3   OH233931   2.949   5.161   0.565  0.4332 -0.2070  0.0483
 4147TIP3    H133932   2.987   5.123   0.644 -0.3504 -0.2294  0.4238
 4147TIP3    H233933   2.971   5.099   0.495  0.4310 -0.6055  0.3982
 4148TIP3   OH233934   3.859   6.136   2.595 -0.1214  0.3465  0.3549
 4148TIP3    H133935   3.810   6.164   2.673 -1.5091 -1.3297  0.1480
 4148TIP3    H233936   3.903   6.056   2.622  0.1538  0.2693 -0.3171
 4149TIP3   OH233937   5.200   1.267   4.084 -0.5072  0.2184 -0.3086
 4149TIP3    H133938   5.127   1.242   4.028 -2.4881  1.2762  1.6463
 4149TIP3    H233939   5.220   1.187   4.134  1.8314 -0.9865 -2.9068
 4150TIP3   OH233940   5.252   4.088   3.862  0.0909 -0.2744 -0.1469
 4150TIP3    H133941   5.181   4.078   3.926  0.5569 -2.4787  0.0916
 4150TIP3    H233942   5.219   4.153   3.800 -1.4731 -0.0679  0.8549
 4151TIP3   OH233943   2.340   4.346  11.428  0.4158 -0.0710 -0.2311
 4151TIP3    H133944   2.387   4.341  11.511 -1.0232  0.8401  0.6857
 4151TIP3    H233945   2.389   4.410  11.376  1.8429 -1.3064 -0.4767
 4152TIP3   OH233946   2.319   5.564  12.556  0.1373  0.4521  0.4163
 4152TIP3    H133947   2.388   5.566  12.490 -0.1727  2.4556  0.0984
 4152TIP3    H233948   2.329   5.646  12.604 -1.3811  0.3069  1.0437
 4153TIP3   OH233949   2.125   6.008   4.112 -0.5041  0.3580 -0.7200
 4153TIP3    H133950   2.040   6.012   4.156 -0.2218  0.0636 -0.1334
 4153TIP3    H233951   2.189   6.017   4.183  0.0068 -2.2303 -0.7584
 4154TIP3   OH233952   5.925   3.161  15.489  0.9576  0.2849 -0.6703
 4154TIP3    H133953   5.981   3.180  15.414  0.6386 -0.4500 -1.1024
 4154TIP3    H233954   5.928   3.066  15.498  0.3426  0.2962 -0.2570
 4155TIP3   OH233955   1.051   3.685   4.276  0.1261 -0.8569 -0.2128
 4155TIP3    H133956   1.103   3.752   4.232  0.5586 -1.6119 -0.8796
 4155TIP3    H233957   0.965   3.690   4.234 -0.0370 -0.3000  0.1792
 4156TIP3   OH233958   5.020   2.581  14.682  0.4061  0.0147 -0.1804
 4156TIP3    H133959   5.036   2.670  14.714  0.8384 -0.0080 -0.3149
 4156TIP3    H233960   4.926   2.569  14.688 -0.2150  1.8133 -3.5006
 4157TIP3   OH233961   0.595   1.554   1.427 -0.6537 -0.0965  0.4755
 4157TIP3    H133962   0.630   1.465   1.421 -0.1780  0.1207 -0.2285
 4157TIP3    H233963   0.673   1.609   1.438 -0.8234  0.3412 -0.4347
 4158TIP3   OH233964   1.887   3.872  14.816 -0.0878  0.1772  0.4532
 4158TIP3    H133965   1.979   3.884  14.793  0.3428 -2.2843  0.5936
 4158TIP3    H233966   1.852   3.817  14.746 -1.9908  2.5125 -0.5634
 4159TIP3   OH233967   3.947   2.825  16.192 -0.0378  0.1405 -0.0899
 4159TIP3    H133968   3.986   2.898  16.143  0.1333 -0.0746 -0.2744
 4159TIP3    H233969   3.883   2.867  16.249  0.1772  0.4546 -0.0750
 4160TIP3   OH233970   1.546   5.818  12.954  0.1214 -0.4630  0.1088
 4160TIP3    H133971   1.474   5.849  13.009  0.6156 -0.8817  1.0105
 4160TIP3    H233972   1.606   5.892  12.949 -0.9689  0.3650 -1.7650
 4161TIP3   OH233973   2.986   0.512  15.418 -0.3069 -0.1767  0.2562
 4161TIP3    H133974   2.995   0.600  15.382 -0.2726 -0.1699  0.2821
 4161TIP3    H233975   3.075   0.477  15.420 -0.2090  0.1069  1.0573
 4162TIP3   OH233976   6.673   6.408  12.986 -0.2967  0.2462 -0.0983
 4162TIP3    H133977   6.588   6.365  12.985  0.2048 -0.7927  0.2322
 4162TIP3    H233978   6.657   6.493  13.028 -2.0317  2.0684 -3.9375
 4163TIP3   OH233979   0.410   2.947  15.979 -0.1890 -0.1438 -0.3611
 4163TIP3    H133980   0.487   2.997  16.005 -0.3773 -0.0620  0.0516
 4163TIP3    H233981   0.394   2.888  16.052  2.1650 -3.4243 -2.2606
 4164TIP3   OH233982   0.774   3.011   1.371 -0.3408  0.2225 -0.0834
 4164TIP3    H133983   0.704   2.976   1.427  1.2133 -1.5456  0.8912
 4164TIP3    H233984   0.801   2.937   1.317  2.0845  0.2231  0.9949
 4165TIP3   OH233985   4.613   1.961   4.050 -0.4880  0.1508 -0.3247
 4165TIP3    H133986   4.678   2.028   4.029  0.1483 -0.9370 -2.0471
 4165TIP3    H233987   4.632   1.935   4.140  1.1440  0.2055 -0.6353
 4166TIP3   OH233988   2.364   0.700   4.531  0.2440  0.4839  0.4311
 4166TIP3    H133989   2.275   0.696   4.497 -0.2768  0.0810  1.7751
 4166TIP3    H233990   2.354   0.730   4.622  1.6642  2.6192 -0.0441
 4167TIP3   OH233991   1.966   3.969   2.266  0.1832 -0.5949  0.1859
 4167TIP3    H133992   2.030   3.899   2.278  0.9237 -0.2391 -1.3707
 4167TIP3    H233993   2.018   4.044   2.236 -0.8104  0.0656  0.0662
 4168TIP3   OH233994   0.850   1.031  11.372  0.7009 -0.2930 -0.2897
 4168TIP3    H133995   0.783   0.997  11.314 -0.1485  1.4679 -0.4023
 4168TIP3    H233996   0.806   1.100  11.422  1.8429 -0.6344  1.2719
 4169TIP3   OH233997   4.215   2.096  16.537  0.0971 -0.2367 -0.1896
 4169TIP3    H133998   4.210   2.073  16.630  0.5378  0.0470 -0.0925
 4169TIP3    H233999   4.129   2.073  16.502 -0.2353  0.0963  0.3897
 4170TIP3   OH234000   2.317   4.892   2.712 -0.2245 -0.5309  0.4778
 4170TIP3    H134001   2.303   4.944   2.633 -1.2462  1.3656  1.8563
 4170TIP3    H234002   2.230   4.860   2.737 -0.1361  0.0737  1.6162
 4171TIP3   OH234003   2.861   6.769   1.532 -0.8927 -0.3885 -0.1599
 4171TIP3    H134004   2.911   6.846   1.561 -1.9168  0.3357 -0.2464
 4171TIP3    H234005   2.863   6.710   1.607 -0.0896 -0.2804 -0.0891
 4172TIP3   OH234006   3.706   4.456  15.439 -0.1136  0.2696 -0.1576
 4172TIP3    H134007   3.665   4.537  15.468  1.8039  1.7605 -1.3529
 4172TIP3    H234008   3.668   4.439  15.353  0.0560  0.3368 -0.2460
 4173TIP3   OH234009   1.915   2.152  16.370 -0.3903  0.5297  0.1179
 4173TIP3    H134010   1.981   2.088  16.344  0.9580 -0.0095  4.0850
 4173TIP3    H234011   1.843   2.138  16.309  1.1263 -2.5232 -1.2051
 4174TIP3   OH234012   3.403   2.418   4.867 -0.5067  0.1206  0.4893
 4174TIP3    H134013   3.491   2.381   4.855 -0.2089  0.7072  0.8481
 4174TIP3    H234014   3.364   2.364   4.937  0.8052  1.9300  2.7586
 4175TIP3   OH234015   1.862   2.361   1.181  0.5082  0.1600 -0.2272
 4175TIP3    H134016   1.857   2.326   1.270  0.8088  0.4075 -0.1101
 4175TIP3    H234017   1.943   2.326   1.145 -0.5743 -1.5519 -1.1183
 4176TIP3   OH234018   2.173   2.659   2.952 -0.5197 -0.6508 -0.1061
 4176TIP3    H134019   2.179   2.565   2.973 -4.5883 -1.1550 -0.3306
 4176TIP3    H234020   2.164   2.701   3.037  0.6135 -0.5182 -0.0421
 4177TIP3   OH234021   4.814   0.582  14.286 -0.5023  0.1923  0.0614
 4177TIP3    H134022   4.830   0.666  14.330 -1.6549  0.7739 -0.5468
 4177TIP3    H234023   4.735   0.548  14.328  1.2703 -1.8488  1.9935
 4178TIP3   OH234024   3.549   3.007  14.433  0.2725  0.0801  0.0267
 4178TIP3    H134025   3.462   3.046  14.441  0.4482  0.8105 -1.3642
 4178TIP3    H234026   3.601   3.074  14.390  1.5066 -0.4063  0.7139
 4179TIP3   OH234027   6.767   2.083   0.176 -0.0878  0.1047  0.4046
 4179TIP3    H134028   6.758   2.098   0.270  2.4072  1.0829  0.5818
 4179TIP3    H234029   6.722   2.156   0.135  1.0637  1.1591  0.9521
 4180TIP3   OH234030   3.517   3.599  16.325 -0.1557  0.2813  0.0877
 4180TIP3    H134031   3.439   3.650  16.303  0.6362  2.2553  1.6211
 4180TIP3    H234032   3.575   3.610  16.250 -0.3709  0.8529  0.0035
 4181TIP3   OH234033   4.534   6.334  15.389  0.1973  0.4616  1.2839
 4181TIP3    H134034   4.500   6.245  15.379  0.2488  0.1873  3.1630
 4181TIP3    H234035   4.608   6.324  15.449  0.8263  1.6422  0.7233
 4182TIP3   OH234036   0.824   1.184  14.562  0.1229 -0.6105  0.1284
 4182TIP3    H134037   0.840   1.272  14.595  2.8360  1.0308 -4.5274
 4182TIP3    H234038   0.892   1.131  14.603  0.6383  0.2805  0.4613
 4183TIP3   OH234039   4.590   2.573   2.854  0.1695 -0.6872  0.2810
 4183TIP3    H134040   4.510   2.547   2.809  0.4464  0.1429 -0.7217
 4183TIP3    H234041   4.562   2.639   2.918  0.1162 -0.0102 -0.4320
 4184TIP3   OH234042   1.659   0.603   1.575  0.1214 -0.2575  0.2898
 4184TIP3    H134043   1.599   0.530   1.561 -0.9578  0.5039  0.8138
 4184TIP3    H234044   1.608   0.667   1.624  1.2593  0.5698  0.4341
 4185TIP3   OH234045   5.859   0.174  14.857 -0.7046 -0.2916 -0.9637
 4185TIP3    H134046   5.844   0.260  14.819 -0.5628 -0.5877 -1.7142
 4185TIP3    H234047   5.772   0.144  14.883 -0.8823 -0.2972 -1.5451
 4186TIP3   OH234048   1.129   0.019  11.851  0.0169 -0.1581 -0.4166
 4186TIP3    H134049   1.143   0.057  11.937 -1.3056  3.6913 -1.6931
 4186TIP3    H234050   1.035   0.024  11.837  0.0712 -1.7324 -1.6969
 4187TIP3   OH234051   6.568   5.626   0.735  0.1601 -0.0353 -0.4666
 4187TIP3    H134052   6.516   5.636   0.815  1.4123  1.1514  0.2557
 4187TIP3    H234053   6.544   5.703   0.682  1.7209  0.9796  0.2340
 4188TIP3   OH234054   4.352   3.325   0.946 -0.0234 -0.2626  0.0163
 4188TIP3    H134055   4.371   3.373   0.865  1.2606  1.5615  1.3408
 4188TIP3    H234056   4.286   3.378   0.990 -0.9919 -1.4448  0.0405
 4189TIP3   OH234057   3.822   3.137   2.408  0.4231  0.1327 -0.2112
 4189TIP3    H134058   3.904   3.182   2.391  0.4553 -0.1252 -0.7590
 4189TIP3    H234059   3.817   3.130   2.504  1.0564  0.1052 -0.1798
 4190TIP3   OH234060   4.185   6.359  12.748  0.1463 -0.2759  0.0225
 4190TIP3    H134061   4.160   6.441  12.791 -1.0275  0.3448 -1.7178
 4190TIP3    H234062   4.261   6.382  12.695  0.1234 -0.4169 -0.0717
 4191TIP3   OH234063   0.327   1.587  15.137  0.2122 -0.1648 -0.2389
 4191TIP3    H134064   0.337   1.600  15.231 -0.3287 -0.0220 -0.1950
 4191TIP3    H234065   0.309   1.674  15.102  1.9704  0.0419 -0.7001
 4192TIP3   OH234066   4.033   0.112   6.320 -0.0309 -0.4525 -0.1789
 4192TIP3    H134067   4.077   0.160   6.390 -2.0798 -1.2797  1.8399
 4192TIP3    H234068   4.075   0.025   6.321  1.9655  0.3975 -2.1214
 4193TIP3   OH234069   1.343   5.918   1.426 -0.1242 -0.0242 -0.4278
 4193TIP3    H134070   1.427   5.960   1.405  1.3715 -2.7195 -0.4342
 4193TIP3    H234071   1.295   5.918   1.343  1.1154 -0.8869 -1.1991
 4194TIP3   OH234072   6.104   6.743   6.086 -0.1375  0.1311  0.7828
 4194TIP3    H134073   6.009   6.759   6.092  0.0250  0.9304  1.2832
 4194TIP3    H234074   6.123   6.683   6.157 -0.0684  0.9565  1.4769
 4195TIP3   OH234075   6.351   1.200   3.119 -0.4127  0.2582  0.1061
 4195TIP3    H134076   6.332   1.137   3.189  0.6552  0.2436  0.3947
 4195TIP3    H234077   6.398   1.149   3.053  1.8112  1.0338  1.0085
 4196TIP3   OH234078   5.426   1.337  15.705  0.2585  0.5011  0.2644
 4196TIP3    H134079   5.513   1.336  15.664  0.3619  0.3664  0.4860
 4196TIP3    H234080   5.366   1.354  15.633  0.4634  0.5299  0.0984
 4197TIP3   OH234081   3.502   1.186  14.032 -0.0904 -0.5196  0.0679
 4197TIP3    H134082   3.471   1.194  14.122 -1.9337  0.2372 -0.5854
 4197TIP3    H234083   3.526   1.093  14.023 -3.0040 -1.4051  0.4498
 4198TIP3   OH234084   5.815   4.682   5.237 -0.2192  0.2611 -0.1328
 4198TIP3    H134085   5.893   4.735   5.252 -1.6694  2.3483  0.4309
 4198TIP3    H234086   5.743   4.733   5.275 -1.7673 -1.9807  0.1735
 4199TIP3   OH234087   6.688   0.975   3.573  0.3060 -0.0806  0.1387
 4199TIP3    H134088   6.661   1.065   3.595 -0.6744 -0.7314  1.8055
 4199TIP3    H234089   6.753   0.986   3.504 -0.4882  1.8592 -0.3769
 4200TIP3   OH234090   1.469   5.516  10.504 -0.3541  0.1982  0.0014
 4200TIP3    H134091   1.422   5.494  10.584  0.6715 -2.0356  0.0721
 4200TIP3    H234092   1.480   5.432  10.459  2.3622  0.7942 -0.6401
 4201TIP3   OH234093   0.992   4.060  14.767 -0.2209  0.1037  0.0324
 4201TIP3    H134094   0.964   3.990  14.824  0.2143  0.3690  0.5774
 4201TIP3    H234095   0.915   4.080  14.713 -0.4144 -0.6157  0.0404
 4202TIP3   OH234096   1.265   0.971   5.860 -0.2206  0.1135  1.0016
 4202TIP3    H134097   1.253   1.022   5.780 -0.1462 -0.6887  0.4738
 4202TIP3    H234098   1.203   1.011   5.922  0.0900  1.0746  0.7193
 4203TIP3   OH234099   0.011   2.922  11.666 -0.4607 -0.0504  0.1469
 4203TIP3    H134100   0.075   2.949  11.732  0.4620 -1.8666  0.0872
 4203TIP3    H234101  -0.073   2.924  11.712  0.1437 -1.1750  1.4012
 4204TIP3   OH234102   0.609   2.384   0.477 -0.4702 -0.3974  0.1230
 4204TIP3    H134103   0.532   2.340   0.439 -0.8162  0.9937 -0.8686
 4204TIP3    H234104   0.636   2.326   0.548 -1.7104 -1.5292 -0.2660
 4205TIP3   OH234105   2.664   0.014  14.700  0.3378 -0.9014 -0.2627
 4205TIP3    H134106   2.617  -0.034  14.633  1.5610 -1.4718 -0.7559
 4205TIP3    H234107   2.661   0.105  14.672 -0.1578 -0.9791 -0.4669
 4206TIP3   OH234108   6.096   5.676  16.330 -0.5742 -0.3776 -0.5304
 4206TIP3    H134109   6.100   5.710  16.240 -0.9317  2.9221  0.5445
 4206TIP3    H234110   6.003   5.663  16.347 -0.6927  0.9340 -0.0607
 4207TIP3   OH234111   4.291   0.882   4.399  0.0301 -0.1181 -0.2517
 4207TIP3    H134112   4.242   0.801   4.410 -0.3071  0.0873 -0.2006
 4207TIP3    H234113   4.223   0.949   4.386  0.2454  0.3232  0.7744
 4208TIP3   OH234114   0.142   3.564  13.477 -0.0328  0.1306  0.3873
 4208TIP3    H134115   0.083   3.498  13.440 -0.6204  0.1138  1.3139
 4208TIP3    H234116   0.211   3.513  13.519  0.6541  0.1503 -0.6966
 4209TIP3   OH234117   4.547   0.137  16.118 -0.3790  0.0389  0.2078
 4209TIP3    H134118   4.513   0.210  16.170 -0.6122  0.1151 -0.0489
 4209TIP3    H234119   4.485   0.128  16.046  1.2421  1.5776 -1.5166
 4210TIP3   OH234120   4.003   4.757   0.798 -0.1324  0.3180  0.0437
 4210TIP3    H134121   3.966   4.716   0.720 -0.2903 -0.5441  0.5541
 4210TIP3    H234122   4.098   4.753   0.784 -0.1603  0.1963 -0.1135
 4211TIP3   OH234123   4.731   3.530  13.457  0.9588 -0.6727  0.1585
 4211TIP3    H134124   4.805   3.482  13.420  0.2275 -2.1424  0.4962
 4211TIP3    H234125   4.658   3.469  13.450 -0.0855  0.5211  0.3864
 4212TIP3   OH234126   3.956   6.721   3.151 -0.2463 -0.0224  0.6394
 4212TIP3    H134127   3.911   6.739   3.068 -1.1431 -2.5849  0.4489
 4212TIP3    H234128   3.981   6.629   3.144  1.4919  0.2627  2.4278
 4213TIP3   OH234129   0.582   0.249  13.837  0.4100  0.5001 -0.5588
 4213TIP3    H134130   0.559   0.308  13.765 -0.2180  0.8606 -0.0695
 4213TIP3    H234131   0.599   0.165  13.794  0.0713  0.7178 -1.1308
 4214TIP3   OH234132   5.976   1.174  16.927  0.1953 -0.1952  0.4087
 4214TIP3    H134133   5.968   1.255  16.977  1.2232  0.4120 -0.3699
 4214TIP3    H234134   6.017   1.112  16.988  2.7282  0.9305  0.0058
 4215TIP3   OH234135   1.478   6.361   1.369  0.0460  0.3712  0.5447
 4215TIP3    H134136   1.415   6.373   1.440 -1.1906 -2.5037  0.0889
 4215TIP3    H234137   1.488   6.266   1.362  2.6386  0.6660 -1.0136
 4216TIP3   OH234138   6.322   1.250  16.661 -0.0604  0.6577  0.0105
 4216TIP3    H134139   6.247   1.288  16.706  0.1689  0.4370  0.5846
 4216TIP3    H234140   6.391   1.315  16.669  0.6106 -0.2096  1.7732
 4217TIP3   OH234141   0.684   2.523   1.575  0.0058  0.3797  0.1364
 4217TIP3    H134142   0.652   2.438   1.546 -1.2064  0.0192  2.3057
 4217TIP3    H234143   0.769   2.533   1.532 -0.2624 -1.4865 -0.9017
 4218TIP3   OH234144   0.600   6.538  11.802 -0.3391 -0.3902 -0.5936
 4218TIP3    H134145   0.583   6.455  11.758 -0.3724 -0.9335  0.4254
 4218TIP3    H234146   0.523   6.592  11.781  0.4654  0.0523 -2.7192
 4219TIP3   OH234147   6.226   5.084   5.039 -0.1486  0.4840  0.2064
 4219TIP3    H134148   6.257   5.014   4.982  1.3965  0.6673  0.7940
 4219TIP3    H234149   6.131   5.087   5.024 -0.3078 -1.9330  0.3729
 4220TIP3   OH234150   4.402   2.730   1.144 -0.2909 -0.2102 -0.1246
 4220TIP3    H134151   4.440   2.648   1.177  1.5589  0.2271 -1.0539
 4220TIP3    H234152   4.359   2.769   1.220 -0.7795 -1.7906  0.4512
 4221TIP3   OH234153   3.609   1.955   1.981 -0.3763  0.5192 -0.2250
 4221TIP3    H134154   3.541   2.019   1.958  1.6649  3.0625  0.3488
 4221TIP3    H234155   3.629   1.972   2.072 -0.8683 -2.1642  0.4779
 4222TIP3   OH234156   1.442   5.436  14.412 -0.3705  0.2483 -0.2646
 4222TIP3    H134157   1.458   5.483  14.330  1.9357  0.9916  0.5445
 4222TIP3    H234158   1.363   5.385  14.394 -1.8286  2.7898 -1.8935
 4223TIP3   OH234159   4.308   5.905  11.374 -0.5719 -0.7357  0.7775
 4223TIP3    H134160   4.300   5.957  11.454 -0.8107 -0.7501  0.7652
 4223TIP3    H234161   4.401   5.884  11.367  0.1395  2.2979 -0.8596
 4224TIP3   OH234162   4.878   1.947   4.239  0.6211  0.5498  0.1476
 4224TIP3    H134163   4.908   1.873   4.185 -0.1407  0.6923 -0.4751
 4224TIP3    H234164   4.845   1.906   4.319 -2.1745 -0.0374 -1.2170
 4225TIP3   OH234165   6.229   3.436  15.249  0.0084 -0.3802 -0.1187
 4225TIP3    H134166   6.300   3.400  15.303  0.4202 -0.7652 -0.9120
 4225TIP3    H234167   6.151   3.390  15.279  0.0221  0.2406  0.9579
 4226TIP3   OH234168   6.397   0.204   3.085  0.1976 -0.3260 -0.0291
 4226TIP3    H134169   6.306   0.233   3.073 -0.4890 -1.1838  2.3259
 4226TIP3    H234170   6.432   0.263   3.152  1.3785 -0.0562 -0.8613
 4227TIP3   OH234171   2.191   5.345  14.391 -0.3754  0.3438 -0.6249
 4227TIP3    H134172   2.191   5.335  14.296 -2.5723 -0.5790 -0.5705
 4227TIP3    H234173   2.283   5.329  14.416  0.0831 -0.2169 -2.4922
 4228TIP3   OH234174   0.789   3.453   5.846 -0.5958 -0.3602  0.1839
 4228TIP3    H134175   0.767   3.541   5.817  2.5369  0.1328 -1.0959
 4228TIP3    H234176   0.831   3.465   5.931 -2.7891 -1.0269  1.4543
 4229TIP3   OH234177   6.687   2.933   0.263 -0.0064  0.1800 -0.0658
 4229TIP3    H134178   6.644   2.984   0.194  1.3335 -2.5699 -3.2286
 4229TIP3    H234179   6.620   2.872   0.293 -0.2140  0.4575  0.0350
 4230TIP3   OH234180   1.893   4.410  16.958 -0.2430  0.1476 -0.4650
 4230TIP3    H134181   1.880   4.493  17.004 -0.8690  0.2040 -0.7377
 4230TIP3    H234182   1.849   4.345  17.013  0.8760 -0.1367  0.1341
 4231TIP3   OH234183   1.352   3.171  14.126 -0.3719 -0.1908  0.0629
 4231TIP3    H134184   1.349   3.188  14.220  0.9198 -0.0940  0.1053
 4231TIP3    H234185   1.266   3.199  14.094 -1.2494 -1.2170  1.3558
 4232TIP3   OH234186   3.240   2.806  16.016  0.4964  0.3205  0.0727
 4232TIP3    H134187   3.254   2.750  16.092  1.3947  0.3029 -0.0943
 4232TIP3    H234188   3.304   2.876  16.025  0.8374  0.1474 -0.8245
 4233TIP3   OH234189   1.169   1.913  12.044  0.0531  0.0083 -0.4644
 4233TIP3    H134190   1.250   1.895  11.996 -0.2990  0.5580 -1.2822
 4233TIP3    H234191   1.110   1.951  11.979 -0.6448  0.2204  0.2718
 4234TIP3   OH234192   3.675   4.713   2.089  0.1651 -0.3709  0.2575
 4234TIP3    H134193   3.746   4.757   2.136 -0.4352 -0.0944  0.9207
 4234TIP3    H234194   3.609   4.781   2.076  0.2649 -0.4720 -0.8914
 4235TIP3   OH234195   0.065   2.565  16.659  0.0294 -0.0269  0.3348
 4235TIP3    H134196   0.072   2.630  16.590  1.7916 -1.0777 -0.5746
 4235TIP3    H234197   0.146   2.575  16.710  1.7640 -3.1247 -1.4503
 4236TIP3   OH234198   1.174   4.606   0.830  0.2113 -0.0628  0.1911
 4236TIP3    H134199   1.079   4.614   0.827  0.1560  0.0461  1.6594
 4236TIP3    H234200   1.191   4.513   0.812 -0.1231  0.0259 -0.6323
 4237TIP3   OH234201   1.997   4.598  13.070  0.2496 -0.4410 -0.3511
 4237TIP3    H134202   1.916   4.565  13.111  0.3817 -1.2645 -0.7405
 4237TIP3    H234203   2.046   4.519  13.047  1.1509  0.0572 -0.1599
 4238TIP3   OH234204   3.467   4.122   1.963  0.3399  0.2839  0.7619
 4238TIP3    H134205   3.410   4.117   2.039 -1.9189  0.0936 -0.8333
 4238TIP3    H234206   3.550   4.155   1.996 -0.2821 -0.6150  3.4112
 4239TIP3   OH234207   6.224   3.088   5.576  0.8031 -0.7488  0.2612
 4239TIP3    H134208   6.258   3.158   5.520 -0.1983 -0.2967  0.2042
 4239TIP3    H234209   6.214   3.013   5.516 -3.1404  0.5449 -1.0412
 4240TIP3   OH234210   1.239   1.536  13.531 -0.9212  0.3011 -0.3706
 4240TIP3    H134211   1.234   1.476  13.456 -0.8284 -0.2719  0.0711
 4240TIP3    H234212   1.159   1.518  13.581 -0.1635 -0.5878  0.5847
 4241TIP3   OH234213   0.581   4.431  11.852  0.5519 -0.6034 -0.2806
 4241TIP3    H134214   0.568   4.346  11.893 -1.1344  0.2564  1.1338
 4241TIP3    H234215   0.529   4.427  11.771 -0.1831 -0.6726  0.1863
 4242TIP3   OH234216   1.274   2.689   4.351 -0.0908  0.4517  0.0145
 4242TIP3    H134217   1.183   2.718   4.351  0.0225  0.8503 -1.1957
 4242TIP3    H234218   1.269   2.594   4.341 -0.3711  0.4756 -0.0824
 4243TIP3   OH234219   2.738   1.806   2.176  0.0505 -0.4217 -0.7532
 4243TIP3    H134220   2.746   1.774   2.265  0.9519  0.4368 -0.5077
 4243TIP3    H234221   2.655   1.852   2.174 -0.9767 -2.1973 -0.9493
 4244TIP3   OH234222   4.991   3.342  10.780  0.2776  0.4622  1.0896
 4244TIP3    H134223   5.023   3.282  10.847  0.5901  0.5978  1.0641
 4244TIP3    H234224   5.025   3.306  10.698 -0.7199 -0.1219  0.9117
 4245TIP3   OH234225   2.857   1.723  11.721  0.0951 -0.0611  0.2759
 4245TIP3    H134226   2.875   1.669  11.644 -0.1574  0.4313 -0.1446
 4245TIP3    H234227   2.913   1.800  11.710 -1.1988  0.8468 -0.3496
 4246TIP3   OH234228   0.057   6.734   1.706  0.2035  0.1060 -0.4604
 4246TIP3    H134229   0.029   6.688   1.785  2.0887 -1.0472 -0.3929
 4246TIP3    H234230  -0.021   6.740   1.652 -0.4066 -2.0800  0.0791
 4247TIP3   OH234231   2.002   2.622   2.558 -0.4777  0.2971  0.6391
 4247TIP3    H134232   2.032   2.601   2.646 -1.7115 -1.2536  0.7369
 4247TIP3    H234233   1.961   2.541   2.527 -0.3289  0.9055 -1.2546
 4248TIP3   OH234234   4.876   3.308  15.694 -0.1978 -0.1971  0.1181
 4248TIP3    H134235   4.848   3.380  15.751 -1.2313 -0.5242  0.0255
 4248TIP3    H234236   4.827   3.321  15.613 -0.0600 -0.7626 -0.0568
 4249TIP3   OH234237   1.150   3.165   5.285  0.5652  0.3274  0.0790
 4249TIP3    H134238   1.151   3.079   5.326  0.1477  0.6076  0.6909
 4249TIP3    H234239   1.125   3.225   5.355 -3.0893  0.5050 -1.1818
 4250TIP3   OH234240   2.578   4.994   1.369  0.4772 -0.6877 -0.3108
 4250TIP3    H134241   2.643   5.028   1.431  2.8810  0.1236 -3.0155
 4250TIP3    H234242   2.512   5.064   1.364 -0.6114 -1.4133  2.3044
 4251TIP3   OH234243   0.489   5.995  15.026 -0.2224 -0.2007 -0.2376
 4251TIP3    H134244   0.558   5.976  14.963 -1.0801 -1.7300 -0.7891
 4251TIP3    H234245   0.415   6.025  14.972 -0.3086  0.4730  0.2439
 4252TIP3   OH234246   5.840   4.135  11.169 -0.1275  0.8623 -0.4858
 4252TIP3    H134247   5.913   4.193  11.153  0.1560  0.3494 -1.0998
 4252TIP3    H234248   5.800   4.168  11.250  2.2874 -0.3319  1.3196
 4253TIP3   OH234249   4.651   5.040  13.693 -0.3345  0.3932  0.4743
 4253TIP3    H134250   4.664   5.116  13.636  1.0787  0.0729  0.3262
 4253TIP3    H234251   4.582   4.989  13.650  0.5686  0.2484 -0.9084
 4254TIP3   OH234252   4.151   5.254  13.598 -0.1485 -1.1736  0.0830
 4254TIP3    H134253   4.216   5.267  13.529  1.5349 -1.0177  1.6136
 4254TIP3    H234254   4.165   5.164  13.628 -1.4251 -1.5231 -0.2874
 4255TIP3   OH234255   0.012   6.097  13.092 -0.1059 -0.5709 -0.1121
 4255TIP3    H134256   0.105   6.099  13.070 -0.4225 -1.1000 -1.6647
 4255TIP3    H234257   0.001   6.163  13.160  1.7383 -1.8431  1.5540
 4256TIP3   OH234258   0.548   4.614  16.965 -0.1591 -0.0708  0.6289
 4256TIP3    H134259   0.481   4.546  16.973 -0.7122  0.1656 -1.3458
 4256TIP3    H234260   0.631   4.566  16.959 -0.3297 -0.4582  1.2844
 4257TIP3   OH234261   0.276   6.681  14.687 -0.6455  0.1773  0.0420
 4257TIP3    H134262   0.367   6.709  14.687 -0.7122  0.4023  0.6055
 4257TIP3    H234263   0.236   6.728  14.613  0.3466 -2.1438 -2.0911
 4258TIP3   OH234264   2.560   3.693  11.388 -0.1083  0.0749 -0.2300
 4258TIP3    H134265   2.469   3.719  11.371 -0.5710 -0.9829  0.5288
 4258TIP3    H234266   2.583   3.740  11.469 -0.2354 -0.2178 -0.0202
 4259TIP3   OH234267   0.524   0.800  15.728  0.0585 -0.0731  0.0935
 4259TIP3    H134268   0.536   0.737  15.799 -2.1769  0.3117  0.8856
 4259TIP3    H234269   0.521   0.885  15.771 -0.9672  0.1930 -0.4620
 4260TIP3   OH234270   3.220   0.402  16.150 -0.0361 -0.0623  0.4525
 4260TIP3    H134271   3.197   0.390  16.242  1.8073  0.3252  1.0031
 4260TIP3    H234272   3.194   0.492  16.131 -0.7678 -0.2629  0.4691
 4261TIP3   OH234273   6.492   5.104   6.253 -0.2804  0.2554  0.0418
 4261TIP3    H134274   6.466   5.149   6.333  0.6866  0.3095  0.3386
 4261TIP3    H234275   6.509   5.175   6.190  0.0267  0.2515  0.1227
 4262TIP3   OH234276   6.407   3.433   1.437 -0.2498  0.6008  0.2190
 4262TIP3    H134277   6.447   3.398   1.517 -0.4390  1.5331  0.7263
 4262TIP3    H234278   6.328   3.381   1.424  0.2833 -0.1972  0.0893
 4263TIP3   OH234279   3.520   1.710  15.698 -0.2804 -0.2665 -0.7344
 4263TIP3    H134280   3.564   1.661  15.628 -1.4090  0.8805 -2.3079
 4263TIP3    H234281   3.426   1.696  15.682 -0.5763 -0.0090  0.6020
 4264TIP3   OH234282   4.756   1.825  13.010  0.3679  0.1623 -0.0885
 4264TIP3    H134283   4.693   1.792  13.074 -0.0686  0.8952 -0.1300
 4264TIP3    H234284   4.703   1.856  12.937  0.8454 -0.3231 -0.6520
 4265TIP3   OH234285   3.527   1.425  13.183  0.0477 -0.0954  0.2474
 4265TIP3    H134286   3.483   1.432  13.098  0.5889 -0.5472 -0.0793
 4265TIP3    H234287   3.599   1.487  13.178 -1.5418  1.9699  1.4479
 4266TIP3   OH234288   5.870   4.191  11.537 -0.3036 -0.1038  0.1065
 4266TIP3    H134289   5.954   4.226  11.509 -0.5054  0.9256  0.7459
 4266TIP3    H234290   5.859   4.223  11.627 -0.1222 -2.4720  1.0677
 4267TIP3   OH234291   3.971   5.449  10.914 -0.0229  0.5815 -0.4158
 4267TIP3    H134292   3.990   5.394  10.838  1.6526 -1.3748  1.2838
 4267TIP3    H234293   3.889   5.413  10.950 -1.3178  2.0898 -1.7170
 4268TIP3   OH234294   2.179   4.528   0.040 -0.2977  0.2433 -0.4633
 4268TIP3    H134295   2.221   4.609   0.069 -1.3478  1.1955 -1.4818
 4268TIP3    H234296   2.222   4.459   0.091 -0.9150  1.6222  2.1404
 4269TIP3   OH234297   2.478   2.398   6.384  0.3107  0.0990  0.5458
 4269TIP3    H134298   2.403   2.346   6.356  2.4777 -2.6859 -0.5327
 4269TIP3    H234299   2.471   2.401   6.479 -1.8883  1.2172  0.4174
 4270TIP3   OH234300   6.032   4.325  16.945 -0.0489 -0.3652  0.1698
 4270TIP3    H134301   6.053   4.414  16.973 -2.7028  0.3789  0.0859
 4270TIP3    H234302   5.987   4.336  16.862 -2.3470 -1.5593  1.1712
 4271TIP3   OH234303   5.178   3.999   0.962 -0.0679  0.1937 -0.1513
 4271TIP3    H134304   5.180   4.053   0.883 -0.5624  0.6145  0.1217
 4271TIP3    H234305   5.171   3.910   0.929 -1.1274  0.4187 -0.5782
 4272TIP3   OH234306   2.859   5.558   2.745  0.6023  0.6161  0.2517
 4272TIP3    H134307   2.764   5.560   2.732  0.7317  0.7826 -0.7312
 4272TIP3    H234308   2.870   5.574   2.839 -0.2872  1.9310  0.1638
 4273TIP3   OH234309   0.416   0.745   2.964  0.2306 -0.2150  0.5642
 4273TIP3    H134310   0.460   0.818   2.921  0.2902 -0.1585  0.7220
 4273TIP3    H234311   0.486   0.696   3.007  0.2817 -0.7587 -0.1139
 4274TIP3   OH234312   3.646   4.594  16.007  0.3614 -0.4598 -0.0420
 4274TIP3    H134313   3.735   4.583  16.039 -0.2185 -0.0122  1.8934
 4274TIP3    H234314   3.622   4.683  16.033 -0.2143 -0.0986 -1.7095
 4275TIP3   OH234315   5.532   1.955  14.169 -0.0607  0.1410  0.4225
 4275TIP3    H134316   5.589   1.896  14.119  1.1404  0.4264  1.3948
 4275TIP3    H234317   5.464   1.898  14.205  0.3094 -0.4252  0.2437
 4276TIP3   OH234318   1.212   0.078   6.356  0.5822 -0.0094  0.3252
 4276TIP3    H134319   1.120   0.055   6.371 -0.0959  1.5332 -1.1481
 4276TIP3    H234320   1.248   0.004   6.308  0.0723 -0.5660  0.7904
 4277TIP3   OH234321   1.608   0.626  15.529  0.2350 -0.8817  0.0555
 4277TIP3    H134322   1.541   0.573  15.573 -0.7827  0.3925  0.0959
 4277TIP3    H234323   1.559   0.682  15.469  0.9895  1.8212  1.8243
 4278TIP3   OH234324   4.012   5.573   4.337 -0.2604 -0.3691 -0.6926
 4278TIP3    H134325   3.925   5.542   4.360 -0.7806  0.4907 -1.3987
 4278TIP3    H234326   4.065   5.494   4.329 -1.2374 -0.9843 -1.2758
 4279TIP3   OH234327   5.443   4.935   5.911 -0.5754 -0.3804 -0.0572
 4279TIP3    H134328   5.411   4.937   6.001 -0.2804 -0.8549  0.0605
 4279TIP3    H234329   5.368   4.906   5.859 -0.2671 -1.8147  0.2591
 4280TIP3   OH234330   0.260   2.494   5.477 -0.4716 -0.5254 -0.0281
 4280TIP3    H134331   0.205   2.572   5.476  0.4098  0.1152 -0.2237
 4280TIP3    H234332   0.283   2.480   5.385  1.5928  0.6314  0.2520
 4281TIP3   OH234333   6.580   6.355  13.952  0.0478  0.5715  0.4938
 4281TIP3    H134334   6.562   6.444  13.923 -0.5233  0.5175  0.6624
 4281TIP3    H234335   6.641   6.365  14.025  0.9537  0.7418 -0.2746
 4282TIP3   OH234336   4.283   6.462  15.345  0.0002 -0.1803 -0.1825
 4282TIP3    H134337   4.364   6.415  15.367  1.2209  1.3728 -1.1560
 4282TIP3    H234338   4.313   6.544  15.307 -1.9771  2.4241  3.2973
 4283TIP3   OH234339   1.776   3.511   3.384 -0.2028  1.1367 -0.7301
 4283TIP3    H134340   1.751   3.569   3.456 -1.7777 -0.6225  0.2224
 4283TIP3    H234341   1.771   3.567   3.306  0.1296  2.7279  0.3362
 4284TIP3   OH234342   1.869   0.370   3.509  0.2912  0.2391  0.3008
 4284TIP3    H134343   1.893   0.435   3.576 -0.2304 -1.6440  2.4623
 4284TIP3    H234344   1.888   0.286   3.551 -0.9664 -1.0615 -1.6138
 4285TIP3   OH234345   2.402   5.284  11.438 -0.4964 -0.1395 -0.5252
 4285TIP3    H134346   2.467   5.224  11.402  0.0367  0.1089 -0.0165
 4285TIP3    H234347   2.401   5.358  11.377 -0.0763 -0.0095 -0.3767
 4286TIP3   OH234348   1.889   4.592   0.243  0.1101 -0.2138  0.1090
 4286TIP3    H134349   1.937   4.553   0.170 -0.5073 -1.9051  0.5590
 4286TIP3    H234350   1.952   4.649   0.286  0.8132 -0.0718 -1.0544
 4287TIP3   OH234351   0.770   2.185  14.773 -0.1747 -0.4417 -0.0554
 4287TIP3    H134352   0.776   2.096  14.809 -1.9141 -0.4909  0.1705
 4287TIP3    H234353   0.698   2.226  14.821  1.0737  1.3816  0.3802
 4288TIP3   OH234354   0.830   2.513  15.368  0.3755 -0.5526 -0.3123
 4288TIP3    H134355   0.909   2.481  15.411  0.0603 -0.5698  0.2569
 4288TIP3    H234356   0.806   2.592  15.417  0.4894 -0.0897 -0.9791
 4289TIP3   OH234357   0.971   6.562   2.788  0.5821 -0.1961 -0.1922
 4289TIP3    H134358   0.937   6.609   2.864 -0.0271 -0.0429 -0.5523
 4289TIP3    H234359   1.064   6.549   2.807  0.3282 -0.6508  0.8347
 4290TIP3   OH234360   3.177   4.641   2.093 -0.0637 -0.0939  0.3930
 4290TIP3    H134361   3.259   4.683   2.118  0.2996 -0.7335  0.3077
 4290TIP3    H234362   3.172   4.564   2.149 -0.1750 -0.5224 -0.1969
 4291TIP3   OH234363   6.278   2.828   1.101 -0.4809 -0.0313 -0.3820
 4291TIP3    H134364   6.275   2.743   1.057 -0.5623  0.2830 -0.9953
 4291TIP3    H234365   6.368   2.835   1.132 -1.0049 -1.2735  1.5747
 4292TIP3   OH234366   5.571   0.977   3.478 -0.5684 -0.0116  0.1174
 4292TIP3    H134367   5.526   0.958   3.396 -0.6078 -0.0827  0.1551
 4292TIP3    H234368   5.662   0.992   3.453 -0.6506  0.3206  0.0177
 4293TIP3   OH234369   0.148   2.522   1.143 -0.0968  0.2887  0.0543
 4293TIP3    H134370   0.103   2.549   1.063 -1.4974  3.4665  1.7443
 4293TIP3    H234371   0.078   2.510   1.207  1.0975 -0.6821  1.2310
 4294TIP3   OH234372   5.074   1.172   1.049  0.2969  0.5943 -0.1616
 4294TIP3    H134373   5.042   1.118   0.977  2.5914 -0.1559 -0.6987
 4294TIP3    H234374   5.095   1.256   1.009  1.8227  0.0931 -0.4822
 4295TIP3   OH234375   2.716   4.586  14.040 -0.1482  0.0194  0.0794
 4295TIP3    H134376   2.807   4.610  14.022 -0.6639  2.4297  0.3550
 4295TIP3    H234377   2.684   4.549  13.957  0.2042  2.1572 -1.0800
 4296TIP3   OH234378   2.405   0.837  13.543  0.1188  0.7351 -0.1211
 4296TIP3    H134379   2.382   0.814  13.453  0.2644  0.8800 -0.1957
 4296TIP3    H234380   2.338   0.899  13.571  0.8534  1.7752 -0.6086
 4297TIP3   OH234381   4.558   0.233  12.044 -0.3159  0.4212 -0.6035
 4297TIP3    H134382   4.587   0.193  11.961  1.2518  0.2557 -0.0166
 4297TIP3    H234383   4.503   0.307  12.017  2.2322  1.9951 -1.9326
 4298TIP3   OH234384   2.509   3.397   4.647 -0.0845 -0.0098  0.2731
 4298TIP3    H134385   2.426   3.424   4.608 -0.2013 -0.5845  0.1099
 4298TIP3    H234386   2.574   3.456   4.608 -0.2347 -0.4286 -0.6364
 4299TIP3   OH234387   3.169   5.351   4.285 -0.6923  0.1532  0.5428
 4299TIP3    H134388   3.152   5.305   4.203 -0.0542  0.6131  0.1507
 4299TIP3    H234389   3.237   5.414   4.264 -0.4765  0.2321  1.4443
 4300TIP3   OH234390   1.998   3.650  12.997  0.1790 -0.1802 -0.2171
 4300TIP3    H134391   1.971   3.732  13.037 -0.6550 -1.2952  1.5981
 4300TIP3    H234392   1.924   3.625  12.941 -0.4256 -0.6953  0.8018
 4301TIP3   OH234393   1.293   3.356  11.743  0.0459 -0.1249 -0.2548
 4301TIP3    H134394   1.213   3.303  11.740  0.0522 -0.2647  1.2594
 4301TIP3    H234395   1.298   3.387  11.833  0.8520  1.2359 -0.7373
 4302TIP3   OH234396   3.261   3.370   5.483 -0.4219  0.2479  0.5231
 4302TIP3    H134397   3.254   3.397   5.392 -2.5210 -0.6422  0.3618
 4302TIP3    H234398   3.275   3.451   5.532 -1.2332  0.9713 -0.4151
 4303TIP3   OH234399   1.647   0.743   2.242  0.8471  0.2858  0.2094
 4303TIP3    H134400   1.735   0.781   2.237  0.4983  1.2296  0.8867
 4303TIP3    H234401   1.661   0.655   2.279  1.6460 -0.1905 -1.1702
 4304TIP3   OH234402   0.795   0.876  15.054 -0.9507 -0.5607 -0.2277
 4304TIP3    H134403   0.804   0.906  15.144 -1.8996 -2.1115  0.4098
 4304TIP3    H234404   0.727   0.932  15.017 -2.4908 -1.6100  0.8608
 4305TIP3   OH234405   5.806   0.514  11.741  0.6092 -0.4342 -0.1572
 4305TIP3    H134406   5.881   0.481  11.692  0.7970  0.2922 -0.3643
 4305TIP3    H234407   5.843   0.548  11.823  0.4594 -0.3987 -0.1028
 4306TIP3   OH234408   3.613   4.635  16.821 -0.3680  0.6630 -0.1149
 4306TIP3    H134409   3.526   4.675  16.815 -0.8885 -0.3885  0.2162
 4306TIP3    H234410   3.673   4.709  16.818 -1.3486  1.6011  1.7389
 4307TIP3   OH234411   3.205   0.183   0.547  0.2727  0.2961  0.1747
 4307TIP3    H134412   3.149   0.225   0.481 -0.6388 -0.8663  0.1875
 4307TIP3    H234413   3.164   0.206   0.630 -1.1448 -1.7752  0.1370
 4308TIP3   OH234414   0.198   2.512   6.011  0.5381  0.4410 -0.3955
 4308TIP3    H134415   0.251   2.539   6.086  1.3572 -1.4783 -0.2342
 4308TIP3    H234416   0.197   2.416   6.016 -3.1686  0.3716 -0.2639
 4309TIP3   OH234417   4.566   3.029   0.110 -0.1040  0.3376 -0.0940
 4309TIP3    H134418   4.491   2.986   0.151  0.2155 -1.8303 -1.6104
 4309TIP3    H234419   4.620   3.057   0.183  0.7654 -3.9186  1.2083
 4310TIP3   OH234420   1.530   3.336  12.682 -0.6044 -0.2890 -0.0247
 4310TIP3    H134421   1.535   3.307  12.773 -0.2132  1.3536  0.5157
 4310TIP3    H234422   1.443   3.309  12.653 -0.6781 -0.9659  0.7946
 4311TIP3   OH234423   0.901   2.177   1.484 -0.1539  0.8301 -0.3372
 4311TIP3    H134424   0.995   2.162   1.492 -0.3471  0.6455  2.3476
 4311TIP3    H234425   0.867   2.161   1.572 -2.9363 -0.6256 -1.5757
 4312TIP3   OH234426   0.575   1.220   4.210  0.2838 -0.0278 -0.0073
 4312TIP3    H134427   0.551   1.231   4.117  1.6315  0.5936 -0.3054
 4312TIP3    H234428   0.592   1.309   4.240  0.3770 -0.2835  0.7000
 4313TIP3   OH234429   3.742   6.456   4.452 -0.1966 -0.7724 -0.2339
 4313TIP3    H134430   3.821   6.401   4.447 -0.5254 -1.3414  0.6558
 4313TIP3    H234431   3.774   6.545   4.433  0.4515 -1.1700 -1.0509
 4314TIP3   OH234432   1.035   5.240  14.536 -0.1703 -0.4230 -0.4264
 4314TIP3    H134433   1.129   5.252  14.542 -0.2316 -0.6769  1.2914
 4314TIP3    H234434   0.998   5.315  14.583 -0.8031 -0.8260 -0.2653
 4315TIP3   OH234435   4.841   0.385  14.722 -0.1199 -0.4960  0.0562
 4315TIP3    H134436   4.832   0.470  14.680 -1.1921 -0.9040 -0.5747
 4315TIP3    H234437   4.794   0.394  14.805 -0.6082 -0.6115 -0.2106
 4316TIP3   OH234438   4.429   4.958  11.593 -0.2155 -0.4423 -0.0614
 4316TIP3    H134439   4.334   4.948  11.585 -0.5245  1.1686  1.1364
 4316TIP3    H234440   4.453   4.902  11.667 -0.5358  0.5559  0.8148
 4317TIP3   OH234441   2.598   6.455   2.731 -0.1573  0.0317 -0.0376
 4317TIP3    H134442   2.688   6.478   2.707 -0.1403 -1.1156 -1.1627
 4317TIP3    H234443   2.607   6.392   2.802 -0.0615 -0.2304 -0.2813
 4318TIP3   OH234444   0.328   3.020  12.786  0.0166 -0.4377  0.1926
 4318TIP3    H134445   0.308   2.941  12.837  0.4583  1.7211  4.0658
 4318TIP3    H234446   0.249   3.074  12.794  0.3190  0.2211 -1.0534
 4319TIP3   OH234447   1.081   4.922  14.865 -0.6089  0.1888 -0.2586
 4319TIP3    H134448   1.045   4.838  14.894 -0.4318  0.3926  0.5807
 4319TIP3    H234449   1.032   4.943  14.786  0.8860 -1.8377 -1.8528
 4320TIP3   OH234450   1.173   6.727  11.089  0.4537  0.0029 -0.5410
 4320TIP3    H134451   1.186   6.730  11.184  0.7462 -0.9457 -0.5485
 4320TIP3    H234452   1.116   6.802  11.071  1.6581  1.1483  0.1764
 4321TIP3   OH234453   5.478   3.813   4.976 -0.3755 -0.2104 -0.0833
 4321TIP3    H134454   5.469   3.893   5.028 -0.1341  0.8835 -1.6629
 4321TIP3    H234455   5.396   3.806   4.928  0.8036  1.0025 -2.4728
 4322TIP3   OH234456   1.407   1.594  14.641  0.3470  0.2934  0.0575
 4322TIP3    H134457   1.472   1.663  14.651  1.3412 -0.6183  0.1715
 4322TIP3    H234458   1.452   1.526  14.591 -0.0863 -0.8689  1.1714
 4323TIP3   OH234459   2.921   4.529  12.056 -0.5383  0.5946 -0.3208
 4323TIP3    H134460   2.957   4.508  11.970  1.8141  0.5662  0.5802
 4323TIP3    H234461   2.971   4.606  12.085 -2.6195  1.8060  0.2515
 4324TIP3   OH234462   4.791   4.571  11.336 -0.1698 -0.1967  0.0839
 4324TIP3    H134463   4.813   4.504  11.400  0.7820  0.3882  0.3852
 4324TIP3    H234464   4.695   4.566  11.328 -0.5987  1.1361  3.1451
 4325TIP3   OH234465   4.462   0.087  16.413 -0.6143  0.0197  0.2797
 4325TIP3    H134466   4.472   0.166  16.361  1.6265 -1.6024 -1.9730
 4325TIP3    H234467   4.502   0.109  16.498  0.0210  1.2783 -0.3181
 4326TIP3   OH234468   1.561   3.496  12.408 -0.1500 -0.4176  0.7944
 4326TIP3    H134469   1.585   3.432  12.476 -0.3568  0.1605  1.4214
 4326TIP3    H234470   1.473   3.469  12.380  0.4450 -1.4204 -0.1694
 4327TIP3   OH234471   2.839   2.737  11.790  0.2099 -0.8350 -0.0284
 4327TIP3    H134472   2.850   2.642  11.789 -0.4348 -0.9133 -1.2048
 4327TIP3    H234473   2.919   2.770  11.748 -0.3456 -0.9664 -1.2217
 4328TIP3   OH234474   0.480   6.441  14.411  0.1400  0.1218  0.0067
 4328TIP3    H134475   0.510   6.380  14.343 -0.4489  1.0571 -1.1249
 4328TIP3    H234476   0.387   6.424  14.418  0.1555  0.2035  0.4051
 4329TIP3   OH234477   4.620   4.836  15.278 -0.0459 -0.7730 -0.5027
 4329TIP3    H134478   4.687   4.901  15.299 -0.4838  0.4512 -2.5170
 4329TIP3    H234479   4.667   4.753  15.278  0.9175 -0.2594  0.5048
 4330TIP3   OH234480   4.230   6.410  13.834  0.2775 -0.3023  0.0702
 4330TIP3    H134481   4.324   6.405  13.850  0.3243 -0.6642 -0.3020
 4330TIP3    H234482   4.223   6.418  13.739 -0.1189 -1.9073 -0.0676
 4331TIP3   OH234483   4.329   4.279   5.412 -0.2758  0.0594 -0.6177
 4331TIP3    H134484   4.412   4.233   5.428  1.2513  2.0665 -2.2359
 4331TIP3    H234485   4.265   4.209   5.403  1.6620 -1.7143 -1.5596
 4332TIP3   OH234486   5.984   0.535   4.500  0.2188 -0.1735  0.1177
 4332TIP3    H134487   5.895   0.523   4.467  0.7901  0.1400 -1.6431
 4332TIP3    H234488   5.999   0.460   4.557 -0.2498 -1.7443 -1.7143
 4333TIP3   OH234489   1.199   0.028   3.610  0.2229 -0.2006 -0.1490
 4333TIP3    H134490   1.265   0.096   3.626  0.3790 -0.7611  1.9013
 4333TIP3    H234491   1.130   0.046   3.674 -1.5122  0.1671 -2.0268
 4334TIP3   OH234492   5.231   4.230  11.294  0.2630  0.0550  0.0702
 4334TIP3    H134493   5.161   4.295  11.304 -0.2161 -0.4827  0.3322
 4334TIP3    H234494   5.255   4.235  11.201 -1.8020 -1.3747 -0.6265
 4335TIP3   OH234495   0.344   6.698   3.152 -0.2143 -0.2148  0.2947
 4335TIP3    H134496   0.380   6.783   3.175  0.9345 -0.2948 -1.0884
 4335TIP3    H234497   0.364   6.642   3.228  0.6522  0.2903  0.4437
 4336TIP3   OH234498   5.336   1.316   5.779  0.4699  0.7485  0.3596
 4336TIP3    H134499   5.321   1.391   5.836 -0.1565 -0.2360  1.5445
 4336TIP3    H234500   5.390   1.257   5.831 -0.4597 -0.3454  0.1109
 4337TIP3   OH234501   5.147   6.470  15.318  0.2092  0.1755 -0.2473
 4337TIP3    H134502   5.159   6.545  15.259  0.7137  0.5913  0.3722
 4337TIP3    H234503   5.052   6.466  15.332  0.2330  1.2274  0.3632
 4338TIP3   OH234504   6.258   1.994  14.739  0.0916  0.7050 -0.2519
 4338TIP3    H134505   6.348   1.984  14.706  0.5805 -1.6894  1.5313
 4338TIP3    H234506   6.205   2.002  14.660  1.6397 -0.3139 -1.4726
 4339TIP3   OH234507   2.357   4.787   5.213  0.3314 -0.5583 -0.1845
 4339TIP3    H134508   2.450   4.806   5.199  0.4713  0.0348  1.3701
 4339TIP3    H234509   2.351   4.692   5.211  1.4753 -0.7532  2.3863
 4340TIP3   OH234510   1.684   3.766  15.704  0.2966  0.2108 -0.1091
 4340TIP3    H134511   1.769   3.752  15.744 -0.2720 -1.4297  0.6380
 4340TIP3    H234512   1.694   3.846  15.652  1.4144  1.7522  2.3367
 4341TIP3   OH234513   4.561   2.705   5.723 -0.1874  0.0740  0.8458
 4341TIP3    H134514   4.643   2.668   5.691 -0.8398  0.5252 -1.5170
 4341TIP3    H234515   4.588   2.774   5.784  1.1432 -0.6495  1.1107
 4342TIP3   OH234516   0.712   0.098   4.570  0.7416 -0.3428 -0.9575
 4342TIP3    H134517   0.702   0.194   4.570  0.5468 -0.2812 -4.0780
 4342TIP3    H234518   0.628   0.065   4.540  0.1360 -1.7270  1.8867
 4343TIP3   OH234519   6.591   4.330  11.933  0.2618 -0.2328  0.3913
 4343TIP3    H134520   6.655   4.379  11.881  0.4021  1.7179  2.2860
 4343TIP3    H234521   6.520   4.313  11.871  1.4877 -0.2406 -1.0954
 4344TIP3   OH234522   3.924   3.676   5.994 -0.2969  0.1739  0.3599
 4344TIP3    H134523   3.927   3.624   5.914  0.1614 -1.3080  1.2924
 4344TIP3    H234524   3.835   3.664   6.027 -0.6331  1.1672 -0.1429
 4345TIP3   OH234525   4.878   0.009  16.923 -0.6085  0.1692 -0.1344
 4345TIP3    H134526   4.916   0.080  16.872  0.5407 -0.1139  0.2934
 4345TIP3    H234527   4.800   0.046  16.962  0.8196  1.7501  1.4046
 4346TIP3   OH234528   4.581   1.896  15.116  0.2503  0.1220 -0.4477
 4346TIP3    H134529   4.534   1.836  15.058 -0.5754  2.1952 -2.0175
 4346TIP3    H234530   4.579   1.852  15.202 -1.0328 -1.6783 -1.3330
 4347TIP3   OH234531   3.758   6.610   0.987  0.5987 -0.1484  0.1008
 4347TIP3    H134532   3.787   6.697   0.960 -0.3225  0.0550 -0.2426
 4347TIP3    H234533   3.672   6.624   1.027  1.7045 -0.4773  2.8594
 4348TIP3   OH234534   2.916   1.562  11.495  0.1394 -0.1591 -0.1549
 4348TIP3    H134535   2.957   1.550  11.409  0.3483 -1.4557  0.0981
 4348TIP3    H234536   2.864   1.482  11.508 -0.2745  0.2389  0.7121
 4349TIP3   OH234537   5.482   5.089  12.306  0.2689 -0.2783  0.4570
 4349TIP3    H134538   5.413   5.091  12.372  0.7998 -1.4006  1.0631
 4349TIP3    H234539   5.554   5.140  12.345  0.0144  0.3709  0.0849
 4350TIP3   OH234540   5.862   2.800   1.633  0.5055 -0.4251  0.2913
 4350TIP3    H134541   5.815   2.729   1.590 -0.2055 -0.3545  0.9284
 4350TIP3    H234542   5.897   2.853   1.562 -0.2791 -0.5507 -0.1952
 4351TIP3   OH234543   1.472   0.925  16.595  0.1455  0.1760  0.4814
 4351TIP3    H134544   1.464   0.837  16.559  0.9405  0.3897 -0.2704
 4351TIP3    H234545   1.382   0.953  16.610 -0.0977 -1.9199  3.7406
 4352TIP3   OH234546   2.606   1.723   1.280 -0.1494  0.2430  0.3786
 4352TIP3    H134547   2.512   1.729   1.264  0.2500 -0.0399 -2.5815
 4352TIP3    H234548   2.614   1.668   1.358 -2.4097 -2.2304 -1.0023
 4353TIP3   OH234549   1.888   4.461   0.589 -0.0232 -0.6542 -0.3203
 4353TIP3    H134550   1.970   4.418   0.566 -0.0386  0.0171 -1.7832
 4353TIP3    H234551   1.905   4.554   0.575 -0.6609 -0.3814  0.6150
 4354TIP3   OH234552   6.028   1.088   1.391  0.2368  0.1307 -0.3507
 4354TIP3    H134553   6.052   1.006   1.348 -0.0205 -0.7561  1.1510
 4354TIP3    H234554   6.111   1.137   1.395  0.0469  0.8561 -2.9915
 4355TIP3   OH234555   0.589   3.816   3.245  0.5200  0.2932 -0.3068
 4355TIP3    H134556   0.554   3.899   3.279  3.4921  2.0907 -1.2145
 4355TIP3    H234557   0.513   3.770   3.211 -1.4961  1.8811  1.6881
 4356TIP3   OH234558   5.647   5.301  11.647 -0.5369  0.1851 -0.0210
 4356TIP3    H134559   5.669   5.219  11.604  2.2640 -0.1282  1.7191
 4356TIP3    H234560   5.726   5.355  11.637 -1.8361  2.1529 -0.0105
 4357TIP3   OH234561   0.916   5.673  15.491  0.3262 -0.2827  0.1664
 4357TIP3    H134562   0.982   5.732  15.527  2.5878 -2.2480 -0.5501
 4357TIP3    H234563   0.874   5.635  15.569 -1.1081  2.0522  0.6396
 4358TIP3   OH234564   6.762   6.684   3.432 -0.1532  0.0536 -0.1251
 4358TIP3    H134565   6.775   6.606   3.486 -0.4735 -0.5393 -0.8912
 4358TIP3    H234566   6.759   6.651   3.342  0.5109  1.0376 -0.5283
 4359TIP3   OH234567   0.359   3.701   0.043  0.1142  0.3648 -0.6307
 4359TIP3    H134568   0.399   3.775   0.090  0.4732  0.2418 -0.7341
 4359TIP3    H234569   0.267   3.704   0.067  0.0770  0.9981 -0.8244
 4360TIP3   OH234570   0.557   2.871  15.351  0.2315 -0.0447 -0.0476
 4360TIP3    H134571   0.553   2.780  15.320 -0.2127  0.0932 -0.4057
 4360TIP3    H234572   0.589   2.863  15.441 -0.2628 -0.6007  0.0899
 4361TIP3   OH234573   1.263   6.518  16.460  0.4540 -0.3259 -0.0498
 4361TIP3    H134574   1.253   6.445  16.521 -2.0817 -0.5772 -0.6693
 4361TIP3    H234575   1.356   6.539  16.464  1.2232 -3.3559  0.3686
 4362TIP3   OH234576   2.449   5.623   1.818  0.1236 -0.4051  0.4600
 4362TIP3    H134577   2.358   5.637   1.844  0.1827 -0.6196  0.7951
 4362TIP3    H234578   2.493   5.706   1.834 -0.9178  1.2759 -3.9185
 4363TIP3   OH234579   1.095   4.320  13.381  0.0485  0.6396 -0.0958
 4363TIP3    H134580   1.185   4.306  13.353 -0.0733  0.2254 -0.2868
 4363TIP3    H234581   1.079   4.251  13.446 -0.6962 -0.4286 -1.3651
 4364TIP3   OH234582   5.885   4.914   0.216  0.0020 -0.5991 -0.7615
 4364TIP3    H134583   5.899   4.986   0.278 -0.1910 -0.5714 -0.7496
 4364TIP3    H234584   5.864   4.958   0.134 -1.1281 -0.6517 -0.5102
 4365TIP3   OH234585   5.205   4.004  16.242  0.3364 -0.2743  0.3830
 4365TIP3    H134586   5.207   4.090  16.284 -0.4786  2.0676 -3.8441
 4365TIP3    H234587   5.113   3.978  16.245  0.0886  0.4007 -0.6993
 4366TIP3   OH234588   5.551   6.441  17.040 -0.2806 -0.0864  0.2437
 4366TIP3    H134589   5.619   6.499  17.075 -0.8341  0.5219  0.3388
 4366TIP3    H234590   5.596   6.358  17.023  0.2648 -0.0176  1.2622
 4367TIP3   OH234591   5.084   0.172   4.697  0.1090 -0.5166 -0.7249
 4367TIP3    H134592   5.036   0.090   4.684 -0.4428 -0.2803 -0.2186
 4367TIP3    H234593   5.156   0.148   4.756 -1.3448 -0.2057  1.2484
 4368TIP3   OH234594   2.349   6.825  11.761  0.1510  0.1622 -0.4189
 4368TIP3    H134595   2.396   6.809  11.842  0.2595 -0.4597 -0.6016
 4368TIP3    H234596   2.324   6.738  11.730 -0.9867  0.4675 -0.4000
 4369TIP3   OH234597   3.315   6.625   3.807 -0.1407  0.3514  0.0590
 4369TIP3    H134598   3.231   6.588   3.835  0.1438  0.6018  1.2903
 4369TIP3    H234599   3.292   6.712   3.774 -0.6637 -0.4595 -1.8282
 4370TIP3   OH234600   3.141   3.938  11.261 -0.3607 -0.1347 -0.2221
 4370TIP3    H134601   3.193   3.940  11.181  0.4963  3.4594  0.2626
 4370TIP3    H234602   3.198   3.898  11.326  0.6658  0.8965 -0.4469
 4371TIP3   OH234603   3.018   6.329   1.811 -0.4789  0.5912 -0.4008
 4371TIP3    H134604   2.944   6.346   1.869 -0.6832  0.7360 -0.7047
 4371TIP3    H234605   2.984   6.269   1.745  0.4972 -1.9024  1.2383
 4372TIP3   OH234606   3.866   3.498   5.776 -0.3356  0.1925 -0.4452
 4372TIP3    H134607   3.818   3.435   5.830 -2.1025  1.6523 -0.2269
 4372TIP3    H234608   3.933   3.446   5.732  0.3247 -1.3022  2.1036
 4373TIP3   OH234609   4.882   1.601   6.212  0.2592 -0.3246 -0.1677
 4373TIP3    H134610   4.791   1.573   6.221 -0.2449  1.5533  1.1655
 4373TIP3    H234611   4.917   1.599   6.301  1.4762 -0.8292 -0.6326
 4374TIP3   OH234612   3.477   5.979   6.042 -0.0455  0.2350 -0.4817
 4374TIP3    H134613   3.478   5.890   6.079  2.0117  0.4890  0.2180
 4374TIP3    H234614   3.445   6.034   6.114 -1.5998  0.0537 -1.0093
 4375TIP3   OH234615   2.238   3.611   1.326 -0.0184 -0.1460 -0.3527
 4375TIP3    H134616   2.184   3.662   1.265 -0.2039 -2.9098 -2.7470
 4375TIP3    H234617   2.175   3.555   1.372  0.4530 -0.6173 -0.2700
 4376TIP3   OH234618   5.182   0.875   2.325 -0.0737 -0.2479 -0.6127
 4376TIP3    H134619   5.247   0.868   2.256  0.2028  0.4224 -0.4232
 4376TIP3    H234620   5.098   0.867   2.280  0.1332 -1.9514 -0.7591
 4377TIP3   OH234621   2.474   5.060  15.510  0.5386 -0.0701 -0.3885
 4377TIP3    H134622   2.380   5.048  15.504  0.3996  1.3793 -1.6394
 4377TIP3    H234623   2.505   4.982  15.556 -1.2640 -0.5248  0.1262
 4378TIP3   OH234624   3.028   5.804  15.591 -0.3221  0.3252  0.2987
 4378TIP3    H134625   3.011   5.851  15.672 -0.0246  0.0933  0.4923
 4378TIP3    H234626   3.097   5.742  15.612  0.3824  0.8694 -0.3548
 4379TIP3   OH234627   2.958   1.311  11.727  0.4801 -0.2492  0.7040
 4379TIP3    H134628   2.998   1.245  11.672  0.4701 -0.0082  0.4038
 4379TIP3    H234629   2.869   1.319  11.695 -0.7540 -2.7354  3.0810
 4380TIP3   OH234630   4.152   2.588   0.629 -0.3594 -0.0388  0.0019
 4380TIP3    H134631   4.204   2.659   0.590  1.6048 -1.1558  0.4362
 4380TIP3    H234632   4.110   2.628   0.705 -1.0492  1.1816 -0.9981
 4381TIP3   OH234633   1.183   0.429  17.145  0.8045 -0.6044  0.7439
 4381TIP3    H134634   1.233   0.490  17.199  1.0966  1.2624 -1.4776
 4381TIP3    H234635   1.249   0.378  17.098  0.6103 -0.2251  0.0456
 4382TIP3   OH234636   5.161   1.779   3.137  0.0764  0.4566 -0.4805
 4382TIP3    H134637   5.164   1.863   3.184  0.3815  0.9539 -1.3810
 4382TIP3    H234638   5.224   1.724   3.183 -0.8707  0.3678  0.7682
 4383TIP3   OH234639   4.045   1.789  12.374 -0.1974 -0.1916  0.2844
 4383TIP3    H134640   4.069   1.873  12.412  0.0607 -0.7558  1.4051
 4383TIP3    H234641   3.957   1.801  12.341  0.2577  0.8496 -0.6090
 4384TIP3   OH234642   2.998   5.708  16.044 -0.3588  0.2278 -0.2958
 4384TIP3    H134643   3.025   5.646  16.111  0.6944  0.9912  0.0092
 4384TIP3    H234644   3.004   5.660  15.962  1.2855  0.1642 -0.1604
 4385TIP3   OH234645   6.600   6.704   2.345 -0.1161  0.2448  0.4812
 4385TIP3    H134646   6.675   6.646   2.338  0.1715  0.6658  0.0299
 4385TIP3    H234647   6.603   6.737   2.435  0.4957  0.6042  0.3287
 4386TIP3   OH234648   3.737   1.227  13.437 -0.1944  0.5213 -0.0631
 4386TIP3    H134649   3.826   1.229  13.471  0.2348  0.9494 -1.1689
 4386TIP3    H234650   3.687   1.181  13.504  0.9227 -0.0336  0.4175
 4387TIP3   OH234651   1.899   4.164  12.617  0.2121 -0.6195  0.0104
 4387TIP3    H134652   1.953   4.116  12.680  0.3393 -0.3702  0.0937
 4387TIP3    H234653   1.898   4.109  12.539 -0.3224 -1.1537  0.3824
 4388TIP3   OH234654   6.425   6.399  16.593 -0.5742 -0.3427 -0.1159
 4388TIP3    H134655   6.444   6.474  16.537 -1.4473 -0.2633 -0.3337
 4388TIP3    H234656   6.348   6.426  16.643  0.6905 -0.0855  1.7785
 4389TIP3   OH234657   4.168   5.313   2.331  0.1641 -0.1423  0.4620
 4389TIP3    H134658   4.154   5.219   2.327  1.8707 -0.4313  0.3729
 4389TIP3    H234659   4.121   5.342   2.409  0.3674 -1.2121  0.9921
 4390TIP3   OH234660   0.761   4.092   5.241 -0.2898  0.0897 -0.1089
 4390TIP3    H134661   0.839   4.144   5.222 -0.2464 -0.6344 -2.2114
 4390TIP3    H234662   0.694   4.127   5.183 -1.4264  0.3768  1.3224
 4391TIP3   OH234663   0.352   0.189   4.692  0.5585  0.6934 -0.3906
 4391TIP3    H134664   0.263   0.183   4.660  0.0899 -1.6942  1.0978
 4391TIP3    H234665   0.363   0.281   4.717 -1.7538  0.8857  0.1292
 4392TIP3   OH234666   3.429   5.672   3.278 -0.4924 -0.5412 -0.0250
 4392TIP3    H134667   3.391   5.726   3.348  0.9369 -2.0583  2.0284
 4392TIP3    H234668   3.370   5.598   3.270 -0.2618 -0.7404  0.1073
 4393TIP3   OH234669   0.460   3.776  11.739 -0.2404 -0.4916  0.0426
 4393TIP3    H134670   0.553   3.799  11.747 -0.1433 -1.0845  0.6689
 4393TIP3    H234671   0.443   3.776  11.645  0.8881 -2.3236 -0.1901
 4394TIP3   OH234672   6.521   3.367   2.308 -0.0955  0.0643 -0.1704
 4394TIP3    H134673   6.497   3.400   2.395  0.9742  1.2046 -0.2796
 4394TIP3    H234674   6.617   3.367   2.308 -0.0500  1.2969 -1.7748
 4395TIP3   OH234675   2.018   6.513   4.710 -0.8934  0.2081  0.2635
 4395TIP3    H134676   2.053   6.582   4.654 -1.0808  0.8382  0.9040
 4395TIP3    H234677   1.967   6.560   4.776 -0.5550 -0.5091  1.0508
 4396TIP3   OH234678   5.082   0.066  11.824  0.4396 -0.0001 -0.0380
 4396TIP3    H134679   4.991   0.062  11.855  0.2058  0.3285 -0.6612
 4396TIP3    H234680   5.133   0.086  11.902 -0.2293  1.7185  0.0202
 4397TIP3   OH234681   5.906   3.176  12.465 -0.0856  0.5681  0.5645
 4397TIP3    H134682   5.993   3.183  12.426  0.2748 -2.8121  0.4460
 4397TIP3    H234683   5.846   3.194  12.393  0.5791 -1.0420 -0.4516
 4398TIP3   OH234684   0.382   0.526   2.410  0.0953  0.6095  0.3979
 4398TIP3    H134685   0.362   0.613   2.377  2.3541  0.9849 -0.1337
 4398TIP3    H234686   0.430   0.541   2.492 -0.8367 -0.2048  1.1295
 4399TIP3   OH234687   3.978   5.168  10.362  0.1311 -0.1040 -0.8824
 4399TIP3    H134688   3.930   5.094  10.400  0.2232 -0.1154 -0.7898
 4399TIP3    H234689   4.069   5.152  10.384  0.1240  0.1540 -0.6719
 4400TIP3   OH234690   0.339   4.263  14.346  0.0652 -0.1984 -0.1248
 4400TIP3    H134691   0.303   4.320  14.414  1.6745 -0.5784  1.1317
 4400TIP3    H234692   0.279   4.189  14.343  1.2861 -1.5190  2.9400
 4401TIP3   OH234693   2.493   0.841  11.487  0.2368  0.5406  0.4038
 4401TIP3    H134694   2.526   0.814  11.573 -0.5768 -0.7727  0.3433
 4401TIP3    H234695   2.421   0.780  11.469 -0.3831  1.5448 -0.6918
 4402TIP3   OH234696   5.136   0.465   2.928 -0.2098 -0.7236  0.8725
 4402TIP3    H134697   5.170   0.551   2.956 -0.6029 -0.7838  1.5514
 4402TIP3    H234698   5.042   0.470   2.946 -0.5844 -0.5658 -0.9724
 4403TIP3   OH234699   4.463   3.184  12.716  0.1740 -0.2978 -0.2952
 4403TIP3    H134700   4.541   3.184  12.660  0.2640  1.1803 -0.2057
 4403TIP3    H234701   4.390   3.184  12.654  0.2650  0.0351 -0.4085
 4404TIP3   OH234702   5.081   4.975  15.606  0.8152 -0.1887  0.2127
 4404TIP3    H134703   5.107   5.066  15.590 -0.9479  0.5599  1.3162
 4404TIP3    H234704   5.153   4.923  15.570  0.8416  1.5538 -2.5358
 4405TIP3   OH234705   5.012   2.151   3.133 -0.6954  0.5841  0.1083
 4405TIP3    H134706   4.951   2.197   3.191 -0.6935  0.8242 -0.0807
 4405TIP3    H234707   4.956   2.105   3.071 -0.6930  0.4680  0.1909
 4406TIP3   OH234708   4.650   3.471   2.707 -0.4739 -0.4424  0.5608
 4406TIP3    H134709   4.620   3.486   2.617  0.0953 -0.8768  0.2842
 4406TIP3    H234710   4.614   3.386   2.731 -0.7669 -0.2479  0.8064
 4407TIP3   OH234711   4.692   4.117   1.606 -0.0997 -0.4448  0.0401
 4407TIP3    H134712   4.718   4.093   1.517  0.4441  2.1866 -0.5997
 4407TIP3    H234713   4.650   4.203   1.596  0.1245 -0.0128  2.3459
 4408TIP3   OH234714   3.363   1.520   4.117 -0.1880  0.5049  0.4260
 4408TIP3    H134715   3.448   1.531   4.160 -0.0299  1.0733 -0.0276
 4408TIP3    H234716   3.346   1.604   4.075 -0.8953  0.3369  0.3631
 4409TIP3   OH234717   4.827   1.593   5.608 -0.2143  0.2709  0.3260
 4409TIP3    H134718   4.769   1.669   5.617 -1.4162 -0.2461 -2.2439
 4409TIP3    H234719   4.798   1.550   5.528  1.6224 -1.9103  0.7333
 4410TIP3   OH234720   6.064   1.482  14.939 -0.7566  0.3678  0.3608
 4410TIP3    H134721   6.089   1.471  15.031 -0.9345  0.3311  0.4032
 4410TIP3    H234722   5.969   1.469  14.937 -0.7421  0.2757  0.1580
 4411TIP3   OH234723   1.970   3.309   6.217 -0.4732 -0.1523 -0.8755
 4411TIP3    H134724   2.034   3.356   6.269  0.3694  0.2681 -2.2429
 4411TIP3    H234725   1.952   3.229   6.267  4.5834 -2.6476 -2.4222
 4412TIP3   OH234726   5.771   1.165   1.996 -0.3371  0.2948 -0.3910
 4412TIP3    H134727   5.858   1.204   1.982 -0.5924  0.8555 -0.4370
 4412TIP3    H234728   5.722   1.190   1.918 -0.6413  0.2652 -0.2078
 4413TIP3   OH234729   3.421   6.221  11.882 -0.1449  0.4070 -0.4925
 4413TIP3    H134730   3.385   6.297  11.927  0.7536 -0.0407  1.0373
 4413TIP3    H234731   3.344   6.178  11.844 -0.5982  2.5128 -2.2053
 4414TIP3   OH234732   1.335   3.291   5.122  0.2879 -0.1389  0.0110
 4414TIP3    H134733   1.275   3.246   5.181  0.7979  1.7917  2.1356
 4414TIP3    H234734   1.389   3.221   5.086 -1.0762 -1.5564  0.5929
 4415TIP3   OH234735   3.563   6.033  12.878  0.6278 -0.3459  0.1650
 4415TIP3    H134736   3.519   6.043  12.794  0.9853 -2.1642 -0.2760
 4415TIP3    H234737   3.655   6.053  12.861  0.5895 -0.0799  0.2697
 4416TIP3   OH234738   6.398   0.716  16.686 -0.1369  0.3593  0.2139
 4416TIP3    H134739   6.435   0.686  16.603 -0.3775 -0.6793  0.4736
 4416TIP3    H234740   6.373   0.807  16.669  1.0140  0.5671 -0.4523
 4417TIP3   OH234741   3.682   4.660   0.049 -0.2002  0.1964 -0.4805
 4417TIP3    H134742   3.668   4.604  -0.027  0.6348 -0.3037 -0.2788
 4417TIP3    H234743   3.627   4.622   0.117 -0.5258  0.3150 -0.6766
 4418TIP3   OH234744   0.428   0.501  11.243 -0.0692 -0.3304 -0.0755
 4418TIP3    H134745   0.372   0.576  11.227  1.2544  0.9935  1.2118
 4418TIP3    H234746   0.431   0.455  11.159 -0.1802  1.5623 -1.1661
 4419TIP3   OH234747   4.899   4.002  11.215 -0.1050 -0.0427  0.0836
 4419TIP3    H134748   4.951   3.947  11.273 -0.2323 -0.9676 -0.6630
 4419TIP3    H234749   4.828   4.035  11.271  0.5729  0.2321  0.7965
 4420TIP3   OH234750   0.214   6.026   5.978 -0.2482  0.0988  0.3046
 4420TIP3    H134751   0.260   6.092   5.925 -0.2892  0.5835  0.8698
 4420TIP3    H234752   0.122   6.039   5.957 -0.1678 -0.6594 -0.5831
 4421TIP3   OH234753   5.247   1.101   2.477 -0.3599  0.3068 -0.6852
 4421TIP3    H134754   5.342   1.113   2.472 -0.0822 -1.1144  0.4913
 4421TIP3    H234755   5.227   1.036   2.409 -0.4411  0.3500 -0.7027
 4422TIP3   OH234756   3.280   2.239  12.504 -0.6151  0.4817  0.3358
 4422TIP3    H134757   3.279   2.185  12.583  1.3757  1.4482  1.1031
 4422TIP3    H234758   3.361   2.214  12.459 -1.5009  0.2690 -1.1950
 4423TIP3   OH234759   5.558   0.289  15.004  0.3790 -0.5625 -0.4807
 4423TIP3    H134760   5.615   0.332  15.068  0.1914 -0.7931 -0.1525
 4423TIP3    H234761   5.561   0.345  14.927 -0.1885  0.2627  0.0770
 4424TIP3   OH234762   6.702   2.382   0.607 -0.5027  0.1838 -0.1428
 4424TIP3    H134763   6.663   2.469   0.595 -0.2695  0.3705  0.4169
 4424TIP3    H234764   6.744   2.387   0.693  1.4843  0.2609 -1.0826
 4425TIP3   OH234765   4.439   5.720   2.718  0.1258  0.3095 -0.5003
 4425TIP3    H134766   4.485   5.680   2.643  0.4108 -0.0355 -0.1440
 4425TIP3    H234767   4.347   5.720   2.692  0.4175  2.2107 -1.7892
 4426TIP3   OH234768   6.310   2.593   2.891 -0.4233 -0.7307  0.2166
 4426TIP3    H134769   6.352   2.507   2.895 -1.6067 -1.2762  1.4657
 4426TIP3    H234770   6.221   2.577   2.921 -0.3239  1.1585  1.6117
 4427TIP3   OH234771   5.848   1.634  11.176  0.0093 -0.3787  0.2766
 4427TIP3    H134772   5.908   1.708  11.188  1.0864 -0.9930 -1.0777
 4427TIP3    H234773   5.895   1.559  11.211 -0.8803 -0.5385  1.1841
 4428TIP3   OH234774   2.783   3.686   0.658 -0.6631  0.1634 -0.3534
 4428TIP3    H134775   2.716   3.696   0.725 -1.7187 -0.2920 -1.2961
 4428TIP3    H234776   2.864   3.671   0.707 -1.1812  1.0039  0.8178
 4429TIP3   OH234777   0.313   3.478  11.349 -0.0135  0.4885 -0.4453
 4429TIP3    H134778   0.300   3.564  11.389 -1.2276 -0.3770  1.1941
 4429TIP3    H234779   0.224   3.448  11.329  0.4931  0.2415 -2.4459
 4430TIP3   OH234780   1.810   2.588  17.156 -0.3226  0.5450 -0.0665
 4430TIP3    H134781   1.837   2.511  17.106  1.7230  1.2361 -0.0894
 4430TIP3    H234782   1.797   2.555  17.245 -0.9566 -0.0894 -0.3781
 4431TIP3   OH234783   6.245   2.854   0.004 -0.1653 -0.4820 -0.4121
 4431TIP3    H134784   6.237   2.792   0.077 -0.5412 -1.1682 -1.0271
 4431TIP3    H234785   6.221   2.803  -0.073 -0.7577  0.5119 -0.8974
 4432TIP3   OH234786   6.241   3.352   5.916 -0.7128  0.3436 -0.0494
 4432TIP3    H134787   6.215   3.363   6.007 -3.1909  0.8171 -0.7278
 4432TIP3    H234788   6.171   3.394   5.866  0.5987  0.1511 -2.1776
 4433TIP3   OH234789   0.591   2.076   2.660 -0.1993 -0.6754 -0.3878
 4433TIP3    H134790   0.502   2.077   2.695  0.0469 -0.6246  0.2652
 4433TIP3    H234791   0.633   2.002   2.704  0.3406 -0.1481  0.0112
 4434TIP3   OH234792   5.024   4.632   2.450  0.3991  0.2884  0.3979
 4434TIP3    H134793   4.951   4.594   2.498 -0.6678  1.0693 -0.5436
 4434TIP3    H234794   5.055   4.703   2.505 -0.6557  1.0213  0.0757
 4435TIP3   OH234795   1.894   6.820  10.522  0.5440 -0.2291  0.2761
 4435TIP3    H134796   1.803   6.840  10.503  1.1356  1.2742 -1.3191
 4435TIP3    H234797   1.913   6.869  10.602  0.1544  0.1358  0.1501
 4436TIP3   OH234798   2.601   3.079   2.912 -0.1040  0.1503  0.2994
 4436TIP3    H134799   2.670   3.100   2.974  1.6593 -0.1675 -1.4645
 4436TIP3    H234800   2.642   3.021   2.848 -2.6937 -2.1828  0.5549
 4437TIP3   OH234801   2.166   2.287   3.566  0.6255  0.2118  0.3585
 4437TIP3    H134802   2.136   2.233   3.639  3.6165 -1.3677  0.5858
 4437TIP3    H234803   2.192   2.370   3.606  0.9282 -0.1273  0.8670
 4438TIP3   OH234804   4.073   3.656  16.232  0.1953 -0.1276  0.2187
 4438TIP3    H134805   4.125   3.651  16.313  0.2453  0.5392  0.2398
 4438TIP3    H234806   4.137   3.672  16.163  0.2089 -1.2706 -0.0393
 4439TIP3   OH234807   3.596   4.868  16.006  0.1432 -0.1297  0.5985
 4439TIP3    H134808   3.571   4.832  15.921 -0.9393 -0.3301  0.9821
 4439TIP3    H234809   3.584   4.962  15.997  0.5392 -0.0977  0.3736
 4440TIP3   OH234810   4.214   2.661   3.811  0.0678 -0.1151 -0.3236
 4440TIP3    H134811   4.200   2.584   3.755  0.8424 -1.2651  0.9769
 4440TIP3    H234812   4.266   2.627   3.885  0.0157  1.5711  0.5323
 4441TIP3   OH234813   4.638   1.722  11.604  0.4733 -0.0732 -0.1412
 4441TIP3    H134814   4.698   1.663  11.560 -0.7071  0.1040 -2.0784
 4441TIP3    H234815   4.667   1.721  11.696  2.3800 -1.2299 -0.6955
 4442TIP3   OH234816   3.201   3.860  12.452  0.5417 -0.4226 -0.3305
 4442TIP3    H134817   3.233   3.831  12.538 -0.3510  1.1630  0.5913
 4442TIP3    H234818   3.197   3.780  12.400  1.2952 -1.4027  1.0378
 4443TIP3   OH234819   6.577   5.314  14.501  0.2952  0.0631 -0.4102
 4443TIP3    H134820   6.489   5.310  14.538 -0.0873 -0.7922 -1.3487
 4443TIP3    H234821   6.621   5.237  14.536  0.5809  0.3466 -0.1501
 4444TIP3   OH234822   0.706   3.867  10.652 -0.2254  0.0348  0.2124
 4444TIP3    H134823   0.802   3.863  10.651 -0.2332 -0.3087 -1.1512
 4444TIP3    H234824   0.686   3.951  10.694  0.5983 -0.7541  2.3484
 4445TIP3   OH234825   2.013   0.668   4.693 -0.1053 -0.2767  0.4199
 4445TIP3    H134826   1.933   0.710   4.661 -0.2489 -0.0722  1.0368
 4445TIP3    H234827   1.991   0.638   4.781 -0.0094 -1.6603 -0.0066
 4446TIP3   OH234828   0.564   3.002  13.414 -0.3502 -0.0782  0.2106
 4446TIP3    H134829   0.645   2.969  13.454 -0.8271 -0.3284  0.9867
 4446TIP3    H234830   0.559   2.957  13.330  0.0864 -0.4038  0.3532
 4447TIP3   OH234831   4.494   6.639  11.441 -0.8375  0.1550 -0.5867
 4447TIP3    H134832   4.517   6.611  11.530  1.6124  0.3950 -1.0558
 4447TIP3    H234833   4.429   6.576  11.412  0.4399 -1.7112  0.3861
 4448TIP3   OH234834   2.945   3.699  14.911 -0.1312  0.2752 -0.4482
 4448TIP3    H134835   3.033   3.725  14.938 -0.1074  1.0061 -1.2048
 4448TIP3    H234836   2.887   3.737  14.976  0.1016 -0.1910  0.0405
 4449TIP3   OH234837   2.458   3.626  15.364  0.3801 -0.3345  0.4759
 4449TIP3    H134838   2.531   3.578  15.403  1.4394 -0.2207 -1.2632
 4449TIP3    H234839   2.451   3.592  15.275 -0.2840  1.1661 -0.0829
 4450TIP3   OH234840   3.063   4.773   5.809  0.1059  0.5991 -0.7731
 4450TIP3    H134841   3.052   4.681   5.830  1.9566  0.2128 -1.2950
 4450TIP3    H234842   3.107   4.810   5.885 -0.4440  1.0213 -0.6524
 4451TIP3   OH234843   1.510   6.568  13.754  0.3184 -0.1905  0.5848
 4451TIP3    H134844   1.560   6.546  13.833  0.9094  0.5477  0.4280
 4451TIP3    H234845   1.502   6.663  13.757  1.4356 -0.0128 -0.8742
 4452TIP3   OH234846   0.298   0.221  15.655 -0.0062  0.5349  0.0720
 4452TIP3    H134847   0.220   0.168  15.670 -0.4818  1.7101  2.0648
 4452TIP3    H234848   0.359   0.162  15.611 -1.2447 -1.0424  0.3903
 4453TIP3   OH234849   0.371   3.081  15.115  0.1641  0.1560 -0.1773
 4453TIP3    H134850   0.373   3.148  15.047 -0.2852  0.7203  0.3539
 4453TIP3    H234851   0.429   3.114  15.183  0.0056 -0.0355  0.0542
 4454TIP3   OH234852   3.344   1.593   5.432  0.2107 -0.1461  0.4791
 4454TIP3    H134853   3.315   1.675   5.392 -0.4769  0.2154  1.6624
 4454TIP3    H234854   3.268   1.535   5.427 -0.4530  0.4424  2.6278
 4455TIP3   OH234855   4.481   2.642   2.346 -0.0647  0.0497 -0.1009
 4455TIP3    H134856   4.445   2.562   2.309  3.4438 -1.8937  0.2146
 4455TIP3    H234857   4.546   2.672   2.282  1.5601  0.2571  1.5455
 4456TIP3   OH234858   5.411   0.255   4.142  0.3750 -0.5825  0.2325
 4456TIP3    H134859   5.421   0.177   4.196 -0.6039 -0.8719  0.0148
 4456TIP3    H234860   5.473   0.242   4.069 -0.1958 -1.4366 -0.1125
 4457TIP3   OH234861   4.941   3.919  10.460  0.1933  0.5161  0.3314
 4457TIP3    H134862   5.024   3.873  10.446 -0.0754  0.3546 -0.8717
 4457TIP3    H234863   4.878   3.849  10.477 -0.1068  0.4581 -0.9395
 4458TIP3   OH234864   4.958   0.341   5.072 -0.1540  0.0516 -0.4265
 4458TIP3    H134865   4.961   0.253   5.109  2.0809 -0.0719 -0.7909
 4458TIP3    H234866   4.875   0.377   5.104  0.4021 -0.9951  2.4991
 4459TIP3   OH234867   6.243   1.598  15.573  0.6015 -0.2173 -0.1031
 4459TIP3    H134868   6.239   1.677  15.628  1.9302  0.1907 -0.5459
 4459TIP3    H234869   6.167   1.606  15.515  0.0199  0.0934  0.6745
 4460TIP3   OH234870   3.277   5.371  15.155 -0.1275  1.0524 -0.3368
 4460TIP3    H134871   3.305   5.453  15.196 -1.3042  1.4219 -0.2317
 4460TIP3    H234872   3.348   5.309  15.173  0.5729  1.9252 -0.0296
 4461TIP3   OH234873   3.354   6.788   0.461  0.1734  0.5423  0.1206
 4461TIP3    H134874   3.434   6.757   0.503 -0.6515 -1.5582  0.2572
 4461TIP3    H234875   3.313   6.846   0.525 -0.2054 -1.2625  1.5879
 4462TIP3   OH234876   1.193   6.258   5.414  0.2510  0.1201  0.3079
 4462TIP3    H134877   1.259   6.281   5.479  0.4688  0.6491 -0.0964
 4462TIP3    H234878   1.224   6.174   5.379  1.2275  0.7989 -0.5340
 4463TIP3   OH234879   2.670   5.968  13.840 -0.2784 -0.4389 -0.1169
 4463TIP3    H134880   2.599   5.905  13.828 -0.3789 -0.0290 -2.0979
 4463TIP3    H234881   2.641   6.023  13.914 -1.1436 -1.4181  0.2960
 4464TIP3   OH234882   3.021   4.971  13.939  0.1643 -0.8718  0.2936
 4464TIP3    H134883   3.116   4.968  13.947  0.0876 -1.3218  1.1856
 4464TIP3    H234884   2.989   4.990  14.027 -0.6007 -1.6334  0.2035
 4465TIP3   OH234885   5.609   6.820   6.123  0.6456 -0.4577 -0.0527
 4465TIP3    H134886   5.619   6.824   6.218  0.4629  1.9619 -0.0713
 4465TIP3    H234887   5.699   6.826   6.090  0.7502 -1.8023 -0.0570
 4466TIP3   OH234888   1.619   3.290   3.015 -0.5131 -0.0354  0.2752
 4466TIP3    H134889   1.534   3.333   3.002 -0.4950  0.4586  1.6528
 4466TIP3    H234890   1.643   3.311   3.105  1.1115 -0.1302 -0.1148
 4467TIP3   OH234891   1.671   4.856  10.447  0.1653  0.1013 -0.0612
 4467TIP3    H134892   1.579   4.876  10.461  0.0909  0.9866 -1.6348
 4467TIP3    H234893   1.716   4.941  10.455  1.0464 -0.4709  1.8490
 4468TIP3   OH234894   3.506   2.565   2.299 -0.2556 -0.4593  0.4792
 4468TIP3    H134895   3.424   2.557   2.251  0.1029 -0.7259 -0.0990
 4468TIP3    H234896   3.573   2.533   2.239  0.3973  0.6413  0.5729
 4469TIP3   OH234897   0.204   1.057  15.126 -0.1025  0.3741 -0.2235
 4469TIP3    H134898   0.201   1.148  15.155  1.4040  0.3491  0.0851
 4469TIP3    H234899   0.231   1.063  15.034  0.8632  0.2195  0.0404
 4470TIP3   OH234900   0.293   6.620  14.208 -0.6059 -0.3664  0.0357
 4470TIP3    H134901   0.286   6.531  14.175  1.0160  0.3365 -2.5305
 4470TIP3    H234902   0.277   6.675  14.131 -0.5799  1.5502  1.3282
 4471TIP3   OH234903   6.557   3.192  16.113  0.5249  0.2773  0.3169
 4471TIP3    H134904   6.621   3.145  16.060  1.7737  0.1308  1.8837
 4471TIP3    H234905   6.535   3.131  16.183  0.0131  0.9965  0.7917
 4472TIP3   OH234906   1.380   1.480   5.613 -0.1188  0.3568  0.4559
 4472TIP3    H134907   1.454   1.535   5.587 -1.0782  0.1333 -3.3863
 4472TIP3    H234908   1.303   1.525   5.577 -1.3461 -1.5771  0.5135
 4473TIP3   OH234909   6.204   6.449   5.170 -0.8693 -0.3272  0.1955
 4473TIP3    H134910   6.215   6.442   5.265 -0.7486  1.2570  0.3344
 4473TIP3    H234911   6.115   6.482   5.158 -0.8793 -0.5035 -0.2331
 4474TIP3   OH234912   4.868   0.432  16.318 -0.0079 -0.4989  0.3480
 4474TIP3    H134913   4.868   0.352  16.267  1.0168  0.4661 -1.2479
 4474TIP3    H234914   4.794   0.482  16.284  0.5638  0.0720 -0.0752
 4475TIP3   OH234915   3.846   0.918   6.295  0.1894  0.0736  0.1213
 4475TIP3    H134916   3.789   0.898   6.220  0.7508  1.2477 -0.6446
 4475TIP3    H234917   3.864   0.833   6.334 -0.3729 -0.5389 -0.8932
 4476TIP3   OH234918   2.937   0.115  14.657 -0.2642 -0.2340 -0.3717
 4476TIP3    H134919   2.905   0.190  14.707 -0.6673 -1.1177  0.7479
 4476TIP3    H234920   2.939   0.043  14.720  0.6935 -1.0292 -1.2692
 4477TIP3   OH234921   3.602   3.456   2.521 -0.0648  0.2918  0.3787
 4477TIP3    H134922   3.516   3.431   2.486  1.3994 -1.6816 -2.3096
 4477TIP3    H234923   3.645   3.501   2.448  1.6406 -0.0117  1.1435
 4478TIP3   OH234924   1.386   2.019  14.986  0.5034 -0.2521 -0.3331
 4478TIP3    H134925   1.292   2.007  14.994  0.7268 -3.8595 -1.2557
 4478TIP3    H234926   1.417   2.020  15.077 -0.2807 -0.7670 -0.0491
 4479TIP3   OH234927   0.412   0.240  14.748 -0.4990  0.1263 -0.8347
 4479TIP3    H134928   0.497   0.260  14.709 -1.2531  1.8211 -1.6931
 4479TIP3    H234929   0.434   0.186  14.824  1.1348 -1.7237 -2.4951
 4480TIP3   OH234930   2.790   1.432  16.700  0.0552 -0.1378  0.7126
 4480TIP3    H134931   2.695   1.417  16.698  0.0649 -0.1634  0.1082
 4480TIP3    H234932   2.801   1.514  16.748 -0.4553  1.1081 -1.1884
 4481TIP3   OH234933   1.926   1.711   2.770  0.1275  0.1825 -0.7286
 4481TIP3    H134934   1.912   1.754   2.854 -3.5324  0.8595 -1.5191
 4481TIP3    H234935   1.977   1.633   2.791 -1.0904  0.0567  2.2382
 4482TIP3   OH234936   0.537   5.432   0.759 -0.0331 -0.2031  0.0125
 4482TIP3    H134937   0.489   5.405   0.680 -1.1970 -0.2056  0.6975
 4482TIP3    H234938   0.585   5.510   0.732  1.4503 -1.5253 -1.3270
 4483TIP3   OH234939   4.872   5.568  14.976 -0.3130 -0.4667 -0.2316
 4483TIP3    H134940   4.815   5.494  14.999  1.0818 -0.8959  2.1841
 4483TIP3    H234941   4.878   5.565  14.880 -0.5757 -3.2860 -0.2392
 4484TIP3   OH234942   2.186   5.610   5.938 -0.3724 -0.4076 -0.0191
 4484TIP3    H134943   2.204   5.662   6.017  1.1625  0.1422 -0.6926
 4484TIP3    H234944   2.251   5.540   5.941  0.8718  0.5956 -1.6181
 4485TIP3   OH234945   4.812   5.616  12.957 -0.2517 -0.1359  0.6079
 4485TIP3    H134946   4.799   5.629  12.863 -0.0248  1.2668  0.7480
 4485TIP3    H234947   4.779   5.696  12.997 -1.3432 -1.1547  1.8356
 4486TIP3   OH234948   1.489   2.645   5.311  0.2230  0.3701 -0.3352
 4486TIP3    H134949   1.446   2.625   5.394  1.1461 -0.3638 -0.0118
 4486TIP3    H234950   1.546   2.719   5.330  0.8543 -0.1467 -0.1496
 4487TIP3   OH234951   4.136   5.560   5.409 -0.0981  0.0718 -0.1939
 4487TIP3    H134952   4.231   5.555   5.414 -0.1685 -0.4286  1.4018
 4487TIP3    H234953   4.117   5.585   5.319  1.5475  0.4164 -0.4673
 4488TIP3   OH234954   2.564   2.208  13.407 -0.2455  0.3580 -0.2693
 4488TIP3    H134955   2.575   2.302  13.420  0.8965  0.1932  0.0338
 4488TIP3    H234956   2.524   2.201  13.320  0.9818  1.0740 -0.9202
 4489TIP3   OH234957   4.516   2.692   3.088  0.4682  0.2726 -0.2504
 4489TIP3    H134958   4.536   2.707   3.180 -0.4742 -3.6097  0.7875
 4489TIP3    H234959   4.455   2.617   3.089  0.6976 -0.1421 -4.0313
 4490TIP3   OH234960   3.914   0.252  16.932 -0.4951 -0.4171 -0.0271
 4490TIP3    H134961   3.862   0.208  16.864 -0.3181  0.4897 -0.7683
 4490TIP3    H234962   3.872   0.337  16.943 -1.4338 -1.0707  2.0922
 4491TIP3   OH234963   3.728   3.342  13.738 -0.3939  0.4933 -0.1415
 4491TIP3    H134964   3.677   3.262  13.750 -1.1271  1.0390  0.4777
 4491TIP3    H234965   3.747   3.344  13.644 -0.1816 -0.5049 -0.1383
 4492TIP3   OH234966   2.330   1.826  11.039 -0.0698  0.0444 -0.3999
 4492TIP3    H134967   2.254   1.882  11.021 -1.1680 -1.2927 -0.1069
 4492TIP3    H234968   2.319   1.752  10.979  0.6742 -0.4587  0.0752
 4493TIP3   OH234969   2.818   4.549   1.902 -0.7908 -0.4399  0.1719
 4493TIP3    H134970   2.906   4.563   1.868 -0.6327  0.3049  0.8702
 4493TIP3    H234971   2.760   4.580   1.832 -0.5026 -0.5589 -0.1236
 4494TIP3   OH234972   2.960   6.113  11.110 -0.4454 -0.1177 -0.8795
 4494TIP3    H134973   3.035   6.089  11.056  1.2388 -0.4240  1.4610
 4494TIP3    H234974   2.987   6.192  11.155 -0.9731 -0.9662  1.0169
 4495TIP3   OH234975   2.396   4.327   3.900  0.0231 -0.3687 -0.3241
 4495TIP3    H134976   2.464   4.290   3.843 -0.8444 -1.4708 -0.6751
 4495TIP3    H234977   2.320   4.338   3.843  0.7232  3.8124 -0.7392
 4496TIP3   OH234978   3.763   3.662  11.007  0.3185 -0.1299  0.2928
 4496TIP3    H134979   3.844   3.659  11.058  0.6135 -1.1711 -0.2033
 4496TIP3    H234980   3.793   3.670  10.916 -0.1280 -0.5306  0.1073
 4497TIP3   OH234981   1.902   2.530   2.898  0.4901  0.1978  0.2910
 4497TIP3    H134982   1.862   2.542   2.985  0.6775 -0.0830  0.4170
 4497TIP3    H234983   1.971   2.595   2.895 -1.3910  2.2834 -0.8169
 4498TIP3   OH234984   0.515   5.559  14.121  0.6068 -0.4545 -0.1729
 4498TIP3    H134985   0.557   5.517  14.045  2.0798  0.2921  0.2079
 4498TIP3    H234986   0.568   5.636  14.138  0.5804 -0.8523  1.9219
 4499TIP3   OH234987   1.505   2.353  15.321 -0.1352  0.6638 -0.2902
 4499TIP3    H134988   1.585   2.378  15.367  0.4923 -1.6361 -0.0432
 4499TIP3    H234989   1.443   2.422  15.344  1.2086  1.4870  1.0741
 4500TIP3   OH234990   4.772   3.356  15.449  0.0123 -0.0600 -0.0058
 4500TIP3    H134991   4.773   3.425  15.383  1.7769  1.0108  1.0608
 4500TIP3    H234992   4.746   3.277  15.401  1.6918  0.5567 -2.0929
 4501TIP3   OH234993   6.462   0.870   4.975 -0.3014 -0.2733  0.0532
 4501TIP3    H134994   6.496   0.823   5.051  2.5139 -1.0486 -1.5402
 4501TIP3    H234995   6.537   0.920   4.943 -1.9540  1.5567 -1.0977
 4502TIP3   OH234996   5.914   6.439  16.525 -1.0168 -0.4766 -0.4188
 4502TIP3    H134997   5.926   6.534  16.537 -1.4757  0.0411 -3.2037
 4502TIP3    H234998   5.820   6.425  16.540 -0.6968 -0.8061  1.4593
 4503TIP3   OH234999   5.301   4.021  13.866  0.5630 -0.2861  0.6177
 4503TIP3    H135000   5.278   4.103  13.909  2.3274  1.6221 -1.7545
 4503TIP3    H235001   5.378   3.990  13.912  1.2791  0.6953  0.1255
 4504TIP3   OH235002   1.640   5.457  15.228 -0.2714 -0.4678  0.4128
 4504TIP3    H135003   1.590   5.538  15.227 -0.9564 -0.8873 -0.1986
 4504TIP3    H235004   1.708   5.472  15.294  1.6298  1.7807 -1.8923
 4505TIP3   OH235005   3.664   0.601   3.619 -0.5043  0.2476 -0.7778
 4505TIP3    H135006   3.694   0.645   3.698  1.2163 -0.2078 -1.1256
 4505TIP3    H235007   3.720   0.637   3.549 -1.4688  0.0867 -1.6529
 4506TIP3   OH235008   1.849   5.893  14.595 -0.5374  0.3432  0.0350
 4506TIP3    H135009   1.891   5.895  14.681 -1.0199  0.6648  0.2636
 4506TIP3    H235010   1.763   5.855  14.611 -0.3219 -0.3847 -0.4473
 4507TIP3   OH235011   4.881   2.530  13.774 -0.3348 -0.0168 -0.0024
 4507TIP3    H135012   4.885   2.588  13.850  0.1798  0.9904 -0.7691
 4507TIP3    H235013   4.906   2.585  13.700  1.3247 -1.4725 -0.6227
 4508TIP3   OH235014   1.136   4.859  11.252  0.4107  0.5159 -0.5332
 4508TIP3    H135015   1.046   4.876  11.224 -0.4636 -3.0159 -0.4304
 4508TIP3    H235016   1.189   4.869  11.173 -0.7608 -1.1856 -1.6140
 4509TIP3   OH235017   4.942   0.226   6.035  0.3488  0.1119 -0.5817
 4509TIP3    H135018   5.030   0.198   6.056  0.5176  0.1057 -1.2675
 4509TIP3    H235019   4.914   0.277   6.111  0.5215 -0.8089  0.1069
 4510TIP3   OH235020   2.332   1.974  12.904  0.0769 -0.3274 -0.5831
 4510TIP3    H135021   2.312   2.045  12.965 -0.9459  0.2313 -1.5231
 4510TIP3    H235022   2.343   2.017  12.819  1.1211 -1.1231 -0.8736
 4511TIP3   OH235023   0.648   3.724  13.157 -0.0708  0.2767 -0.2956
 4511TIP3    H135024   0.558   3.704  13.181  0.1357 -0.8766 -0.4207
 4511TIP3    H235025   0.681   3.644  13.117  1.6094 -0.0101  1.4988
 4512TIP3   OH235026   5.934   0.919   2.951  0.1495 -0.8497 -0.7574
 4512TIP3    H135027   5.896   0.958   2.872 -1.8955 -4.4766 -1.7891
 4512TIP3    H235028   5.859   0.905   3.009  1.3690  0.0480  1.1165
 4513TIP3   OH235029   2.484   5.241  16.070  0.0774  0.1260 -0.7546
 4513TIP3    H135030   2.572   5.241  16.107 -0.4750  2.3055  0.7972
 4513TIP3    H235031   2.448   5.327  16.095 -2.4281 -0.6404 -1.4406
 4514TIP3   OH235032   1.258   4.242  13.897 -0.7251  0.4049 -0.1653
 4514TIP3    H135033   1.165   4.241  13.921 -0.1169  0.4265  2.5518
 4514TIP3    H235034   1.300   4.293  13.967  1.3384  0.4646 -1.3706
 4515TIP3   OH235035   3.428   1.712   2.088 -0.7647  0.5174 -0.0270
 4515TIP3    H135036   3.505   1.736   2.036 -0.1714  0.0395  0.6012
 4515TIP3    H235037   3.366   1.676   2.025 -0.4938  0.9579 -0.5507
 4516TIP3   OH235038   6.021   4.121  12.089 -0.1813 -0.3793  0.5399
 4516TIP3    H135039   5.942   4.067  12.094 -1.5321  1.3892 -0.2605
 4516TIP3    H235040   6.017   4.159  12.001  0.9800  0.5940  0.8886
 4517TIP3   OH235041   0.294   2.355   0.515 -0.2696  0.9319  0.3482
 4517TIP3    H135042   0.285   2.321   0.426  1.5454  0.9773  0.1115
 4517TIP3    H235043   0.257   2.287   0.571 -0.2855  0.3398 -0.3672
 4518TIP3   OH235044   1.956   2.102   4.229  0.5778 -1.3923 -0.0386
 4518TIP3    H135045   1.864   2.076   4.239  0.4659 -1.0555 -0.1862
 4518TIP3    H235046   1.965   2.122   4.136  0.2105  0.7390  0.3253
 4519TIP3   OH235047   1.826   6.573  12.060  0.5414  0.3591 -0.1783
 4519TIP3    H135048   1.879   6.639  12.103 -0.1291  1.0044 -0.3344
 4519TIP3    H235049   1.740   6.579  12.102  0.6152 -0.7710  0.1672
 4520TIP3   OH235050   4.296   3.203   4.959  0.1231 -0.3224  0.5796
 4520TIP3    H135051   4.277   3.295   4.982  0.5215 -0.3011  0.8320
 4520TIP3    H235052   4.230   3.181   4.894 -0.1724  0.0496  0.7464
 4521TIP3   OH235053   2.125   2.292   1.446  0.4121 -0.4958  0.3264
 4521TIP3    H135054   2.114   2.368   1.389  0.6358  0.0011  0.9321
 4521TIP3    H235055   2.191   2.319   1.510  1.6428 -1.7322 -0.3676
 4522TIP3   OH235056   4.191   5.121   1.225  0.2103 -0.3087 -0.0527
 4522TIP3    H135057   4.213   5.206   1.187 -1.1938  0.0025 -0.2299
 4522TIP3    H235058   4.250   5.059   1.183  0.4191  0.4095 -0.8327
 4523TIP3   OH235059   0.626   4.446   5.844 -0.3463 -0.5051 -0.2412
 4523TIP3    H135060   0.623   4.374   5.782 -0.1159 -1.2664  0.6086
 4523TIP3    H235061   0.711   4.437   5.888  0.0211  0.7419 -0.6476
 4524TIP3   OH235062   4.542   5.595  14.124 -0.1543 -0.0084  0.2719
 4524TIP3    H135063   4.460   5.629  14.161 -0.7971 -1.2631  0.0464
 4524TIP3    H235064   4.523   5.584  14.031  0.5174  0.3504  0.0849
 4525TIP3   OH235065   3.952   3.243   2.702  0.2928  0.7439  0.4769
 4525TIP3    H135066   3.970   3.278   2.614  0.9971  0.3963  0.4776
 4525TIP3    H235067   3.913   3.316   2.749 -0.3926  0.8364 -0.2285
 4526TIP3   OH235068   2.579   3.326  12.400 -0.1003  0.4700  0.0935
 4526TIP3    H135069   2.669   3.295  12.393 -0.1536  0.6815 -2.0551
 4526TIP3    H235070   2.546   3.285  12.480  1.5234 -0.6051  0.2504
 4527TIP3   OH235071   0.287   4.219   4.786  0.0546 -0.3301  0.3400
 4527TIP3    H135072   0.235   4.208   4.706 -3.0088  0.8590  1.9621
 4527TIP3    H235073   0.251   4.154   4.846  0.4491  0.5459  1.5522
 4528TIP3   OH235074   3.007   3.608  15.196  0.2903 -0.5048  0.3123
 4528TIP3    H135075   3.017   3.540  15.129 -2.2293 -0.4613 -0.2015
 4528TIP3    H235076   2.930   3.657  15.169  0.9477  1.3986  1.6974
 4529TIP3   OH235077   1.682   3.189  17.097 -0.3311 -0.4682 -0.1956
 4529TIP3    H135078   1.657   3.206  17.007  0.5975 -4.0012 -1.2807
 4529TIP3    H235079   1.772   3.221  17.104 -0.2822 -0.5079 -0.6609
 4530TIP3   OH235080   5.094   1.369  13.768  0.2006  0.0525  0.0949
 4530TIP3    H135081   5.041   1.291  13.781 -2.4231  1.7486  0.1999
 4530TIP3    H235082   5.173   1.353  13.820 -0.2693 -2.4640  0.1553
 4531TIP3   OH235083   1.220   1.502   0.165  0.2775 -0.5244  0.2702
 4531TIP3    H135084   1.179   1.449   0.233  1.2903 -0.7875  0.6979
 4531TIP3    H235085   1.292   1.547   0.209  0.3424  0.0682 -0.4153
 4532TIP3   OH235086   2.047   6.261   2.180 -0.1254 -0.2401  0.0507
 4532TIP3    H135087   1.989   6.255   2.104  1.3957 -0.4827 -1.1350
 4532TIP3    H235088   2.107   6.333   2.159  0.7606 -0.7694  0.6958
 4533TIP3   OH235089   3.980   5.908  16.932 -0.0143  0.2433  0.3470
 4533TIP3    H135090   4.006   5.928  17.022 -1.9280  1.3405  0.7138
 4533TIP3    H235091   4.047   5.950  16.878  0.0691  1.3121  1.2437
 4534TIP3   OH235092   3.003   2.800  17.127  0.0367 -0.0744  0.3694
 4534TIP3    H135093   2.990   2.859  17.202 -0.1274 -0.3901  0.5906
 4534TIP3    H235094   2.918   2.759  17.114 -0.5678  1.6071 -1.3940
 4535TIP3   OH235095   1.335   5.265  13.730 -0.4832 -0.4876  0.3367
 4535TIP3    H135096   1.271   5.232  13.793 -1.3433 -0.6321 -0.5925
 4535TIP3    H235097   1.340   5.197  13.663  0.4906 -0.3769  0.2846
 4536TIP3   OH235098   5.997   2.602   2.282  0.1808 -0.4473  0.2930
 4536TIP3    H135099   6.012   2.691   2.314  1.5312 -1.2791  2.1686
 4536TIP3    H235100   5.976   2.612   2.189 -0.6263  1.8696  0.6740
 4537TIP3   OH235101   3.514   2.120   3.710 -0.1137 -0.3536 -0.0265
 4537TIP3    H135102   3.476   2.060   3.645  0.5872  1.6038 -2.3852
 4537TIP3    H235103   3.535   2.199   3.660  4.2094 -0.1575  1.7328
 4538TIP3   OH235104   5.457   1.529  12.804 -0.8048 -0.5305  0.1555
 4538TIP3    H135105   5.536   1.486  12.771 -0.7167 -0.5475  0.3873
 4538TIP3    H235106   5.484   1.570  12.886 -1.1209 -0.8287  0.4129
 4539TIP3   OH235107   1.518   6.753  11.610  0.1519  0.5374  0.1420
 4539TIP3    H135108   1.430   6.756  11.648 -0.2594  0.7083 -0.7771
 4539TIP3    H235109   1.503   6.732  11.517  1.1638 -0.7490  0.2313
 4540TIP3   OH235110   3.144   3.345  14.393  0.4269  0.1542 -0.3055
 4540TIP3    H135111   3.099   3.334  14.310  0.0467 -1.8586  0.1062
 4540TIP3    H235112   3.096   3.415  14.438 -1.4983 -1.0097 -0.4348
 4541TIP3   OH235113   4.334   0.457  14.610  0.2973 -0.4754  0.3833
 4541TIP3    H135114   4.351   0.550  14.593  1.2938 -0.9731 -1.5264
 4541TIP3    H235115   4.383   0.438  14.690  1.3597  0.2653 -0.0787
 4542TIP3   OH235116   6.636   2.578   2.425 -0.2018 -0.0048 -0.2397
 4542TIP3    H135117   6.617   2.658   2.377 -2.9643  0.1972  1.0101
 4542TIP3    H235118   6.662   2.608   2.512 -1.5808 -0.4152  0.3387
 4543TIP3   OH235119   4.151   2.548   2.313  0.1942  0.2906 -0.5836
 4543TIP3    H135120   4.177   2.481   2.250 -1.8617 -0.9589 -0.1618
 4543TIP3    H235121   4.148   2.503   2.397 -1.2623  0.8531 -0.3032
 4544TIP3   OH235122   1.082   4.124  16.198 -0.9841 -0.5066  0.0016
 4544TIP3    H135123   1.173   4.099  16.215 -0.1616  1.3544 -1.2036
 4544TIP3    H235124   1.071   4.109  16.104 -1.0933  1.4382 -0.3531
 4545TIP3   OH235125   2.741   1.832  16.582  0.3351  0.4286 -0.4004
 4545TIP3    H135126   2.663   1.787  16.549  0.3774 -0.7245  0.9686
 4545TIP3    H235127   2.791   1.854  16.503 -1.4907  1.4680 -1.3237
 4546TIP3   OH235128   5.938   1.049  12.345  0.3715 -0.1093 -0.4144
 4546TIP3    H135129   6.026   1.074  12.373  1.6772 -2.2094 -2.2971
 4546TIP3    H235130   5.888   1.131  12.344  3.0341  1.6241 -1.8128
 4547TIP3   OH235131   1.386   5.197  16.180  0.8035 -0.3486  0.1807
 4547TIP3    H135132   1.295   5.187  16.153  1.3535  0.4815 -2.2405
 4547TIP3    H235133   1.428   5.116  16.152  0.7401 -1.0569  1.9609
 4548TIP3   OH235134   1.258   4.099  12.832 -0.1413  0.4769 -0.1403
 4548TIP3    H135135   1.212   4.121  12.913  0.3100 -0.6237  0.4390
 4548TIP3    H235136   1.327   4.165  12.825 -0.0002  0.4100  0.5314
 4549TIP3   OH235137   4.867   4.972  15.382  0.6942  0.3826 -0.2674
 4549TIP3    H135138   4.864   5.023  15.463 -0.1164  0.7712 -0.5296
 4549TIP3    H235139   4.957   4.981  15.352  0.8289  0.8000  0.2356
 4550TIP3   OH235140   4.216   5.811  12.511 -0.2537  0.4312  0.0466
 4550TIP3    H135141   4.122   5.832  12.511 -0.3251  0.2728 -1.4625
 4550TIP3    H235142   4.221   5.719  12.536 -0.4380  0.6103  0.7637
 4551TIP3   OH235143   5.659   4.560  10.537 -0.2278 -0.0863  0.1230
 4551TIP3    H135144   5.580   4.546  10.485 -0.3302 -0.2137  0.3114
 4551TIP3    H235145   5.718   4.489  10.511 -1.3301 -1.9234  2.2104
 4552TIP3   OH235146   6.056   6.633  16.106  0.6015 -0.2339 -0.0699
 4552TIP3    H135147   6.031   6.590  16.188 -0.5507 -0.7316 -0.6532
 4552TIP3    H235148   6.000   6.592  16.040  0.6184  1.0246 -0.9052
 4553TIP3   OH235149   2.258   6.805  13.806 -0.4189  0.0578  0.1861
 4553TIP3    H135150   2.243   6.720  13.765 -1.1692 -0.2534  1.0583
 4553TIP3    H235151   2.331   6.843  13.757  0.9028 -1.6869  0.6898
 4554TIP3   OH235152   4.270   6.374  13.246 -0.3245 -0.2183  0.0467
 4554TIP3    H135153   4.186   6.329  13.242 -0.9827  1.0073 -0.7556
 4554TIP3    H235154   4.281   6.412  13.158 -0.3307  2.0182  0.9263
 4555TIP3   OH235155   5.995   2.332  12.902  0.0283  0.5159 -0.0312
 4555TIP3    H135156   6.021   2.395  12.969 -0.4985  0.7212 -0.0199
 4555TIP3    H235157   5.985   2.383  12.822 -1.1702  0.6040  0.1481
 4556TIP3   OH235158   5.446   5.597   3.646 -0.6334  0.1607 -0.0652
 4556TIP3    H135159   5.463   5.511   3.607  0.2063 -0.2230  1.0770
 4556TIP3    H235160   5.522   5.614   3.701 -1.0556  1.3899  0.1762
 4557TIP3   OH235161   1.062   0.413   5.260 -0.1321 -0.3196 -0.1232
 4557TIP3    H135162   1.093   0.323   5.269  0.7243  0.1204  1.9408
 4557TIP3    H235163   1.004   0.411   5.184  0.4430 -2.4383 -0.5719
 4558TIP3   OH235164   1.805   5.206  14.617  0.0134  0.3173  0.3530
 4558TIP3    H135165   1.839   5.119  14.595 -1.6565 -0.3781  0.3456
 4558TIP3    H235166   1.714   5.190  14.642  0.1216  1.8773  1.9204
 4559TIP3   OH235167   1.511   6.546  14.746 -0.7389  0.0985 -0.5765
 4559TIP3    H135168   1.585   6.492  14.719  0.7629  2.1261 -0.8232
 4559TIP3    H235169   1.448   6.485  14.784  0.0085 -2.0247 -2.5186
 4560TIP3   OH235170   2.768   4.549   1.262 -0.5026 -0.2604  0.1547
 4560TIP3    H135171   2.699   4.483   1.259  1.0293 -1.9193 -0.1790
 4560TIP3    H235172   2.731   4.620   1.315 -1.9443 -1.6854  1.1515
 4561TIP3   OH235173   0.287   1.743   0.944 -0.2941  0.4143 -0.5217
 4561TIP3    H135174   0.231   1.666   0.956  1.9107 -1.3236 -0.7362
 4561TIP3    H235175   0.318   1.735   0.853 -2.0608  3.0564 -1.4562
 4562TIP3   OH235176   2.848   5.400   1.604 -0.2455 -0.1569 -0.3271
 4562TIP3    H135177   2.839   5.356   1.689 -0.1330 -0.4484 -0.4630
 4562TIP3    H235178   2.800   5.482   1.614  0.1130  0.0004  0.1530
 4563TIP3   OH235179   6.519   1.525   5.064 -0.1606  0.0612 -0.1300
 4563TIP3    H135180   6.468   1.542   4.985 -1.1264  0.2580  0.5208
 4563TIP3    H235181   6.466   1.464   5.114 -0.6761  1.7158  1.4424
 4564TIP3   OH235182   2.977   4.921  11.503 -0.4646 -0.4495 -0.5687
 4564TIP3    H135183   3.013   4.883  11.424 -0.5650  0.0183 -0.8468
 4564TIP3    H235184   2.884   4.899  11.501 -0.2023 -1.7025  0.1763
 4565TIP3   OH235185   5.587   4.073   2.183 -0.5289  0.4159  0.7437
 4565TIP3    H135186   5.525   4.025   2.237  0.7843 -0.4272  1.5467
 4565TIP3    H235187   5.561   4.165   2.192 -1.6648  0.0784  1.0323
 4566TIP3   OH235188   2.061   3.265  14.608  0.3068  0.6570  0.1504
 4566TIP3    H135189   2.120   3.279  14.533  0.1889 -0.2809 -0.1228
 4566TIP3    H235190   1.982   3.314  14.585 -0.7777 -1.7187 -1.6086
 4567TIP3   OH235191   4.381   0.168  15.565  0.3906  0.3923  0.0081
 4567TIP3    H135192   4.293   0.163  15.528  1.2464  0.2030 -2.1656
 4567TIP3    H235193   4.394   0.261  15.582  0.2683  0.6059 -1.0079
 4568TIP3   OH235194   4.218   3.751   4.889  0.0322  0.2499  0.1059
 4568TIP3    H135195   4.276   3.681   4.920 -0.0681  0.1669  0.1082
 4568TIP3    H235196   4.202   3.805   4.967  0.5811  0.6115 -0.0316
 4569TIP3   OH235197   1.393   0.846   0.818 -0.4353  0.3303  0.0912
 4569TIP3    H135198   1.474   0.823   0.862 -0.9380 -3.6166 -0.7024
 4569TIP3    H235199   1.324   0.826   0.882 -0.9392 -0.9209 -0.7967
 4570TIP3   OH235200   0.183   6.233   4.641  0.2683  0.5446 -0.0289
 4570TIP3    H135201   0.154   6.316   4.602 -1.8414 -0.1312 -0.0017
 4570TIP3    H235202   0.180   6.170   4.569  0.2066  0.1373  0.3251
 4571TIP3   OH235203   3.458   2.460   3.393  0.1161 -0.2463  0.0057
 4571TIP3    H135204   3.397   2.389   3.376  0.6122 -0.6764  0.0044
 4571TIP3    H235205   3.465   2.506   3.310 -0.7237  0.2244  0.1787
 4572TIP3   OH235206   2.840   6.735  17.169 -0.7293  0.1270  0.1686
 4572TIP3    H135207   2.837   6.676  17.244 -0.5564  0.0344  0.1028
 4572TIP3    H235208   2.760   6.787  17.175  0.2727  1.6213  1.6641
 4573TIP3   OH235209   1.656   5.969  11.779  0.4423  0.1675 -0.1077
 4573TIP3    H135210   1.749   5.950  11.767  0.4618 -0.1083  0.4761
 4573TIP3    H235211   1.614   5.926  11.704  0.8371  0.8038 -0.7054
 4574TIP3   OH235212   1.490   3.210   4.612  0.0958  0.0587 -0.0732
 4574TIP3    H135213   1.559   3.238   4.673  0.6271  0.7174 -0.9579
 4574TIP3    H235214   1.410   3.214   4.664  0.2436  2.5284  0.0846
 4575TIP3   OH235215   0.046   6.233  15.831  0.2234  0.2075 -0.1205
 4575TIP3    H135216   0.080   6.322  15.818 -0.7119  0.9194  1.8821
 4575TIP3    H235217   0.066   6.212  15.922 -3.3704  0.1811  0.8144
 4576TIP3   OH235218   0.232   3.611   4.791 -0.2390  0.1409 -0.0934
 4576TIP3    H135219   0.267   3.672   4.856 -1.2884  0.6449  0.0175
 4576TIP3    H235220   0.310   3.573   4.750  0.5076  2.6965 -1.2509
 4577TIP3   OH235221   0.267   0.402  15.221 -0.3066  0.1131 -0.0570
 4577TIP3    H135222   0.287   0.312  15.247  1.3636 -0.7350 -3.6839
 4577TIP3    H235223   0.346   0.452  15.243 -0.1795  0.0987 -0.4748
 4578TIP3   OH235224   6.829   4.671  14.305 -0.3134  0.5497 -0.1332
 4578TIP3    H135225   6.747   4.623  14.306  0.2505 -0.5611 -1.8696
 4578TIP3    H235226   6.842   4.693  14.213  1.8726 -0.3267 -0.0910
 4579TIP3   OH235227   6.218   3.990   0.757 -0.3535  1.0115 -0.0663
 4579TIP3    H135228   6.232   3.961   0.848 -0.1474  1.6787  0.1152
 4579TIP3    H235229   6.245   3.915   0.704 -1.3880  0.2451  0.4364
 4580TIP3   OH235230   3.043   3.887  15.599 -0.4111 -0.0854  0.6507
 4580TIP3    H135231   3.134   3.917  15.608 -0.1791  0.0298 -1.5913
 4580TIP3    H235232   3.048   3.792  15.609  0.0605 -0.1366  0.0285
 4581TIP3   OH235233   3.460   2.005  16.224  0.5209  0.2956  0.3078
 4581TIP3    H135234   3.548   2.038  16.245 -0.2146  2.0453  0.8155
 4581TIP3    H235235   3.418   1.993  16.309 -0.3556  1.3253  0.0441
 4582TIP3   OH235236   0.778   5.180   3.124  0.0240  0.4824  0.6149
 4582TIP3    H135237   0.709   5.116   3.143  0.3276  0.0103  0.1613
 4582TIP3    H235238   0.836   5.135   3.064 -0.9390  1.9477 -1.5378
 4583TIP3   OH235239   3.794   6.653   3.479 -0.8641 -0.1746  0.7845
 4583TIP3    H135240   3.833   6.653   3.392  3.7784  0.2879  2.5786
 4583TIP3    H235241   3.749   6.738   3.485 -1.0556 -0.1216 -1.0274
 4584TIP3   OH235242   3.056   6.169   2.138  0.0786  0.3562 -0.0567
 4584TIP3    H135243   3.019   6.143   2.222 -2.0579  1.0398 -0.7150
 4584TIP3    H235244   2.983   6.210   2.092  1.4219  0.7763 -1.9120
 4585TIP3   OH235245   6.734   5.812  16.323  0.4274  0.2510  0.3092
 4585TIP3    H135246   6.742   5.890  16.268 -0.0422  0.8373  1.0610
 4585TIP3    H235247   6.715   5.741  16.261  0.0538  0.8766 -0.3086
 4586TIP3   OH235248   1.869   0.318  13.551  0.2859 -0.0595 -0.7434
 4586TIP3    H135249   1.935   0.265  13.597  2.1348  1.7026 -1.2043
 4586TIP3    H235250   1.790   0.264  13.551  0.4271 -0.6194  3.5709
 4587TIP3   OH235251   1.193   3.953  12.012 -0.1357  0.6677  0.2932
 4587TIP3    H135252   1.160   3.920  12.095  0.6806 -1.1029 -0.0284
 4587TIP3    H235253   1.267   3.895  11.991  0.5382  1.9182 -0.9993
 4588TIP3   OH235254   2.830   5.940  15.250 -0.2448 -0.0190 -0.0351
 4588TIP3    H135255   2.910   5.954  15.199 -0.0908 -0.4767  0.0726
 4588TIP3    H235256   2.850   5.865  15.306 -0.5481  0.2365  0.4184
 4589TIP3   OH235257   5.691   5.059   2.426 -0.2365  0.4749  0.5410
 4589TIP3    H135258   5.785   5.053   2.446  0.1789  0.1683 -1.3514
 4589TIP3    H235259   5.648   5.019   2.503  1.4173 -4.3842 -0.6614
 4590TIP3   OH235260   5.526   2.186   3.941  0.0446  0.2144 -0.0983
 4590TIP3    H135261   5.554   2.094   3.936  1.3343  0.5160  0.9585
 4590TIP3    H235262   5.585   2.232   3.883  1.6315  0.8076  1.8743
 4591TIP3   OH235263   3.338   4.325  12.896  0.8444  0.2947  0.9338
 4591TIP3    H135264   3.270   4.392  12.902  0.1757 -0.2427 -0.2643
 4591TIP3    H235265   3.320   4.267  12.970  1.2318  1.2359  1.7911
 4592TIP3   OH235266   5.285   2.018  10.755  0.0575  0.1006  0.6431
 4592TIP3    H135267   5.193   2.027  10.731 -0.1051  1.4810  1.6929
 4592TIP3    H235268   5.333   2.050  10.678 -0.2013 -2.7264 -0.8441
 4593TIP3   OH235269   2.820   5.655  14.441 -0.3776 -0.3506 -0.2540
 4593TIP3    H135270   2.736   5.677  14.483 -0.6287  1.0839 -1.4340
 4593TIP3    H235271   2.798   5.591  14.374 -0.4167 -0.5022 -0.0968
 4594TIP3   OH235272   1.770   2.426  12.599 -0.0709 -0.2003  0.0328
 4594TIP3    H135273   1.807   2.504  12.639  1.7660 -0.1042 -1.6781
 4594TIP3    H235274   1.700   2.399  12.658  0.9953  1.1974  2.0439
 4595TIP3   OH235275   6.644   6.015   3.944  0.3320 -0.0057  0.9011
 4595TIP3    H135276   6.705   6.020   4.017  1.2081 -0.7600  0.2498
 4595TIP3    H235277   6.695   5.978   3.872 -0.6468  0.2123  0.0602
 4596TIP3   OH235278   2.938   2.529   2.583  0.0283 -0.5008 -0.2721
 4596TIP3    H135279   3.017   2.490   2.545  1.0997  2.0937 -0.9517
 4596TIP3    H235280   2.951   2.523   2.678 -0.3164 -2.5480 -0.3074
 4597TIP3   OH235281   2.457   0.127  15.015 -0.6879 -0.2247  0.4402
 4597TIP3    H135282   2.517   0.131  14.941 -1.3129  0.6378 -0.0442
 4597TIP3    H235283   2.513   0.108  15.090  0.0029 -0.7618 -0.1866
 4598TIP3   OH235284   0.707   1.909   5.418 -0.0069  0.1073 -0.0389
 4598TIP3    H135285   0.756   1.969   5.474 -1.5729  2.7377 -1.3174
 4598TIP3    H235286   0.619   1.946   5.413 -0.9210 -2.0597 -1.2872
 4599TIP3   OH235287   1.468   5.838   3.253 -0.2418 -0.6417  0.0208
 4599TIP3    H135288   1.508   5.817   3.169  3.6108 -1.0300  1.7458
 4599TIP3    H235289   1.424   5.757   3.279  3.1652 -2.5152  0.6345
 4600TIP3   OH235290   3.949   2.181  15.057  0.1545  0.1288 -0.0579
 4600TIP3    H135291   4.031   2.168  15.010  0.2381  0.1858  0.0711
 4600TIP3    H235292   3.895   2.233  14.997 -0.0073 -0.4019 -0.3849
 4601TIP3   OH235293   1.544   5.888  11.477 -0.5666  0.0221 -0.1970
 4601TIP3    H135294   1.532   5.836  11.397 -0.8979  1.0430 -0.8258
 4601TIP3    H235295   1.465   5.872  11.528 -0.8043  0.1400 -0.5265
 4602TIP3   OH235296   1.221   4.926   3.268  0.2564  0.3773  0.2010
 4602TIP3    H135297   1.128   4.919   3.250 -0.1379  1.2559  1.7554
 4602TIP3    H235298   1.243   5.017   3.250  0.6933  0.3152  0.4002
 4603TIP3   OH235299   0.953   4.542  11.731 -0.0976 -0.1745 -0.3744
 4603TIP3    H135300   1.005   4.601  11.785 -1.5814  2.0027 -1.1982
 4603TIP3    H235301   0.863   4.572  11.744 -0.8567 -1.9261 -1.2792
 4604TIP3   OH235302   3.018   2.577  16.599  0.2959  0.2890  0.3075
 4604TIP3    H135303   2.941   2.633  16.592 -1.2184 -1.8871 -2.8649
 4604TIP3    H235304   2.988   2.499  16.645  1.4910  0.6279  1.7469
 4605TIP3   OH235305   5.927   4.544   5.776  0.5114 -0.5032  0.5407
 4605TIP3    H135306   5.934   4.636   5.752  0.1879 -0.7895 -0.7309
 4605TIP3    H235307   5.893   4.501   5.697  2.2439 -1.9736  0.5482
 4606TIP3   OH235308   5.443   4.401   0.518  0.1116  0.0531 -0.2933
 4606TIP3    H135309   5.508   4.434   0.580 -0.3435  0.3040  0.0563
 4606TIP3    H235310   5.481   4.320   0.483  1.0532  0.7230 -0.8533
 4607TIP3   OH235311   3.406   1.235   5.809  0.1432  0.0479  0.4262
 4607TIP3    H135312   3.405   1.151   5.762 -0.2308 -0.3986  1.2079
 4607TIP3    H235313   3.491   1.236   5.853  0.4397  0.4075 -0.1407
 4608TIP3   OH235314   2.823   0.623   2.803 -0.0600 -0.3124 -0.5375
 4608TIP3    H135315   2.876   0.545   2.815 -0.9057 -0.9322 -0.6953
 4608TIP3    H235316   2.762   0.623   2.877 -2.1647 -1.5790 -2.1361
 4609TIP3   OH235317   0.691   6.519   4.109 -0.2327  0.2639 -0.3990
 4609TIP3    H135318   0.638   6.583   4.061 -0.9215  1.1360  1.4337
 4609TIP3    H235319   0.639   6.438   4.106 -0.5078  0.4474 -0.6920
 4610TIP3   OH235320   6.447   1.761  14.097 -0.1727 -0.0875 -0.3079
 4610TIP3    H135321   6.408   1.847  14.082 -3.6614 -1.6372 -1.2938
 4610TIP3    H235322   6.509   1.749  14.025 -1.1852  0.8477 -1.3764
 4611TIP3   OH235323   3.611   3.552   4.887  0.0393  0.4929  0.3832
 4611TIP3    H135324   3.660   3.531   4.966  1.3403 -1.6344 -0.8949
 4611TIP3    H235325   3.558   3.474   4.870 -0.8504  1.2366 -0.4167
 4612TIP3   OH235326   5.491   3.703  15.303  0.2468  0.0795  0.4347
 4612TIP3    H135327   5.558   3.673  15.364 -0.2791 -0.7236  0.6333
 4612TIP3    H235328   5.416   3.723  15.359  0.4108  1.2565  0.2450
 4613TIP3   OH235329   2.994   4.338  11.831  0.1370  0.2534 -0.3471
 4613TIP3    H135330   2.952   4.337  11.745  0.2867  0.7767 -0.4340
 4613TIP3    H235331   3.087   4.354  11.812  0.4481 -1.2650 -0.1793
 4614TIP3   OH235332   3.621   0.938  16.083 -0.3710 -0.0060 -0.1995
 4614TIP3    H135333   3.704   0.986  16.091  0.9475 -2.1499 -0.3327
 4614TIP3    H235334   3.568   0.972  16.155  1.0846  0.5392  0.6725
 4615TIP3   OH235335   5.434   2.361  12.741  0.4418 -0.7242 -0.2370
 4615TIP3    H135336   5.445   2.267  12.748  1.2515 -0.6400 -0.3478
 4615TIP3    H235337   5.486   2.398  12.813 -1.4389 -0.4306  1.0422
 4616TIP3   OH235338   0.551   5.575  11.575  0.0558 -0.2329 -0.3149
 4616TIP3    H135339   0.518   5.572  11.665  1.0229 -1.2500  0.0238
 4616TIP3    H235340   0.625   5.635  11.578  1.6024 -2.0788  0.1260
 4617TIP3   OH235341   0.256   3.884  11.056 -0.1788 -0.2142  0.1160
 4617TIP3    H135342   0.190   3.841  11.002 -1.2534 -1.0380  1.9897
 4617TIP3    H235343   0.306   3.811  11.094 -0.1130  0.2909  1.0256
 4618TIP3   OH235344   3.370   6.331  13.918  0.0385  0.4984  0.0918
 4618TIP3    H135345   3.387   6.415  13.961 -1.0684  0.4302  0.6991
 4618TIP3    H235346   3.402   6.265  13.981 -0.1430  0.4323  0.1143
 4619TIP3   OH235347   6.575   6.527   2.668 -0.3851  0.2709  0.0057
 4619TIP3    H135348   6.628   6.605   2.658 -0.6600  0.5705  0.8448
 4619TIP3    H235349   6.633   6.455   2.644  0.1986  0.6446  0.2865
 4620TIP3   OH235350   4.131   3.105   0.750 -0.1544 -0.2663  0.0749
 4620TIP3    H135351   4.143   3.195   0.778 -0.9162 -0.5565  1.4034
 4620TIP3    H235352   4.100   3.059   0.828 -0.1258 -1.6067 -0.6657
 4621TIP3   OH235353   6.359   3.097   5.072  1.2276  0.4250  0.7088
 4621TIP3    H135354   6.445   3.133   5.094  1.4933  0.8038 -0.8422
 4621TIP3    H235355   6.318   3.163   5.017  0.5795 -0.4300  0.1361
 4622TIP3   OH235356   0.322   5.671   4.300 -0.1878 -0.0972  0.2274
 4622TIP3    H135357   0.315   5.581   4.331 -1.1921 -1.1799 -2.7917
 4622TIP3    H235358   0.301   5.667   4.207  2.5384  2.8345 -0.7245
 4623TIP3   OH235359   0.183   3.756   3.167 -0.0245  0.0789  0.2807
 4623TIP3    H135360   0.221   3.795   3.246 -0.0454 -0.7457  0.7051
 4623TIP3    H235361   0.172   3.663   3.188  1.4697 -0.5019 -1.2352
 4624TIP3   OH235362   3.614   5.764   3.744  0.0883  0.7558  0.3511
 4624TIP3    H135363   3.706   5.748   3.727 -0.0762  0.8934 -0.7261
 4624TIP3    H235364   3.598   5.852   3.709 -0.2660  1.0857  1.2911
 4625TIP3   OH235365   5.258   6.206  15.214 -0.8733 -0.0511 -0.2272
 4625TIP3    H135366   5.192   6.137  15.214 -0.7946 -0.1463  1.3876
 4625TIP3    H235367   5.222   6.275  15.269  0.6791 -0.4456  1.3698
 4626TIP3   OH235368   2.319   1.146  16.229  0.1255  0.5362  0.1552
 4626TIP3    H135369   2.340   1.063  16.271  2.9246  0.4437 -1.1839
 4626TIP3    H235370   2.271   1.195  16.295  0.2732 -1.3314  1.7483
 4627TIP3   OH235371   6.787   6.492   4.758 -0.0008  0.1549  0.5237
 4627TIP3    H135372   6.840   6.442   4.819 -0.9049 -0.4914  0.8052
 4627TIP3    H235373   6.768   6.574   4.804 -1.0798 -0.5218  1.3355
 4628TIP3   OH235374   2.243   1.032   3.237  0.0804  0.4554  0.3016
 4628TIP3    H135375   2.250   0.938   3.249 -0.4120  0.3169 -0.4321
 4628TIP3    H235376   2.255   1.046   3.143  0.7800  1.1884  0.4889
 4629TIP3   OH235377   6.289   0.109   6.295  0.1009 -0.0367  0.4299
 4629TIP3    H135378   6.212   0.067   6.257  0.4636 -0.4360  0.1408
 4629TIP3    H235379   6.338   0.038   6.337  0.7076  0.0904 -0.0505
 4630TIP3   OH235380   0.363   5.912   3.327 -0.0142  0.0121  0.6323
 4630TIP3    H135381   0.275   5.932   3.361 -0.2590 -2.1755  1.4032
 4630TIP3    H235382   0.356   5.927   3.233 -1.2567 -0.2623  0.6631
 4631TIP3   OH235383   4.315   2.490  14.439  0.0366  0.0521 -0.0378
 4631TIP3    H135384   4.362   2.555  14.388 -0.5412  1.9624  1.7281
 4631TIP3    H235385   4.248   2.456  14.379  0.1958  1.2526 -0.9357
 4632TIP3   OH235386   4.677   3.152  12.300 -0.5988  0.6383 -0.3418
 4632TIP3    H135387   4.657   3.234  12.346  0.2961  1.0257 -0.6089
 4632TIP3    H235388   4.773   3.146  12.303 -0.6519 -0.3864 -0.3631
 4633TIP3   OH235389   6.704   2.597  12.316 -0.1620 -0.0206  0.2386
 4633TIP3    H135390   6.649   2.519  12.320  0.4300 -0.4026  1.2332
 4633TIP3    H235391   6.680   2.639  12.234 -0.7192 -1.0798 -0.1573
 4634TIP3   OH235392   6.290   0.188   6.597  0.3124 -0.3483  0.3372
 4634TIP3    H135393   6.292   0.117   6.533  0.7405  0.0039 -0.0484
 4634TIP3    H235394   6.358   0.249   6.567 -2.0366  1.7370 -1.0769
 4635TIP3   OH235395   4.455   5.675   4.001 -0.3575  0.3766 -0.5069
 4635TIP3    H135396   4.391   5.728   3.953 -1.1654 -0.6847 -0.6279
 4635TIP3    H235397   4.511   5.638   3.934 -0.2975  0.4228 -0.4827
 4636TIP3   OH235398   1.141   6.690  10.780  0.1493  0.6261 -0.6375
 4636TIP3    H135399   1.179   6.778  10.788 -0.3946  0.7708  0.6468
 4636TIP3    H235400   1.170   6.659  10.694  0.2556  2.1013 -1.1611
 4637TIP3   OH235401   5.710   2.423   2.542 -0.3272  0.2336 -0.0959
 4637TIP3    H135402   5.795   2.432   2.585 -0.0441  2.1378 -0.9362
 4637TIP3    H235403   5.660   2.500   2.571 -0.4096  1.1505 -2.4366
 4638TIP3   OH235404   2.569   1.832   1.701 -0.3138  0.1503  0.5536
 4638TIP3    H135405   2.585   1.812   1.793 -2.2544 -0.9884  0.6794
 4638TIP3    H235406   2.596   1.754   1.654  1.8693  1.1848 -0.0296
 4639TIP3   OH235407   0.672   2.481  13.742  0.3215  0.0870 -0.1449
 4639TIP3    H135408   0.704   2.390  13.745 -2.0321 -0.7737  2.0941
 4639TIP3    H235409   0.616   2.484  13.664 -0.9752 -0.9537  0.7090
 4640TIP3   OH235410   0.661   3.838   1.780 -0.2394  0.2798 -0.3984
 4640TIP3    H135411   0.606   3.785   1.721 -0.6767  0.0577  0.2039
 4640TIP3    H235412   0.608   3.915   1.799 -0.4375 -0.0334  0.3527
 4641TIP3   OH235413   0.276   0.125  15.250 -0.4876 -0.6267 -0.1359
 4641TIP3    H135414   0.272   0.042  15.296 -0.8345 -1.8991 -2.3056
 4641TIP3    H235415   0.284   0.101  15.157  0.6585  1.7611 -0.7425
 4642TIP3   OH235416   6.492   2.858  15.557 -0.3438 -0.0914  0.3421
 4642TIP3    H135417   6.399   2.877  15.561 -0.8701 -2.5447  2.7117
 4642TIP3    H235418   6.523   2.870  15.647  2.2101  2.7987 -0.7349
 4643TIP3   OH235419   5.214   3.702   4.869 -0.2179 -0.5500 -0.0674
 4643TIP3    H135420   5.183   3.612   4.861 -1.5523 -0.0886 -0.3581
 4643TIP3    H235421   5.136   3.752   4.894  0.1052  0.7816 -1.5844
 4644TIP3   OH235422   3.103   6.301   0.219 -0.6699  0.5457 -0.0571
 4644TIP3    H135423   3.180   6.325   0.167 -0.2153 -0.2743  0.2271
 4644TIP3    H235424   3.051   6.381   0.222  0.1674  1.1140 -0.2593
 4645TIP3   OH235425   6.436   6.583   5.007 -0.0269  0.2880 -0.3419
 4645TIP3    H135426   6.367   6.516   5.004 -0.1897  0.2812  1.8077
 4645TIP3    H235427   6.459   6.598   4.916 -3.0572  0.4707 -1.1741
 4646TIP3   OH235428   6.303   4.309  15.490  0.3643  0.4770  0.6017
 4646TIP3    H135429   6.350   4.374  15.542 -1.9131  3.4086 -0.7045
 4646TIP3    H235430   6.214   4.308  15.526  0.5017 -2.7684  1.1751
 4647TIP3   OH235431   0.086   3.517   3.246  0.4862 -0.2960 -0.4025
 4647TIP3    H135432   0.019   3.567   3.294 -0.1914  0.4180 -2.0169
 4647TIP3    H235433   0.124   3.459   3.312 -0.9210  0.1034  0.8262
 4648TIP3   OH235434   4.365   5.950  12.721 -0.1271  0.0467 -0.5245
 4648TIP3    H135435   4.358   6.045  12.710  1.6003  0.0310 -2.3451
 4648TIP3    H235436   4.325   5.914  12.642  2.3352 -0.5464 -1.6123
 4649TIP3   OH235437   2.875   4.845  16.448  0.1439 -0.0668 -0.3212
 4649TIP3    H135438   2.787   4.872  16.474  0.0469  1.9488 -2.4525
 4649TIP3    H235439   2.862   4.798  16.365  1.0821  0.6150 -0.8700
 4650TIP3   OH235440   0.580   0.910   3.792 -0.2852 -0.0239 -0.1324
 4650TIP3    H135441   0.598   0.982   3.731  3.0054  0.5840  1.3164
 4650TIP3    H235442   0.637   0.839   3.761  0.2351 -0.2476  1.2829
 4651TIP3   OH235443   1.502   4.979  13.303  0.0367 -0.1671 -0.1646
 4651TIP3    H135444   1.445   4.922  13.251  0.7580 -0.5710 -0.5398
 4651TIP3    H235445   1.587   4.935  13.300  0.4004  0.5010  0.2600
 4652TIP3   OH235446   2.398   2.159   2.938  0.3209  0.0662 -0.5001
 4652TIP3    H135447   2.361   2.245   2.958  0.6976  0.1804 -0.2850
 4652TIP3    H235448   2.334   2.097   2.975  0.0760  0.2512 -0.6087
 4653TIP3   OH235449   1.306   1.362  12.533 -0.1054  0.0819 -0.3125
 4653TIP3    H135450   1.375   1.420  12.563  0.4622 -0.0529 -1.3009
 4653TIP3    H235451   1.234   1.420  12.507  0.7582  0.4397 -2.0607
 4654TIP3   OH235452   2.354   2.248   0.692  0.1878 -0.6348 -0.5393
 4654TIP3    H135453   2.354   2.260   0.787  1.0666 -0.7450 -0.5134
 4654TIP3    H235454   2.282   2.187   0.676  0.2466 -0.8837  0.0997
 4655TIP3   OH235455   1.352   3.026  11.704  0.0018  0.2495 -0.3135
 4655TIP3    H135456   1.422   3.003  11.642  2.9336  2.5320  1.8979
 4655TIP3    H235457   1.311   3.104  11.667 -0.6540 -0.3956 -1.0045
 4656TIP3   OH235458   2.854   2.058  15.439  0.5448 -0.8073  0.0819
 4656TIP3    H135459   2.867   2.076  15.532 -3.3368  0.4222  0.5964
 4656TIP3    H235460   2.809   1.974  15.437  0.5277 -0.7860 -0.6819
 4657TIP3   OH235461   0.567   0.913  14.145 -0.3354 -0.4617  0.2751
 4657TIP3    H135462   0.575   0.821  14.119 -1.1142 -0.3559 -0.3728
 4657TIP3    H235463   0.622   0.920  14.223  2.8713 -0.6007 -1.7648
 4658TIP3   OH235464   6.631   5.422   1.828  0.0046 -0.4626 -0.0534
 4658TIP3    H135465   6.614   5.392   1.738  0.3962 -0.9643  0.0368
 4658TIP3    H235466   6.545   5.420   1.870 -0.3495  0.6497 -0.6638
 4659TIP3   OH235467   3.787   3.255   4.132 -0.6826 -0.0325 -0.0157
 4659TIP3    H135468   3.701   3.246   4.173 -0.1162 -1.1946  0.9667
 4659TIP3    H235469   3.819   3.165   4.123 -0.2211  0.2655 -1.8325
 4660TIP3   OH235470   3.637   4.824  11.636  0.0982 -0.3577  0.1453
 4660TIP3    H135471   3.724   4.814  11.597 -0.5800 -1.6609 -1.0885
 4660TIP3    H235472   3.584   4.861  11.566 -0.8416 -1.5854  0.1815
 4661TIP3   OH235473   6.340   3.226   2.645  0.3429 -0.3681 -0.0433
 4661TIP3    H135474   6.349   3.281   2.568 -3.1462  0.0677 -0.3159
 4661TIP3    H235475   6.324   3.287   2.717 -0.1093 -0.8943  0.3142
 4662TIP3   OH235476   0.748   0.059  12.346 -0.1593  0.0207 -0.0403
 4662TIP3    H135477   0.655   0.075  12.334 -0.1996 -0.9361 -1.1660
 4662TIP3    H235478   0.754  -0.002  12.419 -0.2469  1.8467  1.5618
 4663TIP3   OH235479   6.709   3.449   5.301  0.1695 -0.5839  0.1710
 4663TIP3    H135480   6.785   3.498   5.331 -0.2982 -0.3493  0.9828
 4663TIP3    H235481   6.635   3.486   5.349 -0.8683  0.8210 -2.2913
 4664TIP3   OH235482   1.509   5.830  12.600 -0.3125  0.0905  0.3624
 4664TIP3    H135483   1.539   5.851  12.688  0.0737 -1.3569  0.6066
 4664TIP3    H235484   1.438   5.893  12.582  0.1857  0.9574  1.3453
 4665TIP3   OH235485   3.921   0.157  13.022  0.0678 -0.6017 -0.3541
 4665TIP3    H135486   3.947   0.126  12.935  0.2329 -0.7784 -0.2405
 4665TIP3    H235487   3.828   0.135  13.028  0.1938 -1.1180 -0.2573
 4666TIP3   OH235488   1.341   5.881  16.812  0.3890 -0.2133 -0.7560
 4666TIP3    H135489   1.256   5.897  16.853 -1.0995 -6.5951 -0.2918
 4666TIP3    H235490   1.398   5.856  16.885  0.5989 -2.3168 -1.5772
 4667TIP3   OH235491   0.783   6.146  14.346  0.4996  0.0438  0.7981
 4667TIP3    H135492   0.767   6.201  14.269  0.4144 -0.0938  0.7169
 4667TIP3    H235493   0.701   6.150  14.396  0.3598 -0.3109  0.6010
 4668TIP3   OH235494   1.776   3.451   1.106 -0.1329 -0.5301  0.0030
 4668TIP3    H135495   1.714   3.431   1.036  0.3747 -0.1120 -0.5819
 4668TIP3    H235496   1.856   3.477   1.061  0.6335 -1.5200  0.7428
 4669TIP3   OH235497   4.384   2.260   2.523 -0.2466  0.3942  0.1201
 4669TIP3    H135498   4.358   2.324   2.589 -2.8717  0.5204 -0.9386
 4669TIP3    H235499   4.390   2.310   2.441 -2.0325 -0.5685 -0.6627
 4670TIP3   OH235500   6.513   3.719   1.406 -0.3368 -0.0057  0.3556
 4670TIP3    H135501   6.454   3.748   1.475 -0.0172  1.8316 -0.1052
 4670TIP3    H235502   6.502   3.624   1.404  0.2987 -0.2482  3.4979
 4671TIP3   OH235503   6.489   0.202  16.844  0.7475 -0.5875 -0.4064
 4671TIP3    H135504   6.549   0.253  16.898  0.0379  0.8738 -0.9530
 4671TIP3    H235505   6.437   0.267  16.797 -2.0806 -1.7286  0.8821
 4672TIP3   OH235506   6.581   6.336   1.777  0.2856  0.1590  0.1293
 4672TIP3    H135507   6.559   6.331   1.870  1.1531  0.9187  0.4003
 4672TIP3    H235508   6.635   6.415   1.770 -0.4017  0.5394 -1.1537
 4673TIP3   OH235509   0.113   6.415   6.469 -0.1047 -0.7995  0.5988
 4673TIP3    H135510   0.144   6.460   6.391 -0.9996 -0.0281  0.6643
 4673TIP3    H235511   0.133   6.475   6.541 -1.4288 -0.4033  0.6702
 4674TIP3   OH235512   3.813   2.903   1.449  0.1311 -0.0410 -0.7185
 4674TIP3    H135513   3.864   2.829   1.483  1.1262  0.9882  0.1434
 4674TIP3    H235514   3.797   2.958   1.526 -0.2066  0.8584 -1.4156
 4675TIP3   OH235515   3.111   3.724   2.227  0.1627 -0.0882  0.2107
 4675TIP3    H135516   3.126   3.685   2.313  0.1616  1.7508  1.0807
 4675TIP3    H235517   3.045   3.792   2.242  1.8418  1.8486 -0.7542
 4676TIP3   OH235518   1.033   3.349  17.170  0.2013 -0.3867 -0.6415
 4676TIP3    H135519   1.084   3.277  17.207 -2.6057 -2.0225  0.3234
 4676TIP3    H235520   1.071   3.362  17.083  1.7618 -1.9869 -0.2721
 4677TIP3   OH235521   5.436   0.206  13.990 -0.2875  0.3413 -0.8544
 4677TIP3    H135522   5.418   0.266  13.918 -2.1696  1.0414  0.1385
 4677TIP3    H235523   5.350   0.180  14.022  0.5059 -1.0363  0.2668
 4678TIP3   OH235524   1.295   4.090   2.290  0.3202 -0.6751 -0.6903
 4678TIP3    H135525   1.300   4.088   2.195  0.9321 -1.4445 -0.6448
 4678TIP3    H235526   1.283   3.999   2.316  0.3504 -0.4955 -0.0247
 4679TIP3   OH235527   6.058   3.280   4.190 -0.0567 -0.3768 -0.0725
 4679TIP3    H135528   6.086   3.301   4.101  0.9356  0.3162  0.3772
 4679TIP3    H235529   6.088   3.354   4.243 -0.7363 -0.7174  0.8242
 4680TIP3   OH235530   0.733   1.669  16.943  0.3997  0.3600  0.2347
 4680TIP3    H135531   0.711   1.584  16.905 -1.3505  1.2423 -0.8187
 4680TIP3    H235532   0.826   1.680  16.924  0.5839 -1.1708  0.1236
 4681TIP3   OH235533   0.715   5.840   6.027  0.0411 -0.1423 -0.3702
 4681TIP3    H135534   0.718   5.746   6.047 -0.2940  0.1291  1.1200
 4681TIP3    H235535   0.622   5.861   6.028  0.1619  0.4494  0.7145
 4682TIP3   OH235536   5.376   3.678   0.904 -0.1047  0.1592  0.2945
 4682TIP3    H135537   5.409   3.761   0.870  1.1549  0.4323  2.0377
 4682TIP3    H235538   5.454   3.633   0.936 -1.0033 -0.7877  1.2545
 4683TIP3   OH235539   1.512   2.979  16.951 -0.5976  0.0695  0.3407
 4683TIP3    H135540   1.560   3.056  16.920 -1.5053  0.5187 -0.0162
 4683TIP3    H235541   1.564   2.945  17.023 -0.6888  1.6686  1.2283
 4684TIP3   OH235542   0.870   2.168   2.678  0.5995  0.2713 -0.2084
 4684TIP3    H135543   0.959   2.196   2.697  1.0420 -1.9855  1.3797
 4684TIP3    H235544   0.839   2.129   2.760 -1.7412  0.6908 -0.8256
 4685TIP3   OH235545   6.392   1.365   0.731 -0.0583  0.3391  1.0068
 4685TIP3    H135546   6.306   1.402   0.713  0.5219  1.1848 -0.2062
 4685TIP3    H235547   6.426   1.340   0.645 -0.5166 -3.3736  1.7561
 4686TIP3   OH235548   5.054   6.664   5.678  0.3509 -0.2077  0.0097
 4686TIP3    H135549   4.992   6.597   5.706  1.0834 -1.5614 -1.4287
 4686TIP3    H235550   5.060   6.725   5.752 -0.3492 -1.7103  1.3481
 4687TIP3   OH235551   0.130   3.668  10.474  0.2221 -0.2400 -0.2967
 4687TIP3    H135552   0.158   3.578  10.458  0.4645 -0.6527  2.1836
 4687TIP3    H235553   0.083   3.693  10.394 -0.5654 -2.8301 -0.7124
 4688TIP3   OH235554   0.107   1.687  14.336  0.5375 -0.5256 -1.0108
 4688TIP3    H135555   0.183   1.690  14.394 -2.9944  1.1144  4.2234
 4688TIP3    H235556   0.112   1.769  14.286  1.8177 -0.1200 -0.2750
 4689TIP3   OH235557   3.402   0.495   0.820 -0.1898 -0.0087  0.1034
 4689TIP3    H135558   3.385   0.404   0.845  0.6666 -0.1248  0.2917
 4689TIP3    H235559   3.413   0.541   0.903  1.2967 -0.1268 -0.0013
 4690TIP3   OH235560   6.385   6.752   6.436 -0.2184  0.2481  0.3009
 4690TIP3    H135561   6.396   6.755   6.531 -1.8077 -1.0081  0.5672
 4690TIP3    H235562   6.359   6.661   6.418  0.1207  0.4497 -1.3545
 4691TIP3   OH235563   1.976   1.140   0.967 -0.5322 -0.5748 -0.2923
 4691TIP3    H135564   2.036   1.194   0.917 -1.0250  0.6951  0.4334
 4691TIP3    H235565   2.014   1.136   1.055 -1.1273 -0.3564 -0.0149
 4692TIP3   OH235566   4.330   3.248   3.363  0.4461  0.4465  0.2528
 4692TIP3    H135567   4.324   3.265   3.457 -1.5200  1.1937  0.0334
 4692TIP3    H235568   4.262   3.183   3.346  1.3982 -0.3865 -0.5374
 4693TIP3   OH235569   4.150   5.300   4.450  0.1586 -0.2530  0.3427
 4693TIP3    H135570   4.059   5.279   4.471 -0.4233  0.8731 -0.9030
 4693TIP3    H235571   4.164   5.261   4.364  0.5255  0.4122  0.0905
 4694TIP3   OH235572   2.203   6.740   4.212  0.1115 -0.4703 -0.6116
 4694TIP3    H135573   2.250   6.815   4.174  0.6953 -0.7791 -0.5031
 4694TIP3    H235574   2.130   6.725   4.151 -0.3464  0.5311 -0.3459
 4695TIP3   OH235575   3.467   3.172  10.714  0.1667  0.0050  0.1402
 4695TIP3    H135576   3.407   3.237  10.750  1.6012  0.0407  2.6655
 4695TIP3    H235577   3.552   3.216  10.710  0.6039 -0.8801 -0.6971
 4696TIP3   OH235578   3.271   3.156  10.524  0.3422  0.3922  0.3471
 4696TIP3    H135579   3.336   3.145  10.592  1.0233  0.8806 -0.2141
 4696TIP3    H235580   3.215   3.227  10.555  1.5663  1.6696 -0.2737
 4697TIP3   OH235581   4.078   4.711  16.959 -0.2490 -0.3137  0.4584
 4697TIP3    H135582   4.025   4.664  17.022 -0.7641 -1.1051 -0.5320
 4697TIP3    H235583   4.097   4.647  16.891  0.6367  0.3978  0.0108
 4698TIP3   OH235584   4.384   1.801   5.763  0.2634  0.0731  0.1944
 4698TIP3    H135585   4.300   1.781   5.721  0.0814 -1.6939  1.2722
 4698TIP3    H235586   4.360   1.842   5.846  0.6060  2.7934 -0.9515
 4699TIP3   OH235587   6.700   6.399  16.626 -0.5807 -0.1697  0.6563
 4699TIP3    H135588   6.728   6.490  16.623  0.5974 -0.4580  1.8362
 4699TIP3    H235589   6.608   6.402  16.652 -1.1229  0.7317 -1.2307
 4700TIP3   OH235590   5.712   4.586  11.432 -0.4261 -0.6205  0.1821
 4700TIP3    H135591   5.633   4.639  11.424  0.4384  0.5804 -0.7810
 4700TIP3    H235592   5.691   4.504  11.388 -0.4445  0.5182 -2.0738
 4701TIP3   OH235593   3.157   4.836   6.063 -0.2908 -0.2326 -0.3124
 4701TIP3    H135594   3.088   4.898   6.086  0.1245  0.0902  0.0820
 4701TIP3    H235595   3.204   4.821   6.145 -0.2398 -0.8837 -0.4599
 4702TIP3   OH235596   2.749   0.937  13.149  0.1837 -0.3632  0.7635
 4702TIP3    H135597   2.841   0.935  13.123 -0.1883 -1.1191 -0.5915
 4702TIP3    H235598   2.706   0.990  13.082 -0.2863  0.5417  1.7445
 4703TIP3   OH235599   0.956   3.193  13.353 -0.4172 -0.2881 -0.4150
 4703TIP3    H135600   1.047   3.198  13.325  0.0758  0.6929  1.2669
 4703TIP3    H235601   0.910   3.157  13.277  1.3621 -0.8593 -1.2761
 4704TIP3   OH235602   6.817   4.840  14.703  0.0570 -0.2935  0.1221
 4704TIP3    H135603   6.898   4.892  14.709 -0.4153  0.4365  0.2297
 4704TIP3    H235604   6.816   4.788  14.784  1.2179 -1.5111 -0.5935
 4705TIP3   OH235605   6.224   3.719  14.134  0.0341  0.1387  0.3826
 4705TIP3    H135606   6.318   3.735  14.132 -0.0711  0.8496  0.5883
 4705TIP3    H235607   6.212   3.637  14.087  0.6906  0.4072 -0.2836
 4706TIP3   OH235608   3.578   5.681   4.863  0.0755  0.0612 -0.9294
 4706TIP3    H135609   3.600   5.742   4.933 -0.4988 -0.2740 -0.4439
 4706TIP3    H235610   3.574   5.735   4.784  1.6915  0.2832 -0.8944
 4707TIP3   OH235611   1.199   3.844   1.479 -0.5287  0.2100  0.0913
 4707TIP3    H135612   1.185   3.781   1.549 -0.4845 -0.1921 -0.2603
 4707TIP3    H235613   1.148   3.810   1.405  1.0998 -0.4958 -0.7421
 4708TIP3   OH235614   0.757   3.785   1.259 -0.3662  0.2549  0.2301
 4708TIP3    H135615   0.674   3.737   1.255  0.7501 -1.7327 -3.0395
 4708TIP3    H235616   0.744   3.860   1.201  0.5788 -1.1214 -1.8967
 4709TIP3   OH235617   2.504   4.692   5.655 -0.0991 -0.0690  0.1231
 4709TIP3    H135618   2.431   4.716   5.598 -0.6406 -1.1736  0.3144
 4709TIP3    H235619   2.471   4.617   5.705  1.2527 -0.7969 -0.0227
 4710TIP3   OH235620   0.989   0.367   2.936 -0.2007 -0.0076  0.0457
 4710TIP3    H135621   0.921   0.301   2.950  0.9085 -1.0568  0.7214
 4710TIP3    H235622   0.985   0.421   3.014  0.8363 -1.1187  0.9101
 4711TIP3   OH235623   1.756   1.336  11.968 -0.0671 -0.3215 -0.1383
 4711TIP3    H135624   1.714   1.415  11.934 -0.7235 -1.3590 -1.7981
 4711TIP3    H235625   1.837   1.328  11.917  0.9092  0.2036  1.2383
 4712TIP3   OH235626   4.218   4.063  13.258 -0.3757 -0.0071 -0.1223
 4712TIP3    H135627   4.214   4.152  13.222  0.1074  0.5415  1.1058
 4712TIP3    H235628   4.284   4.018  13.205  0.3718  0.7996  0.0983
 4713TIP3   OH235629   5.081   3.180  11.783 -0.3541 -0.2131 -0.7721
 4713TIP3    H135630   5.019   3.173  11.856 -0.4519  1.1558 -0.6976
 4713TIP3    H235631   5.152   3.119  11.806 -1.1826 -1.0411 -0.3667
 4714TIP3   OH235632   2.240   5.262  16.690  0.3466  0.3927  0.4701
 4714TIP3    H135633   2.320   5.247  16.640 -0.3501 -0.8313 -0.3278
 4714TIP3    H235634   2.236   5.357  16.701  1.1490  0.5836 -0.7450
 4715TIP3   OH235635   5.849   6.195   0.054 -0.5204 -0.0249  0.2364
 4715TIP3    H135636   5.944   6.210   0.059 -0.7493  1.6887  0.1001
 4715TIP3    H235637   5.811   6.264   0.109 -1.7537  0.7210 -1.4558
 4716TIP3   OH235638   5.043   1.460   2.611  0.2084 -0.1604  0.6899
 4716TIP3    H135639   4.950   1.470   2.632 -0.0810  0.4869 -0.7594
 4716TIP3    H235640   5.044   1.430   2.520  1.4278  0.6281  0.4160
 4717TIP3   OH235641   5.986   4.997  12.383 -0.0037 -0.0493  0.0925
 4717TIP3    H135642   5.958   5.080  12.344  0.3673  0.3885  0.7441
 4717TIP3    H235643   6.081   4.996  12.374 -0.0385 -0.6457 -0.3599
 4718TIP3   OH235644   2.154   2.285   3.270  0.2651 -0.4459 -0.1321
 4718TIP3    H135645   2.191   2.283   3.358  1.2965  1.0167 -0.5153
 4718TIP3    H235646   2.062   2.307   3.283  0.6410  0.8198  0.5428
 4719TIP3   OH235647   0.007   5.227  15.863  0.1580  0.4172  0.8827
 4719TIP3    H135648  -0.022   5.155  15.920 -0.6611 -0.3595 -0.4763
 4719TIP3    H235649   0.096   5.203  15.837 -0.4699 -0.6455 -0.3699
 4720TIP3   OH235650   3.916   6.629  17.041 -0.3183  0.3297 -0.3443
 4720TIP3    H135651   3.879   6.620  16.953  2.4196 -0.2399 -1.5695
 4720TIP3    H235652   3.934   6.540  17.068  1.6956  0.6103 -0.6057
 4721TIP3   OH235653   4.241   4.754  13.641  0.2119 -0.3632 -0.3005
 4721TIP3    H135654   4.314   4.788  13.589  0.9832 -1.9875 -0.3646
 4721TIP3    H235655   4.192   4.832  13.668  2.1094  0.8207 -0.0387
 4722TIP3   OH235656   6.151   3.716  15.261 -0.2714  0.2384 -0.2332
 4722TIP3    H135657   6.138   3.743  15.352  0.2175  0.5798 -0.2619
 4722TIP3    H235658   6.092   3.641  15.250  0.1606 -0.2386  0.5614
 4723TIP3   OH235659   4.008   4.690  10.775  0.7730 -0.1724 -0.5821
 4723TIP3    H135660   4.071   4.722  10.840  1.0518  4.1528 -2.6081
 4723TIP3    H235661   4.036   4.600  10.756  2.5258 -0.5204  2.9041
 4724TIP3   OH235662   4.358   0.853   3.188 -0.1887 -0.0361 -0.9131
 4724TIP3    H135663   4.441   0.879   3.149  1.1010 -1.9922  0.3474
 4724TIP3    H235664   4.360   0.891   3.276 -0.7463  0.0813 -0.9448
 4725TIP3   OH235665   5.071   6.419  13.765  0.4762  1.1323 -0.4797
 4725TIP3    H135666   5.047   6.461  13.848 -0.0734 -0.6765  0.3390
 4725TIP3    H235667   4.987   6.391  13.727  0.8171  0.7952 -1.0017
 4726TIP3   OH235668   2.761   4.185   1.206  0.1381  0.2370 -0.0711
 4726TIP3    H135669   2.817   4.125   1.158  0.3744 -1.3181  2.0372
 4726TIP3    H235670   2.673   4.170   1.170 -0.1017 -2.6311  1.4554
 4727TIP3   OH235671   1.738   2.521  14.593 -0.3820  0.3330 -0.1058
 4727TIP3    H135672   1.719   2.569  14.674 -0.1220  0.3682 -0.0665
 4727TIP3    H235673   1.693   2.437  14.603 -0.5638  0.4368 -0.0348
 4728TIP3   OH235674   5.033   5.273   0.206 -0.4098  0.1936 -0.0722
 4728TIP3    H135675   5.080   5.207   0.258 -0.3081 -0.2337 -0.6963
 4728TIP3    H235676   5.101   5.332   0.174 -0.4180  0.1848 -0.1060
 4729TIP3   OH235677   3.457   3.583   1.010 -0.4554 -0.5063 -0.1552
 4729TIP3    H135678   3.437   3.676   1.021  0.2576 -0.3695 -0.0082
 4729TIP3    H235679   3.468   3.550   1.100  1.5916 -0.2152 -0.2543
 4730TIP3   OH235680   0.388   1.496  10.965 -0.2693  0.2882 -0.6658
 4730TIP3    H135681   0.358   1.582  10.936 -2.4983  0.7703  2.5248
 4730TIP3    H235682   0.319   1.435  10.939  0.6151 -0.3346 -1.6425
 4731TIP3   OH235683   3.895   1.316   4.211  0.1489 -0.3215  0.1779
 4731TIP3    H135684   3.833   1.306   4.140  0.8004 -0.0878 -0.4332
 4731TIP3    H235685   3.949   1.390   4.185  0.0200  0.1499  1.1963
 4732TIP3   OH235686   6.563   4.882   2.094  0.3235 -0.2879  0.4167
 4732TIP3    H135687   6.556   4.969   2.134  0.7198 -0.2713  0.4466
 4732TIP3    H235688   6.653   4.877   2.062 -0.1145 -0.1275 -0.8764
 4733TIP3   OH235689   4.556   1.618  10.508 -0.0528 -0.3154 -0.1654
 4733TIP3    H135690   4.616   1.575  10.569  0.1488  0.1315 -0.0520
 4733TIP3    H235691   4.557   1.710  10.533 -1.8699 -0.5023  0.7599
 4734TIP3   OH235692   5.085   0.720  14.505  0.3095  0.5790 -0.5575
 4734TIP3    H135693   5.137   0.757  14.577  0.9060 -1.2784  0.0252
 4734TIP3    H235694   5.139   0.731  14.427 -0.6275  3.2306 -0.9297
 4735TIP3   OH235695   0.830   4.044  13.752 -0.1256  0.2872 -0.0878
 4735TIP3    H135696   0.822   3.950  13.768 -4.9954  0.1383 -1.6210
 4735TIP3    H235697   0.868   4.051  13.665  0.2093 -0.2900  0.0099
 4736TIP3   OH235698   6.331   6.647   2.607 -0.4130  0.4234 -0.8016
 4736TIP3    H135699   6.357   6.733   2.640 -0.8136  0.6417 -1.0457
 4736TIP3    H235700   6.404   6.590   2.630  0.1179  0.9455 -1.1298
 4737TIP3   OH235701   4.732   5.863  13.010 -0.0175 -0.0441 -0.2321
 4737TIP3    H135702   4.725   5.851  13.105  3.6162  0.8554  0.2876
 4737TIP3    H235703   4.701   5.952  12.994 -1.5964 -0.5399 -0.1050
 4738TIP3   OH235704   4.909   6.200  13.591  0.3964 -0.1391 -0.0430
 4738TIP3    H135705   4.828   6.207  13.642  1.0190  0.9686  0.8168
 4738TIP3    H235706   4.902   6.269  13.525  0.1855 -0.7285 -0.6572
 4739TIP3   OH235707   1.414   5.012  12.831 -0.1883  1.0660  0.1594
 4739TIP3    H135708   1.464   5.087  12.862 -0.9675  1.3729  0.7289
 4739TIP3    H235709   1.478   4.941  12.824  0.3040  1.4085  1.0058
 4740TIP3   OH235710   2.096   6.538  14.471  0.3910  0.0220 -0.4090
 4740TIP3    H135711   2.049   6.553  14.389 -1.2294  0.7150  0.6042
 4740TIP3    H235712   2.082   6.618  14.522 -1.1467 -1.4854  1.7049
 4741TIP3   OH235713   1.037   1.366  12.230 -0.8780 -0.1320 -0.4387
 4741TIP3    H135714   1.096   1.309  12.279 -1.9066 -2.2742 -1.5784
 4741TIP3    H235715   1.039   1.449  12.277  1.3509 -0.8178  0.7807
 4742TIP3   OH235716   2.842   4.676   2.879  0.1885 -0.3920  0.3184
 4742TIP3    H135717   2.875   4.765   2.875  1.3013 -0.7042  1.6916
 4742TIP3    H235718   2.874   4.634   2.799 -1.2684  0.6963 -0.8852
 4743TIP3   OH235719   5.473   0.150   1.187 -0.5829  0.0657 -0.0995
 4743TIP3    H135720   5.424   0.069   1.169  0.9174 -0.5887 -1.5173
 4743TIP3    H235721   5.469   0.199   1.106 -0.8881  1.1166  0.5399
 4744TIP3   OH235722   1.247   1.070  12.428  0.1390 -0.1066 -0.6039
 4744TIP3    H135723   1.161   1.051  12.466 -1.0985 -0.0205 -3.1475
 4744TIP3    H235724   1.263   1.162  12.448  0.3457 -0.4846  1.0988
 4745TIP3   OH235725   2.345   0.926   4.049 -0.2355 -0.0606  0.4399
 4745TIP3    H135726   2.397   0.988   3.998  0.2140  0.0454  1.0193
 4745TIP3    H235727   2.393   0.916   4.131 -0.7966 -0.4572  0.7267
 4746TIP3   OH235728   3.146   5.824  17.083 -0.0122  0.1023  0.7561
 4746TIP3    H135729   3.167   5.786  17.168  0.3444 -0.4205  0.4414
 4746TIP3    H235730   3.183   5.763  17.019  2.6856  2.0883  0.2066
 4747TIP3   OH235731   5.884   5.212   0.880  0.2147  0.0740 -0.2876
 4747TIP3    H135732   5.851   5.224   0.791  2.3672 -0.5213 -1.2329
 4747TIP3    H235733   5.851   5.127   0.907  0.9359 -0.5250 -1.2274
 4748TIP3   OH235734   0.583   5.760   4.232 -0.1197  0.3496  0.0066
 4748TIP3    H135735   0.548   5.730   4.148  0.4974 -0.5947  0.0717
 4748TIP3    H235736   0.510   5.754   4.293 -0.3014  0.0522 -0.2404
 4749TIP3   OH235737   2.570   6.464  12.688  0.2753  0.0886 -0.0701
 4749TIP3    H135738   2.625   6.498  12.618  2.7704 -2.2768  0.5917
 4749TIP3    H235739   2.579   6.369  12.683  1.5510 -0.2132  4.1038
 4750TIP3   OH235740   0.610   2.042  14.280  0.2778 -0.0486 -0.3799
 4750TIP3    H135741   0.548   1.971  14.265 -1.2335  0.6820  1.7862
 4750TIP3    H235742   0.630   2.037  14.374  3.0415  0.1602 -0.8786
 4751TIP3   OH235743   3.587   0.686  14.756  0.0922 -0.0025 -0.6527
 4751TIP3    H135744   3.630   0.671  14.671 -0.3546 -0.0469 -0.8744
 4751TIP3    H235745   3.514   0.624  14.757 -0.1363  0.2725 -0.4010
 4752TIP3   OH235746   2.545   5.950   2.983 -0.2314 -0.0894 -0.0886
 4752TIP3    H135747   2.515   6.033   2.945  1.2874  0.5721  0.0841
 4752TIP3    H235748   2.465   5.909   3.016 -1.0278  1.3030 -0.1910
 4753TIP3   OH235749   3.956   0.356   0.830 -0.1740 -0.2002 -0.3438
 4753TIP3    H135750   4.006   0.294   0.882 -0.2503 -0.8232 -1.0024
 4753TIP3    H235751   4.016   0.428   0.813  0.5255 -0.9684 -1.1806
 4754TIP3   OH235752   6.686   5.949  10.518 -0.1040  0.0245  0.3987
 4754TIP3    H135753   6.768   5.902  10.531  1.1795  2.2398  0.9270
 4754TIP3    H235754   6.674   5.998  10.599 -0.8873  1.2284 -0.4188
 4755TIP3   OH235755   4.365   3.447  13.753 -0.1757  0.1028 -0.4461
 4755TIP3    H135756   4.407   3.439  13.839 -2.1999  1.1213  0.7242
 4755TIP3    H235757   4.421   3.508  13.705 -0.3666  1.6283  1.1540
 4756TIP3   OH235758   4.866   2.500   5.985 -0.2509  0.2000 -0.2394
 4756TIP3    H135759   4.866   2.454   6.069 -1.0335  0.1685 -0.2445
 4756TIP3    H235760   4.868   2.430   5.920 -2.3788  0.0870 -0.2585
 4757TIP3   OH235761   3.687   5.481  14.828 -0.1385  0.0479 -0.1236
 4757TIP3    H135762   3.715   5.572  14.842  0.3627  0.1852 -1.7808
 4757TIP3    H235763   3.768   5.430  14.834 -0.3158 -0.2037  0.1381
 4758TIP3   OH235764   5.940   2.321   2.210 -0.4695  0.1684  0.0638
 4758TIP3    H135765   5.976   2.408   2.194 -1.1319  0.3363 -0.5494
 4758TIP3    H235766   5.922   2.286   2.122  1.9479 -1.5371  0.1266
 4759TIP3   OH235767   0.734   4.989   3.760  0.3407 -0.1248  0.5900
 4759TIP3    H135768   0.737   4.900   3.795 -0.7694  0.7291  3.1112
 4759TIP3    H235769   0.826   5.018   3.759  1.0427 -1.9954 -2.5656
 4760TIP3   OH235770   5.399   5.355  12.303 -0.3840  0.8351 -0.5637
 4760TIP3    H135771   5.450   5.431  12.330  1.0973 -1.4218  3.9755
 4760TIP3    H235772   5.464   5.295  12.265 -1.6935  1.9259 -5.1892
 4761TIP3   OH235773   1.522   4.596   5.718  0.1335 -0.0164  0.4368
 4761TIP3    H135774   1.579   4.539   5.768 -0.8634 -0.2766  1.3063
 4761TIP3    H235775   1.478   4.650   5.784 -0.4445  0.3416 -0.2266
 4762TIP3   OH235776   4.940   2.629   3.925  0.3243 -0.7137 -0.5131
 4762TIP3    H135777   5.023   2.615   3.970  0.5115 -1.6598 -1.1346
 4762TIP3    H235778   4.898   2.700   3.974  1.3212 -0.4884  0.0359
 4763TIP3   OH235779   1.063   4.524   4.164  0.1206 -0.5607 -0.0003
 4763TIP3    H135780   1.142   4.522   4.218 -1.1735  1.9899  2.2448
 4763TIP3    H235781   1.095   4.541   4.075  2.1077  0.0115  0.7681
 4764TIP3   OH235782   1.072   6.259  12.258  0.0944 -0.4335  0.5916
 4764TIP3    H135783   1.121   6.261  12.341 -0.1461 -0.0455  0.7272
 4764TIP3    H235784   1.025   6.342  12.256  1.6531  0.4842 -0.8768
 4765TIP3   OH235785   1.774   4.409   4.461 -0.3096 -0.4848 -0.0919
 4765TIP3    H135786   1.733   4.351   4.525 -0.8203 -0.8455 -0.7206
 4765TIP3    H235787   1.700   4.443   4.410  0.0652 -0.0016 -0.3144
 4766TIP3   OH235788   1.526   5.747   1.692  0.5570  0.2795 -0.1884
 4766TIP3    H135789   1.476   5.824   1.721 -0.4525 -0.2016 -0.6109
 4766TIP3    H235790   1.462   5.694   1.644  1.6811  0.0566 -1.4779
 4767TIP3   OH235791   3.234   6.577  14.916  0.2330  0.2423 -0.4037
 4767TIP3    H135792   3.191   6.520  14.980  2.5278 -0.6238  0.4937
 4767TIP3    H235793   3.172   6.648  14.901 -0.0783  1.0198  3.5446
 4768TIP3   OH235794   5.845   0.167  15.887  0.1919  0.1423 -0.3620
 4768TIP3    H135795   5.913   0.104  15.865 -0.0483  0.6177 -2.8199
 4768TIP3    H235796   5.766   0.132  15.846 -0.1025  1.6388 -1.1602
 4769TIP3   OH235797   1.814   0.622  11.172  0.4897 -0.4442  0.2615
 4769TIP3    H135798   1.724   0.650  11.160  0.4032 -0.9484 -0.2808
 4769TIP3    H235799   1.860   0.650  11.093  0.6656 -0.7523  0.2490
 4770TIP3   OH235800   0.246   4.541   5.210 -0.5798  0.1234 -0.3976
 4770TIP3    H135801   0.176   4.567   5.269 -0.9354 -1.4300 -0.0986
 4770TIP3    H235802   0.326   4.568   5.255 -0.9346  0.9821 -0.2663
 4771TIP3   OH235803   4.742   5.056   1.043  0.0231  0.3138  0.2407
 4771TIP3    H135804   4.699   5.140   1.028  0.7532  0.6579  0.0466
 4771TIP3    H235805   4.827   5.078   1.082 -0.0695 -0.3687  0.8624
 4772TIP3   OH235806   0.419   5.254   5.459 -0.0137 -0.4150 -0.0851
 4772TIP3    H135807   0.497   5.198   5.459  0.2966 -0.0298 -1.7628
 4772TIP3    H235808   0.352   5.200   5.502  1.0854 -0.8363  1.1920
 4773TIP3   OH235809   5.621   3.693   0.293  0.1150 -0.0470  0.1173
 4773TIP3    H135810   5.599   3.786   0.285 -0.7381 -0.2659 -0.2892
 4773TIP3    H235811   5.578   3.652   0.217 -0.6801 -0.9597  1.0290
 4774TIP3   OH235812   3.336   5.144   1.243 -0.0075 -0.0142 -0.0858
 4774TIP3    H135813   3.360   5.155   1.335 -0.9702 -3.1148  0.6575
 4774TIP3    H235814   3.415   5.111   1.201 -0.7371 -3.3231  0.8187
 4775TIP3   OH235815   2.059   6.176   5.006 -0.6390 -0.4177  0.5056
 4775TIP3    H135816   2.079   6.154   5.097 -2.5818  0.5328  1.2256
 4775TIP3    H235817   2.046   6.092   4.963 -2.5738 -0.8658  1.8528
 4776TIP3   OH235818   2.379   4.654   4.564  0.6131  0.1500 -0.1112
 4776TIP3    H135819   2.466   4.636   4.530  0.8027  1.3574 -0.2836
 4776TIP3    H235820   2.328   4.684   4.489  0.5578  1.1766  0.3196
 4777TIP3   OH235821   0.760   2.788   2.264 -0.3390  0.0010 -0.0280
 4777TIP3    H135822   0.729   2.719   2.205 -0.5484 -0.2460  0.3657
 4777TIP3    H235823   0.786   2.741   2.343  2.2438  0.0415 -0.7650
 4778TIP3   OH235824   2.746   1.342  11.547 -0.0638  0.0201  0.3581
 4778TIP3    H135825   2.679   1.410  11.548 -0.5834 -0.4817  1.0852
 4778TIP3    H235826   2.704   1.268  11.503  0.7250  0.3638 -1.0442
 4779TIP3   OH235827   6.015   2.147  12.630 -0.4777  0.8237  0.0379
 4779TIP3    H135828   6.082   2.212  12.651  2.0668 -1.4460 -0.6298
 4779TIP3    H235829   6.013   2.144  12.535 -1.4480  0.7201  0.0501
 4780TIP3   OH235830   2.792   2.629   0.946 -0.3863  0.2226  0.2497
 4780TIP3    H135831   2.818   2.697   0.884 -0.5816  0.9358  0.9397
 4780TIP3    H235832   2.863   2.626   1.010 -1.4561  1.4647  1.5618
 4781TIP3   OH235833   5.719   6.160   3.844 -0.3064 -0.0569  0.5329
 4781TIP3    H135834   5.672   6.195   3.769  0.8589  0.5811  0.0683
 4781TIP3    H235835   5.652   6.115   3.896 -1.2910  0.2770 -0.4118
 4782TIP3   OH235836   6.273   6.013  11.258 -0.3684 -0.2379 -0.1050
 4782TIP3    H135837   6.269   5.941  11.195  1.7895 -0.5036 -0.0132
 4782TIP3    H235838   6.362   6.010  11.292 -1.4398 -0.1268  3.0382
 4783TIP3   OH235839   5.113   0.809   3.925 -0.3844 -0.1214  0.0811
 4783TIP3    H135840   5.073   0.784   4.008 -1.4851 -0.8744 -0.6427
 4783TIP3    H235841   5.063   0.760   3.859 -0.1149  1.1228 -1.0915
 4784TIP3   OH235842   0.748   1.411   2.269  0.3261 -0.5786  0.1175
 4784TIP3    H135843   0.666   1.433   2.313  1.1409  0.6919  1.0953
 4784TIP3    H235844   0.730   1.329   2.223 -1.2074 -0.8226  1.0809
 4785TIP3   OH235845   4.847   1.130   3.803 -0.2647  0.1098 -0.2704
 4785TIP3    H135846   4.908   1.089   3.742 -0.3056  0.1447 -0.3352
 4785TIP3    H235847   4.802   1.057   3.845  3.1070 -0.2973  3.3353
 4786TIP3   OH235848   1.739   5.523   6.459 -0.1311 -0.1396  0.1289
 4786TIP3    H135849   1.737   5.615   6.485  1.1647  0.2319 -0.9276
 4786TIP3    H235850   1.648   5.496   6.457 -0.4455  0.7096  1.8263
 4787TIP3   OH235851   0.800   3.709  14.951  0.0099  0.4114  0.3701
 4787TIP3    H135852   0.882   3.758  14.944  0.7446 -0.5878  1.5587
 4787TIP3    H235853   0.735   3.775  14.974  0.3532  1.3072 -1.0924
 4788TIP3   OH235854   1.189   3.011   0.410  0.7566 -0.0891  0.4052
 4788TIP3    H135855   1.259   2.946   0.402 -0.0548 -0.9763  0.2958
 4788TIP3    H235856   1.127   2.972   0.472 -0.4712 -0.0978 -0.7746
 4789TIP3   OH235857   5.810   3.777  11.531 -0.1845  0.2106 -1.0734
 4789TIP3    H135858   5.889   3.830  11.527  0.7807 -1.0154  0.3298
 4789TIP3    H235859   5.838   3.690  11.501 -0.7254 -0.4813  0.3190
 4790TIP3   OH235860   3.389   5.905  14.869 -0.2457  0.1126  0.5798
 4790TIP3    H135861   3.462   5.924  14.928  1.7694  1.5432 -2.1462
 4790TIP3    H235862   3.406   5.816  14.838 -1.4186 -0.7198  2.1759
 4791TIP3   OH235863   6.167   4.390   5.784 -0.0660 -0.4776  0.1479
 4791TIP3    H135864   6.236   4.420   5.724  0.3202 -0.6966  0.4795
 4791TIP3    H235865   6.099   4.457   5.776 -0.6911 -1.2733 -1.6708
 4792TIP3   OH235866   6.288   0.435  15.118 -0.0194  0.2144 -0.6805
 4792TIP3    H135867   6.248   0.512  15.079 -0.2115 -0.3219 -1.5679
 4792TIP3    H235868   6.325   0.466  15.201 -0.5840  1.1270 -0.7625
 4793TIP3   OH235869   1.228   5.320   5.644  0.0062 -0.6777  0.0472
 4793TIP3    H135870   1.140   5.338   5.678 -0.8853 -1.8113 -1.5320
 4793TIP3    H235871   1.265   5.257   5.705 -0.0975  0.0959  0.9404
 4794TIP3   OH235872   2.554   4.248  17.068  0.2189  0.2044 -0.6136
 4794TIP3    H135873   2.622   4.194  17.028  0.5183  0.3691 -0.3262
 4794TIP3    H235874   2.473   4.220  17.025  0.3496 -0.5703 -0.3747
 4795TIP3   OH235875   0.076   2.322   2.319  0.2808  0.0683  0.1378
 4795TIP3    H135876   0.071   2.239   2.367 -0.3105 -0.5776 -1.0202
 4795TIP3    H235877   0.126   2.302   2.240  1.0400  1.0711  0.3401
 4796TIP3   OH235878   0.221   0.153  11.649  0.2396 -0.4641 -0.0718
 4796TIP3    H135879   0.254   0.201  11.573  2.5121 -2.7971 -0.7166
 4796TIP3    H235880   0.299   0.124  11.695 -1.0502 -1.5004  1.6063
 4797TIP3   OH235881   2.454   0.826  14.386 -0.2567  0.0990  0.2654
 4797TIP3    H135882   2.471   0.739  14.350 -0.7179 -0.3301  1.0385
 4797TIP3    H235883   2.406   0.872  14.317  0.1409 -0.1970 -0.2144
 4798TIP3   OH235884   1.517   1.449   3.434  0.4100  0.4449  0.1347
 4798TIP3    H135885   1.593   1.391   3.447  0.0760 -0.1660 -0.5766
 4798TIP3    H235886   1.518   1.506   3.511  2.0750  0.9984 -0.2524
 4799TIP3   OH235887   0.991   3.926   4.647  0.5929  0.4756  0.2495
 4799TIP3    H135888   1.023   4.012   4.675  1.7211 -0.0166  0.5338
 4799TIP3    H235889   1.035   3.865   4.706  0.0867 -0.3220 -0.1939
 4800TIP3   OH235890   5.512   4.151   0.703  0.4843 -0.2390  0.0541
 4800TIP3    H135891   5.538   4.234   0.742  0.7226 -0.2361 -0.1090
 4800TIP3    H235892   5.493   4.172   0.611  0.8207 -0.4157 -0.0570
 4801TIP3   OH235893   4.001   6.429   3.187 -0.0154  0.4626  0.0396
 4801TIP3    H135894   3.970   6.370   3.119  1.5912  1.6300 -1.8115
 4801TIP3    H235895   3.984   6.382   3.269  0.7057 -2.3274 -1.2816
 4802TIP3   OH235896   2.408   6.533   1.980 -0.2719 -0.1155  0.2329
 4802TIP3    H135897   2.348   6.459   1.982  0.2438 -0.7975 -3.4418
 4802TIP3    H235898   2.487   6.501   2.023 -0.1106 -1.7336 -1.1459
 4803TIP3   OH235899   1.019   5.223  10.557 -0.0771 -0.0632 -0.1816
 4803TIP3    H135900   0.971   5.142  10.545 -2.0787  0.9137  0.8375
 4803TIP3    H235901   0.977   5.266  10.631  0.7088  2.0664 -0.8839
 4804TIP3   OH235902   1.736   2.085  11.525 -0.0001  0.0726 -0.1593
 4804TIP3    H135903   1.829   2.069  11.542  0.2652  0.8622 -0.8249
 4804TIP3    H235904   1.722   2.054  11.436 -0.3441  0.0964 -0.1143
 4805TIP3   OH235905   3.948   0.133   1.138  0.5233  0.1833 -0.1438
 4805TIP3    H135906   3.876   0.104   1.195  0.5673 -0.5278 -0.4310
 4805TIP3    H235907   3.947   0.228   1.144 -0.5445  0.1988 -0.2556
 4806TIP3   OH235908   1.615   2.332   5.188 -0.0090  0.1228 -0.3118
 4806TIP3    H135909   1.554   2.400   5.160  0.9674  0.1981 -2.4468
 4806TIP3    H235910   1.587   2.254   5.140  2.2420  0.4668 -2.3721
 4807TIP3   OH235911   6.184   5.434   5.648  0.1947  0.3741 -0.3289
 4807TIP3    H135912   6.264   5.385   5.627 -0.7212 -1.0304 -0.7355
 4807TIP3    H235913   6.161   5.478   5.566  0.8781  1.3131 -0.0344
 4808TIP3   OH235914   1.425   2.326  17.020  0.0228  0.7066 -0.0001
 4808TIP3    H135915   1.378   2.387  17.077 -1.3575 -0.7059  0.4515
 4808TIP3    H235916   1.394   2.346  16.932 -0.6061  0.5221  0.1754
 4809TIP3   OH235917   3.444   4.225  13.660 -0.2581 -0.0610  0.1593
 4809TIP3    H135918   3.472   4.205  13.749  0.4307 -1.2439 -0.2949
 4809TIP3    H235919   3.418   4.141  13.623 -2.2762  0.6614 -0.2001
 4810TIP3   OH235920   1.018   4.178   0.936 -0.1494  0.0419  0.1967
 4810TIP3    H135921   1.091   4.231   0.906 -0.2950  0.7627  1.0697
 4810TIP3    H235922   1.056   4.092   0.953  0.5663  0.4787  0.8946
 4811TIP3   OH235923   0.116   5.295   2.655  0.2138  0.2710  0.4371
 4811TIP3    H135924   0.050   5.228   2.672 -1.3056  1.5790  0.0029
 4811TIP3    H235925   0.158   5.267   2.574 -1.9261  0.8863 -0.9781
 4812TIP3   OH235926   3.975   1.538  13.885 -0.1951 -0.2968  0.3746
 4812TIP3    H135927   4.052   1.501  13.928  0.7706 -0.1285 -1.1321
 4812TIP3    H235928   3.905   1.475  13.901  1.4305 -3.0416 -2.2699
 4813TIP3   OH235929   5.037   6.695   5.374  0.4968  0.0349  0.5178
 4813TIP3    H135930   5.127   6.662   5.377  0.3025 -0.4976  0.8485
 4813TIP3    H235931   5.008   6.691   5.465  0.1681  0.2873  0.4236
 4814TIP3   OH235932   6.767   3.225  14.826 -0.4037 -0.3447  0.2009
 4814TIP3    H135933   6.727   3.311  14.835  0.0595 -0.1692  0.6317
 4814TIP3    H235934   6.779   3.195  14.916  0.2174 -0.4914  0.0708
 4815TIP3   OH235935   0.652   2.445   4.286  0.1912 -0.0047  0.3490
 4815TIP3    H135936   0.687   2.391   4.357 -0.4955  0.7236  1.2816
 4815TIP3    H235937   0.683   2.533   4.306 -4.4575  1.3751  3.0491
 4816TIP3   OH235938   6.674   0.600   4.861  0.5713  0.4212  0.0724
 4816TIP3    H135939   6.602   0.565   4.809  0.5439  0.3166  0.1807
 4816TIP3    H235940   6.740   0.531   4.861  0.0808 -0.0582  1.1729
 4817TIP3   OH235941   5.470   2.270  15.400  0.4935 -0.2221  0.1092
 4817TIP3    H135942   5.492   2.188  15.356  4.2871  0.1808  0.9375
 4817TIP3    H235943   5.473   2.335  15.330 -1.7136 -0.5541 -0.3908
 4818TIP3   OH235944   6.063   5.310  12.032 -0.2414  0.1751  0.2381
 4818TIP3    H135945   6.007   5.344  11.961 -1.6373  0.4174  1.4117
 4818TIP3    H235946   6.152   5.325  12.000 -0.8073 -0.3123 -1.7520
 4819TIP3   OH235947   1.040   5.398  12.851 -0.2215 -0.4385 -0.1754
 4819TIP3    H135948   1.050   5.366  12.940 -0.1436  0.5591  0.1882
 4819TIP3    H235949   1.127   5.392  12.813 -0.0422  0.0595  0.1463
 4820TIP3   OH235950   1.822   4.144  11.880  0.1367  0.2536  0.0306
 4820TIP3    H135951   1.791   4.235  11.882  1.9201  0.8890  0.8525
 4820TIP3    H235952   1.791   4.110  11.796 -2.4172  0.8995  0.6235
 4821TIP3   OH235953   2.324   2.730   2.750  0.0476  0.3144  0.2134
 4821TIP3    H135954   2.399   2.673   2.769 -0.9794 -1.4657 -0.7874
 4821TIP3    H235955   2.266   2.719   2.825  0.3324  0.9333  0.5324
 4822TIP3   OH235956   1.701   6.773   3.935  0.0805  0.2348  0.2370
 4822TIP3    H135957   1.691   6.784   3.840  0.0514  0.3888  0.2571
 4822TIP3    H235958   1.665   6.686   3.953 -0.5688  0.4917  0.2039
 4823TIP3   OH235959   4.621   4.628  11.044 -0.3154 -0.5415  0.3117
 4823TIP3    H135960   4.608   4.625  11.139 -1.2038  0.7217  0.2664
 4823TIP3    H235961   4.547   4.578  11.009 -1.1689  0.6869  0.2625
 4824TIP3   OH235962   0.865   6.492  12.558  0.0354 -0.3228  0.5375
 4824TIP3    H135963   0.834   6.507  12.648 -3.4333 -1.2719 -0.3579
 4824TIP3    H235964   0.917   6.412  12.564 -1.3234 -1.1777  1.5225
 4825TIP3   OH235965   2.977   2.533   4.750  0.4962 -0.1508 -0.0111
 4825TIP3    H135966   3.029   2.587   4.809  1.4885 -1.8788  0.7879
 4825TIP3    H235967   3.027   2.530   4.668  0.7833 -0.3777  0.1690
 4826TIP3   OH235968   3.154   4.268   1.881 -0.0953 -0.0344 -0.4035
 4826TIP3    H135969   3.246   4.267   1.853  0.5836 -1.6783  1.5835
 4826TIP3    H235970   3.154   4.217   1.962 -2.2021  2.6538  1.4688
 4827TIP3   OH235971   4.549   0.871  14.157 -0.1427 -0.1233 -0.1035
 4827TIP3    H135972   4.458   0.898  14.148  0.4445  2.3046  0.5409
 4827TIP3    H235973   4.547   0.776  14.144 -2.7023 -0.1081 -0.3602
 4828TIP3   OH235974   5.277   3.377  13.770 -0.0072 -0.1097  0.0326
 4828TIP3    H135975   5.306   3.429  13.695 -0.6618  1.7543  0.9802
 4828TIP3    H235976   5.293   3.434  13.846 -0.8377 -1.2870  1.1387
 4829TIP3   OH235977   1.924   1.976   2.618  0.3253  0.9043  0.0103
 4829TIP3    H135978   1.972   1.894   2.632  0.0549  0.6827 -0.3349
 4829TIP3    H235979   1.990   2.036   2.583  0.2117  0.4037 -1.0919
 4830TIP3   OH235980   1.285   6.364   4.309 -0.4276 -0.7496  0.8583
 4830TIP3    H135981   1.220   6.434   4.300  0.3618  0.0156  0.9434
 4830TIP3    H235982   1.306   6.340   4.219  2.6947  2.3996  0.5183
 4831TIP3   OH235983   3.458   4.972   3.632  0.1796  0.6823  0.0772
 4831TIP3    H135984   3.421   4.980   3.544 -0.1937 -0.0967  0.1517
 4831TIP3    H235985   3.553   4.980   3.619  0.2332 -0.6983 -0.5886
 4832TIP3   OH235986   6.338   6.478   0.608 -0.2145 -0.3377  0.0446
 4832TIP3    H135987   6.344   6.520   0.694  0.3404 -0.6247  0.1591
 4832TIP3    H235988   6.344   6.384   0.628 -1.9900 -0.5117 -0.1562
 4833TIP3   OH235989   1.503   6.457  16.216  0.8705 -0.2484 -0.1870
 4833TIP3    H135990   1.445   6.453  16.140  0.9709 -2.2491 -0.2259
 4833TIP3    H235991   1.447   6.437  16.291  0.6849  2.1406  0.3841
 4834TIP3   OH235992   0.116   1.244   2.936 -1.0931  0.1488 -0.0537
 4834TIP3    H135993   0.100   1.183   2.864  0.0615  1.6256 -1.6375
 4834TIP3    H235994   0.211   1.246   2.947 -1.2054  0.4690  1.0690
 4835TIP3   OH235995   5.330   2.866   4.933 -0.2198 -0.0667 -0.1103
 4835TIP3    H135996   5.243   2.828   4.945  0.0277 -0.1791  1.4324
 4835TIP3    H235997   5.391   2.794   4.949  0.2184  0.6780  1.8219
 4836TIP3   OH235998   6.444   2.967   2.753 -0.2641  0.2608  0.3959
 4836TIP3    H135999   6.446   3.056   2.718 -0.1777  0.6264  1.3034
 4836TIP3    H236000   6.362   2.962   2.802 -0.0681 -0.0191  0.6963
 4837TIP3   OH236001   0.817   3.134  14.002  0.1999 -0.5604  0.6172
 4837TIP3    H136002   0.772   3.161  13.922  1.2323 -3.0019 -0.8980
 4837TIP3    H236003   0.748   3.102  14.059 -0.2878 -2.0544 -0.7348
 4838TIP3   OH236004   0.505   3.254  11.818  0.1832 -0.2844 -0.0180
 4838TIP3    H136005   0.581   3.202  11.844  0.2556 -0.8919 -1.3985
 4838TIP3    H236006   0.518   3.338  11.863  1.0523 -0.7737  0.7002
 4839TIP3   OH236007   6.157   2.113   5.285  1.1502  0.3019  0.8236
 4839TIP3    H136008   6.087   2.099   5.222  1.5048  1.5277  0.1406
 4839TIP3    H236009   6.205   2.030   5.287  0.7052  0.0242  0.0262
 4840TIP3   OH236010   0.201   4.516   1.609 -0.4047  0.2485 -0.2913
 4840TIP3    H136011   0.140   4.443   1.624  0.2112  0.2440  2.9348
 4840TIP3    H236012   0.270   4.478   1.555 -0.7468 -1.1972  0.2271
 4841TIP3   OH236013   2.325   6.290  12.096  0.6909 -0.1664 -0.0067
 4841TIP3    H136014   2.277   6.302  12.178  0.0014 -0.3851 -0.3689
 4841TIP3    H236015   2.283   6.214  12.055  1.3284 -0.3411 -0.3527
 4842TIP3   OH236016   5.877   0.787  12.288  0.3946 -0.3477 -0.5432
 4842TIP3    H136017   5.872   0.790  12.193  1.3105 -0.4000 -0.5998
 4842TIP3    H236018   5.889   0.878  12.315 -0.7244 -0.2217 -0.4087
 4843TIP3   OH236019   3.078   3.479   2.770  0.2492  0.1616 -0.1430
 4843TIP3    H136020   3.050   3.463   2.860 -0.6019  0.0419 -0.4128
 4843TIP3    H236021   3.006   3.444   2.717  0.0277  1.5778 -0.8245
 4844TIP3   OH236022   1.440   1.530  14.944 -0.0261 -0.1622 -0.3237
 4844TIP3    H136023   1.364   1.505  14.892 -0.4115 -1.6681  0.8751
 4844TIP3    H236024   1.503   1.459  14.930  0.8304  0.6413 -0.6355
 4845TIP3   OH236025   6.738   2.243  13.107  0.3148  0.4027  0.2447
 4845TIP3    H136026   6.730   2.150  13.129 -2.0600  0.8130  1.3962
 4845TIP3    H236027   6.718   2.248  13.014  1.5458 -0.3431 -0.0776
 4846TIP3   OH236028   6.472   2.906   4.102  0.7307 -0.1111 -0.0811
 4846TIP3    H136029   6.514   2.877   4.182  0.1027 -0.2230  0.2168
 4846TIP3    H236030   6.424   2.985   4.127  1.6814  0.6837 -0.6774
 4847TIP3   OH236031   4.552   6.120   0.237  0.4785  0.3288  0.1837
 4847TIP3    H136032   4.477   6.153   0.186  1.1259 -0.5505 -1.3831
 4847TIP3    H236033   4.514   6.094   0.321 -1.5395 -2.5501 -1.4421
 4848TIP3   OH236034   2.688   5.745  15.076  0.4115 -0.2746  0.0018
 4848TIP3    H136035   2.726   5.809  15.136  0.7991 -1.1351  0.6873
 4848TIP3    H236036   2.755   5.733  15.009  0.5553 -0.3510  0.1572
 4849TIP3   OH236037   2.923   0.974   0.376  0.1005 -0.2339  0.9197
 4849TIP3    H136038   2.966   1.056   0.400  1.9970 -0.4198 -1.4741
 4849TIP3    H236039   2.961   0.909   0.435  1.7296 -0.0462  0.1254
 4850TIP3   OH236040   2.715   2.923   2.684  0.1485 -0.6255 -0.6964
 4850TIP3    H136041   2.686   2.838   2.650  0.8170 -1.3527  0.4629
 4850TIP3    H236042   2.803   2.935   2.647  0.8503 -1.3876  0.6581
 4851TIP3   OH236043   4.298   0.302   5.182 -0.4823  0.5252 -0.1305
 4851TIP3    H136044   4.271   0.254   5.260 -1.6433 -0.0084 -0.8184
 4851TIP3    H236045   4.330   0.386   5.214 -0.2840  0.0437  0.9603
 4852TIP3   OH236046   0.491   6.186  14.668  0.3787  0.2115  0.0310
 4852TIP3    H136047   0.396   6.175  14.678  0.5415 -1.2603  0.1660
 4852TIP3    H236048   0.503   6.280  14.654 -0.9117  0.7129  1.9219
 4853TIP3   OH236049   6.131   3.315  11.216 -0.0373  0.2771  0.3994
 4853TIP3    H136050   6.098   3.401  11.188 -0.4180  0.1466  0.4374
 4853TIP3    H236051   6.169   3.277  11.137 -2.2744 -0.6454 -0.3352
 4854TIP3   OH236052   1.546   1.663  13.975 -0.2693 -0.2118  0.3682
 4854TIP3    H136053   1.491   1.740  13.985  0.6790  0.4759  0.3656
 4854TIP3    H236054   1.629   1.687  14.015 -0.0411 -1.3318  0.6197
 4855TIP3   OH236055   6.239   0.238  14.252  0.0294  0.2381  0.1508
 4855TIP3    H136056   6.291   0.177  14.201 -0.1449 -0.1959  0.4912
 4855TIP3    H236057   6.151   0.200  14.253 -0.0194  0.3569  0.5849
 4856TIP3   OH236058   2.082   0.684  15.709  0.5075 -0.2999 -0.0339
 4856TIP3    H136059   2.007   0.627  15.692  1.9215 -1.6464 -2.1875
 4856TIP3    H236060   2.044   0.771  15.720 -1.3950 -1.0017 -0.6500
 4857TIP3   OH236061   2.671   1.599   5.477  0.5191 -0.3357  0.6240
 4857TIP3    H136062   2.607   1.548   5.427  0.0216  0.3752  0.5227
 4857TIP3    H236063   2.695   1.671   5.419 -0.7027  0.9940  1.6875
 4858TIP3   OH236064   2.939   5.537  12.317 -0.4288 -0.1944 -0.4586
 4858TIP3    H136065   2.915   5.446  12.337  0.5815 -0.2850  0.4606
 4858TIP3    H236066   2.944   5.580  12.403 -0.7392  0.6926 -0.8709
 4859TIP3   OH236067   5.610   1.963  16.609 -0.3265  0.1666 -0.1354
 4859TIP3    H136068   5.613   1.878  16.654 -1.0941  0.0384 -0.3100
 4859TIP3    H236069   5.654   1.947  16.525 -1.2944 -0.3206 -0.5656
 4860TIP3   OH236070   1.932   5.057  15.588 -0.0588  0.1937 -0.9474
 4860TIP3    H136071   1.939   5.000  15.511 -0.8735  0.2817 -1.0955
 4860TIP3    H236072   1.982   5.135  15.565 -1.0744  0.6200 -1.7730
 4861TIP3   OH236073   6.788   4.458   2.471  0.0596  0.2142  0.2957
 4861TIP3    H136074   6.781   4.436   2.378  0.5611 -1.1562  0.5665
 4861TIP3    H236075   6.882   4.465   2.486 -0.0480  1.2262  0.5329
 4862TIP3   OH236076   3.928   3.888  15.855  0.1404 -0.2226  0.2528
 4862TIP3    H136077   3.985   3.946  15.906  1.1632 -1.2262  0.2855
 4862TIP3    H236078   3.843   3.932  15.855  0.9906  1.5066 -0.1163
 4863TIP3   OH236079   1.623   2.371  13.183  0.6882  0.1179 -0.5365
 4863TIP3    H136080   1.631   2.318  13.263  0.8576 -0.0369 -0.6569
 4863TIP3    H236081   1.576   2.449  13.212  0.7191  0.0480 -0.2899
 4864TIP3   OH236082   1.594   1.799  14.642  0.0172  0.1483 -0.2121
 4864TIP3    H136083   1.567   1.882  14.605  0.9185  0.4347 -0.2588
 4864TIP3    H236084   1.617   1.819  14.733 -0.7997 -0.2687  0.1002
 4865TIP3   OH236085   6.078   5.294  14.477 -0.0895  0.1561  0.0303
 4865TIP3    H136086   6.130   5.317  14.555  1.5800 -0.6286 -0.7986
 4865TIP3    H236087   6.120   5.341  14.405 -0.6508 -0.3434 -0.6437
 4866TIP3   OH236088   6.584   0.166  14.279 -0.2866 -0.2020 -0.1049
 4866TIP3    H136089   6.655   0.153  14.342  0.8916 -0.7661 -1.4994
 4866TIP3    H236090   6.621   0.224  14.213  0.3878 -3.5384 -2.9913
 4867TIP3   OH236091   1.557   3.539   4.175  0.9238 -0.2452  0.4375
 4867TIP3    H136092   1.593   3.623   4.145  1.5755  0.6944  3.4173
 4867TIP3    H236093   1.463   3.555   4.183  1.0284  0.1982  0.8659
 4868TIP3   OH236094   5.692   4.832  12.993  0.9311  0.3091 -0.2453
 4868TIP3    H136095   5.713   4.912  13.040  0.6541  1.4274 -1.9361
 4868TIP3    H236096   5.774   4.783  12.990  0.7664 -0.1949  2.0526
 4869TIP3   OH236097   2.464   3.824   4.525  0.5057  0.1154  0.0656
 4869TIP3    H136098   2.508   3.897   4.484  0.1330  0.5815  0.4833
 4869TIP3    H236099   2.373   3.851   4.532  0.3780 -0.3521  0.3011
 4870TIP3   OH236100   5.158   2.561   5.492 -0.0409  0.2012 -0.3131
 4870TIP3    H136101   5.169   2.656   5.494  0.5262  0.1335  1.3931
 4870TIP3    H236102   5.246   2.526   5.501 -0.2156 -0.5105 -1.2132
 4871TIP3   OH236103   5.469   2.387   0.284  0.5960 -0.2182 -0.6725
 4871TIP3    H136104   5.499   2.434   0.361  2.0867  2.4055 -2.6807
 4871TIP3    H236105   5.376   2.372   0.300  0.7712  0.5971  1.4194
 4872TIP3   OH236106   0.472   4.208   6.346 -0.7967 -0.2010 -0.2574
 4872TIP3    H136107   0.503   4.269   6.413 -0.7973 -1.2382  0.7068
 4872TIP3    H236108   0.437   4.265   6.277 -0.5398  0.8936  0.4819
 4873TIP3   OH236109   6.581   6.019  13.313 -0.0464 -0.2004 -0.1956
 4873TIP3    H136110   6.626   5.977  13.387  1.2940 -1.3001 -1.5878
 4873TIP3    H236111   6.651   6.048  13.255 -1.0480  1.4787 -0.6547
 4874TIP3   OH236112   4.533   3.559  11.799 -0.5674  0.5323  0.0653
 4874TIP3    H136113   4.439   3.566  11.783 -0.9931  0.8054  2.3529
 4874TIP3    H236114   4.540   3.511  11.882  1.2969  0.6163 -0.0101
 4875TIP3   OH236115   1.593   0.340  14.613  0.3699  0.2740  0.0523
 4875TIP3    H136116   1.598   0.434  14.634  0.2234 -0.1033  1.9509
 4875TIP3    H236117   1.684   0.311  14.613  0.3204  0.0698  1.3083
 4876TIP3   OH236118   0.477   3.669  13.480  0.1753 -0.4257 -0.4121
 4876TIP3    H136119   0.420   3.594  13.465 -1.3495  0.4609  0.6705
 4876TIP3    H236120   0.547   3.635  13.535 -0.6629 -0.9993  0.3213
 4877TIP3   OH236121   3.264   2.787   1.640 -0.3484  0.5076  0.1032
 4877TIP3    H136122   3.191   2.729   1.620 -1.4807  2.1975 -0.9396
 4877TIP3    H236123   3.242   2.826   1.725 -0.0400  0.0945  0.3740
 4878TIP3   OH236124   5.475   2.963  10.606 -0.0531  0.3635 -0.2038
 4878TIP3    H136125   5.553   2.985  10.554  1.2469 -2.1677  0.5293
 4878TIP3    H236126   5.423   2.909  10.548  1.1432 -2.0194  0.8251
 4879TIP3   OH236127   0.457   5.792  15.219  0.6238 -0.0733  0.3433
 4879TIP3    H136128   0.419   5.871  15.180  0.3406 -1.4078 -2.3396
 4879TIP3    H236129   0.551   5.799  15.201  0.5460 -0.5141 -0.2500
 4880TIP3   OH236130   3.212   1.602   1.976  0.5951  0.3230  0.0841
 4880TIP3    H136131   3.261   1.524   1.952  0.4331  0.7349 -1.7872
 4880TIP3    H236132   3.166   1.627   1.895  1.3647  2.8578  0.3265
 4881TIP3   OH236133   0.525   5.796  11.046 -0.1557 -0.0301  0.3628
 4881TIP3    H136134   0.454   5.751  11.092 -0.5376 -0.5322 -0.6759
 4881TIP3    H236135   0.605   5.764  11.088 -0.4758 -0.8038  0.4076
 4882TIP3   OH236136   4.506   3.605   0.826 -0.1432  0.2915  0.3082
 4882TIP3    H136137   4.589   3.568   0.855  0.3533  0.9175 -0.2848
 4882TIP3    H236138   4.478   3.547   0.755 -1.3379 -1.2142  1.9266
 4883TIP3   OH236139   0.474   6.378   3.088 -0.0606 -0.0709 -0.6200
 4883TIP3    H136140   0.564   6.399   3.114 -0.1626 -1.2724  0.8398
 4883TIP3    H236141   0.482   6.323   3.011  0.4550 -0.0657 -0.5697
 4884TIP3   OH236142   6.059   5.446  15.650  0.0435 -0.6921  0.2404
 4884TIP3    H136143   6.138   5.420  15.696 -0.2410 -1.2356  0.4251
 4884TIP3    H236144   6.086   5.453  15.558  0.4138 -0.4075  0.3691
 4885TIP3   OH236145   5.466   4.538   5.781 -0.0591  0.1824 -0.1886
 4885TIP3    H136146   5.412   4.471   5.739  1.7911 -1.1332 -0.5916
 4885TIP3    H236147   5.441   4.619   5.736  0.9193 -0.9599 -3.0555
 4886TIP3   OH236148   2.988   3.589   0.814 -0.3072  0.2218  0.0995
 4886TIP3    H136149   2.996   3.494   0.805 -1.1044  0.1448  0.1308
 4886TIP3    H236150   3.027   3.608   0.899 -0.9928 -0.2073  0.5223
 4887TIP3   OH236151   4.203   5.666   6.298  0.0194  0.4718 -0.3764
 4887TIP3    H136152   4.165   5.621   6.223 -0.6647 -3.3713  2.0275
 4887TIP3    H236153   4.296   5.644   6.295 -0.3825 -1.7110  1.0271
 4888TIP3   OH236154   3.239   0.519   0.231 -0.3996  0.4296 -0.3895
 4888TIP3    H136155   3.295   0.442   0.220 -0.1917  0.7150 -1.5477
 4888TIP3    H236156   3.180   0.497   0.302 -0.1525 -0.6892 -0.5162
 4889TIP3   OH236157   0.936   4.016  12.426  0.2725  0.4114 -0.4526
 4889TIP3    H136158   0.976   4.089  12.378  1.8045 -1.0280 -1.4457
 4889TIP3    H236159   0.986   4.010  12.507  0.9044 -0.2379 -0.8815
 4890TIP3   OH236160   5.095   4.613   1.823 -0.7749 -0.2870 -0.3648
 4890TIP3    H136161   5.177   4.661   1.835 -1.2291  0.4833 -0.3150
 4890TIP3    H236162   5.085   4.606   1.728 -0.9815  0.1856 -0.3768
 4891TIP3   OH236163   3.480   3.624  12.136 -0.3432 -0.1773 -0.4365
 4891TIP3    H136164   3.438   3.604  12.053 -1.7376  2.2212 -0.3673
 4891TIP3    H236165   3.456   3.551  12.193 -0.9745 -0.8720 -1.5682
 4892TIP3   OH236166   4.427   5.104   0.658 -0.1112  0.4710  0.0290
 4892TIP3    H136167   4.410   5.099   0.564  0.1890  2.7575 -0.1956
 4892TIP3    H236168   4.343   5.081   0.699 -0.2255 -0.6061 -0.7689
 4893TIP3   OH236169   2.519   0.637  14.149 -0.6804 -0.6492  0.1854
 4893TIP3    H136170   2.427   0.610  14.143 -0.4668 -1.3973  0.2157
 4893TIP3    H236171   2.561   0.596  14.074 -0.4526  0.0691 -0.0881
 4894TIP3   OH236172   6.207   0.850   0.630  0.0995 -0.2486 -0.2301
 4894TIP3    H136173   6.130   0.902   0.650  1.2363  1.6996 -0.7146
 4894TIP3    H236174   6.278   0.891   0.680  1.2075 -0.7921 -1.2899
 4895TIP3   OH236175   5.806   1.433  16.571 -0.0892 -0.3764 -0.7825
 4895TIP3    H136176   5.717   1.410  16.545 -0.3010 -0.9667  0.3956
 4895TIP3    H236177   5.825   1.514  16.524 -0.9996 -0.5853 -1.5402
 4896TIP3   OH236178   1.533   0.408   4.926 -0.1318 -0.1439 -0.2407
 4896TIP3    H136179   1.446   0.411   4.968 -0.4572 -3.3864 -0.4582
 4896TIP3    H236180   1.522   0.461   4.847 -1.6715  0.1718  0.1338
 4897TIP3   OH236181   1.565   4.409   1.241  0.2667  0.0050  0.0352
 4897TIP3    H136182   1.592   4.378   1.154 -0.2843 -0.1696 -0.0779
 4897TIP3    H236183   1.604   4.345   1.301  2.2611  1.1648  0.0801
 4898TIP3   OH236184   2.151   1.399  15.460  0.0482  0.3924  0.2889
 4898TIP3    H136185   2.177   1.477  15.509  0.5966  0.5311 -0.2109
 4898TIP3    H236186   2.208   1.400  15.383 -0.3857 -0.1542 -0.0380
 4899TIP3   OH236187   4.449   4.103   0.760 -0.0904 -0.2882 -0.2425
 4899TIP3    H136188   4.424   4.132   0.672  0.1856  0.4595 -0.0796
 4899TIP3    H236189   4.367   4.099   0.809 -0.2844 -1.0115 -0.6164
 4900TIP3   OH236190   1.918   4.490   1.863  0.3222  0.1148  0.2601
 4900TIP3    H136191   1.872   4.560   1.816  0.2470 -0.4170 -0.4778
 4900TIP3    H236192   1.904   4.510   1.955 -0.5875  0.4916  0.0513
 4901TIP3   OH236193   1.518   3.875   2.122 -0.2712 -0.0443 -0.0222
 4901TIP3    H136194   1.607   3.873   2.087  0.0200 -1.8245  0.7442
 4901TIP3    H236195   1.518   3.810   2.192 -2.3499 -0.5289 -0.4119
 4902TIP3   OH236196   4.399   2.637   0.851  0.9637 -0.0905  0.0856
 4902TIP3    H136197   4.317   2.598   0.880  0.5731 -0.3894 -1.3172
 4902TIP3    H236198   4.421   2.702   0.917 -0.8570  0.6002  0.0489
 4903TIP3   OH236199   4.078   3.542  11.545  0.0362 -0.8365  0.5542
 4903TIP3    H136200   4.146   3.551  11.477 -0.4439  1.8224  0.3023
 4903TIP3    H236201   4.104   3.604  11.613  0.1295 -2.9520  2.5634
 4904TIP3   OH236202   1.133   3.392  10.751  0.5273 -0.1384 -0.2443
 4904TIP3    H136203   1.225   3.416  10.750  0.6997 -0.7621 -2.1545
 4904TIP3    H236204   1.132   3.299  10.727 -0.7097  0.5093 -3.0988
 4905TIP3   OH236205   2.441   5.455  13.436  0.3624 -0.4817  0.1888
 4905TIP3    H136206   2.510   5.430  13.374 -0.2437 -0.3627 -0.5488
 4905TIP3    H236207   2.402   5.372  13.462  1.2387 -0.6097  1.1708
 4906TIP3   OH236208   5.348   2.316   6.009  0.0850 -0.1832 -0.6510
 4906TIP3    H136209   5.341   2.224   6.032  0.5766 -0.2882 -0.9109
 4906TIP3    H236210   5.294   2.361   6.074 -1.5101 -0.7819 -1.5018
 4907TIP3   OH236211   6.710   2.280   1.844 -0.0813  0.3078  0.3853
 4907TIP3    H136212   6.755   2.206   1.803  0.3032 -0.2449  1.7561
 4907TIP3    H236213   6.656   2.317   1.774  0.0458 -1.0052 -0.4356
 4908TIP3   OH236214   4.541   3.203  11.083  0.1090 -0.3208 -0.3892
 4908TIP3    H136215   4.563   3.215  11.175  1.8515 -2.0949 -0.5223
 4908TIP3    H236216   4.601   3.135  11.052 -1.4834 -0.8883 -2.4494
 4909TIP3   OH236217   2.502   4.214  14.597 -0.7608 -0.2169  0.2257
 4909TIP3    H136218   2.515   4.304  14.627  0.1348 -0.5762  0.9556
 4909TIP3    H236219   2.558   4.161  14.654 -0.1272 -1.0807 -1.1269
 4910TIP3   OH236220   4.821   4.515   2.629 -0.6783 -0.6785  1.0068
 4910TIP3    H136221   4.780   4.599   2.647 -0.0958 -0.1076 -0.2662
 4910TIP3    H236222   4.751   4.462   2.590 -1.5914 -1.4907  3.5328
 4911TIP3   OH236223   0.053   3.387  14.477 -0.2375 -0.1653 -0.3459
 4911TIP3    H136224   0.104   3.361  14.400 -1.5016 -0.5672 -1.0886
 4911TIP3    H236225   0.076   3.479  14.491  1.5264 -0.6403  0.0491
 4912TIP3   OH236226   5.805   5.432   6.206 -0.3666 -0.0189 -0.0809
 4912TIP3    H136227   5.781   5.341   6.225 -0.7924 -0.4990 -2.5503
 4912TIP3    H236228   5.898   5.437   6.226 -0.5811 -0.6314  1.2018
 4913TIP3   OH236229   2.285   2.185   2.235  0.1136 -0.4031  0.1057
 4913TIP3    H136230   2.264   2.155   2.147 -0.2309  0.5796 -0.1628
 4913TIP3    H236231   2.380   2.197   2.235  0.1558 -0.7475 -0.0177
 4914TIP3   OH236232   4.373   3.326   4.421  0.3429 -0.4494  0.0319
 4914TIP3    H136233   4.311   3.287   4.359 -0.5323  0.1196  0.5260
 4914TIP3    H236234   4.320   3.384   4.475  1.2824 -0.0928  0.6035
 4915TIP3   OH236235   1.555   1.417   4.345 -0.2295 -0.1154  0.5984
 4915TIP3    H136236   1.535   1.385   4.257 -0.6078  1.4637  0.0803
 4915TIP3    H236237   1.650   1.426   4.347 -0.1920 -0.4746  0.4696
 4916TIP3   OH236238   1.165   4.915  16.271  0.1372  0.2976  0.0359
 4916TIP3    H136239   1.145   4.906  16.364  0.6213 -0.6489  0.0692
 4916TIP3    H236240   1.090   4.961  16.234  1.0749  3.0724  1.3186
 4917TIP3   OH236241   5.358   6.721   6.278  0.4170 -0.2751 -0.5982
 4917TIP3    H136242   5.406   6.699   6.358 -0.2044  0.5812  0.0418
 4917TIP3    H236243   5.316   6.639   6.252 -0.7884 -0.2097  0.9719
 4918TIP3   OH236244   0.388   2.436   0.745 -0.7265 -0.0807 -0.4682
 4918TIP3    H136245   0.354   2.423   0.657  0.2757  1.0021 -1.0309
 4918TIP3    H236246   0.409   2.529   0.750 -0.2684 -0.2263  0.7286
 4919TIP3   OH236247   3.213   3.652  12.269  0.2017 -0.0619  0.3848
 4919TIP3    H136248   3.150   3.627  12.202  1.0226  0.0917 -0.4681
 4919TIP3    H236249   3.276   3.579  12.271  0.0590 -0.1703  1.1534
 4920TIP3   OH236250   5.299   1.991   3.654  0.2261 -0.0933  0.0918
 4920TIP3    H136251   5.359   2.058   3.688  0.1460 -0.9903  2.1222
 4920TIP3    H236252   5.343   1.908   3.671 -0.0791 -0.6340 -1.5835
 4921TIP3   OH236253   4.486   2.761  11.504  0.0113 -0.2448  0.1777
 4921TIP3    H136254   4.514   2.735  11.591  1.0187 -1.1054 -0.3728
 4921TIP3    H236255   4.557   2.732  11.446 -0.4820  0.5873 -0.8893
 4922TIP3   OH236256   6.316   5.467  13.652 -0.4001  0.3551 -0.6831
 4922TIP3    H136257   6.395   5.497  13.607 -0.3404  0.2062 -0.6754
 4922TIP3    H236258   6.245   5.514  13.608 -0.4361 -0.4910 -1.5605
 4923TIP3   OH236259   0.481   2.856   1.162 -0.4054 -0.0313  0.3775
 4923TIP3    H136260   0.503   2.880   1.252 -1.9478 -0.2968  0.8548
 4923TIP3    H236261   0.536   2.913   1.108 -1.2774  1.9582  1.4809
 4924TIP3   OH236262   4.287   3.395  10.976 -0.5258  0.0908 -0.0650
 4924TIP3    H136263   4.261   3.324  10.918 -2.0473  0.2396  0.3647
 4924TIP3    H236264   4.324   3.462  10.918 -1.3624 -0.0525 -0.7849
 4925TIP3   OH236265   3.755   4.268   1.154  0.2573  0.4320  0.8170
 4925TIP3    H136266   3.851   4.273   1.149  0.3514 -1.8508 -1.5977
 4925TIP3    H236267   3.739   4.206   1.225  0.5348  1.0421  1.4264
 4926TIP3   OH236268   2.038   2.748  14.426  0.1965  0.0607  0.7136
 4926TIP3    H136269   2.042   2.805  14.503  0.3807 -0.2522  0.9372
 4926TIP3    H236270   1.945   2.748  14.402  0.2440  0.7263  0.5043
 4927TIP3   OH236271   1.294   4.002  13.268 -0.4399 -0.1231  0.9045
 4927TIP3    H136272   1.256   3.977  13.352 -0.1701  0.2895  1.1517
 4927TIP3    H236273   1.353   3.930  13.246 -0.5399 -0.2498  1.0504
 4928TIP3   OH236274   2.642   5.252  11.725 -0.0083  0.3073 -0.3283
 4928TIP3    H136275   2.550   5.226  11.726  0.4266 -1.4682  1.5032
 4928TIP3    H236276   2.670   5.240  11.634 -1.3024 -0.2966 -0.6612
 4929TIP3   OH236277   3.233   6.151  12.799 -0.7561 -0.3126  0.0552
 4929TIP3    H136278   3.194   6.198  12.726 -0.4057  0.6294  0.4584
 4929TIP3    H236279   3.276   6.076  12.759  0.4669  0.8304 -0.8734
 4930TIP3   OH236280   1.132   0.349   1.728  0.4497  0.7263  0.4793
 4930TIP3    H136281   1.204   0.333   1.790  0.1087  1.2424  1.0138
 4930TIP3    H236282   1.084   0.423   1.765  0.9590  1.8904 -1.0244
 4931TIP3   OH236283   3.872   0.286  16.621  0.5064  0.2755 -0.1996
 4931TIP3    H136284   3.876   0.372  16.663 -0.5276 -0.6262  1.9290
 4931TIP3    H236285   3.963   0.259  16.613  0.7793  0.7514  1.0295
 4932TIP3   OH236286   2.217   2.752   3.721 -0.1755  0.2608 -0.0575
 4932TIP3    H136287   2.272   2.676   3.700 -1.8428 -0.9934 -0.0962
 4932TIP3    H236288   2.131   2.729   3.686 -1.4859  0.8663  2.5451
 4933TIP3   OH236289   3.593   6.618   2.552  0.1056 -0.0588  0.5028
 4933TIP3    H136290   3.621   6.707   2.575 -1.2278  0.6815 -0.5793
 4933TIP3    H236291   3.555   6.583   2.633 -0.7114  0.9355  0.5725
 4934TIP3   OH236292   5.443   1.914   5.787  0.2564 -0.1674  0.1410
 4934TIP3    H136293   5.358   1.956   5.800  1.0599  1.8223 -0.5673
 4934TIP3    H236294   5.430   1.856   5.711 -0.4941  0.0060  0.1252
 4935TIP3   OH236295   6.613   2.466  13.207 -0.0432  0.4372  0.6170
 4935TIP3    H136296   6.646   2.402  13.145 -0.2011  0.5982  0.3644
 4935TIP3    H236297   6.599   2.417  13.288 -0.9561 -0.0312  0.1887
 4936TIP3   OH236298   1.083   4.824   4.213 -0.1154 -0.3985 -0.1301
 4936TIP3    H136299   1.032   4.856   4.288  3.4137  1.1609  1.8807
 4936TIP3    H236300   1.095   4.730   4.230  0.8003 -0.0253  1.4495
 4937TIP3   OH236301   3.798   3.538  14.861 -0.0733 -0.3325  0.1826
 4937TIP3    H136302   3.825   3.565  14.948  0.1590  1.5041 -0.4282
 4937TIP3    H236303   3.821   3.611  14.804 -0.2251 -1.4743 -1.4329
 4938TIP3   OH236304   0.852   5.722  17.143  0.0447  0.3052 -0.0514
 4938TIP3    H136305   0.805   5.639  17.133  0.0894  0.1101  1.1626
 4938TIP3    H236306   0.897   5.734  17.059 -0.1083 -0.8041 -0.3146
 4939TIP3   OH236307   0.799   2.100   0.385  0.2967 -0.2017 -0.1727
 4939TIP3    H136308   0.836   2.011   0.381 -3.2979 -1.8116 -1.6066
 4939TIP3    H236309   0.709   2.087   0.413  0.0413  3.2524  1.0483
 4940TIP3   OH236310   2.902   5.045   0.326  0.0374  0.1965  0.4426
 4940TIP3    H136311   2.849   4.972   0.294  0.6421  0.3034 -0.8490
 4940TIP3    H236312   2.872   5.121   0.276 -1.1900  1.0844  2.3666
 4941TIP3   OH236313   5.891   4.759  15.657 -0.1892 -0.7573 -0.1703
 4941TIP3    H136314   5.920   4.681  15.705 -0.9993 -0.4409  0.8976
 4941TIP3    H236315   5.970   4.812  15.648  0.4354 -1.8143 -1.1654
 4942TIP3   OH236316   4.689   5.392  15.092 -0.3785  0.2970 -0.2599
 4942TIP3    H136317   4.605   5.404  15.048 -1.2291 -0.5817  1.0751
 4942TIP3    H236318   4.692   5.299  15.114  0.5296  0.5034  0.5567
 4943TIP3   OH236319   6.225   4.181  12.860  0.1849  0.4645 -0.3445
 4943TIP3    H136320   6.247   4.088  12.856  0.0174  0.4662 -1.9166
 4943TIP3    H236321   6.270   4.220  12.784 -1.8219  1.1978 -1.2248
 4944TIP3   OH236322   3.975   5.209   5.978  0.1265 -0.1812 -0.1921
 4944TIP3    H136323   3.955   5.135   6.035  0.1256  1.6978  2.4294
 4944TIP3    H236324   3.906   5.208   5.911 -1.0399 -1.3493  0.9914
 4945TIP3   OH236325   6.464   0.990  14.987 -0.7811 -0.1662 -0.5709
 4945TIP3    H136326   6.543   0.939  15.003 -1.7910 -2.0024 -1.1307
 4945TIP3    H236327   6.470   1.063  15.048  0.5755 -1.1308  0.5279
 4946TIP3   OH236328   0.522   3.454   4.113 -0.5324  0.4929  0.1167
 4946TIP3    H136329   0.501   3.532   4.060  1.0982  0.8058 -0.1025
 4946TIP3    H236330   0.513   3.484   4.203  0.2700  1.0153  0.0368
 4947TIP3   OH236331   3.220   6.465  15.573  0.2523 -0.5391 -0.1839
 4947TIP3    H136332   3.198   6.373  15.582  0.1043 -0.4941 -0.0843
 4947TIP3    H236333   3.236   6.495  15.663  0.3806 -0.4867 -0.2233
 4948TIP3   OH236334   5.102   5.233  11.139 -0.4909  0.5190  0.3992
 4948TIP3    H136335   5.074   5.178  11.066 -1.8570 -0.5177  1.6488
 4948TIP3    H236336   5.195   5.215  11.149 -0.7247 -0.8796  0.1973
 4949TIP3   OH236337   2.676   0.423  13.709 -0.3264 -0.5500  0.3633
 4949TIP3    H136338   2.670   0.410  13.614 -2.4995 -2.5838  0.6832
 4949TIP3    H236339   2.751   0.370  13.736 -0.8502 -1.5155 -0.0232
 4950TIP3   OH236340   6.185   5.734   2.428  0.6030  0.2644 -0.5338
 4950TIP3    H136341   6.270   5.724   2.385 -0.1867  0.6501 -2.2504
 4950TIP3    H236342   6.121   5.738   2.357 -0.9685 -0.7449  0.7239
 4951TIP3   OH236343   6.534   3.103  12.093 -0.3765  0.0241 -0.2610
 4951TIP3    H136344   6.498   3.184  12.058 -2.1668 -0.1400  1.0455
 4951TIP3    H236345   6.589   3.131  12.166 -2.2789  0.0844  1.2519
 4952TIP3   OH236346   3.152   5.558  10.246  0.4955 -0.1369 -0.1372
 4952TIP3    H136347   3.213   5.539  10.318  1.9749  1.3888 -0.9102
 4952TIP3    H236348   3.169   5.650  10.224 -0.4377 -0.3537 -1.9500
 4953TIP3   OH236349   0.148   1.637  17.166  0.2891 -0.4632  0.4933
 4953TIP3    H136350   0.211   1.704  17.192 -0.6672 -0.0920  2.0229
 4953TIP3    H236351   0.088   1.682  17.107  0.8251 -0.5329 -0.1110
 4954TIP3   OH236352   4.021   4.767  16.644 -0.0522 -0.0364  0.0876
 4954TIP3    H136353   4.008   4.734  16.555  1.4510  0.8483 -0.4812
 4954TIP3    H236354   4.103   4.728  16.673 -0.1677  0.2459  0.8199
 4955TIP3   OH236355   1.364   1.349  13.736 -0.4292  0.1577  0.4302
 4955TIP3    H136356   1.356   1.403  13.657 -0.3406  0.1338  0.4043
 4955TIP3    H236357   1.299   1.280  13.725  0.1482 -0.3204 -0.0072
 4956TIP3   OH236358   5.156   1.585   2.295 -0.0338 -0.0751  0.1012
 4956TIP3    H136359   5.142   1.619   2.207 -1.7508 -3.2916 -1.0545
 4956TIP3    H236360   5.069   1.555   2.323  0.6972 -0.2459  2.3993
 4957TIP3   OH236361   0.039   1.725  13.642  0.5991 -0.0685 -0.2398
 4957TIP3    H136362   0.027   1.758  13.731  0.3478 -1.2199  0.1664
 4957TIP3    H236363   0.090   1.645  13.653  4.4397  1.9167 -1.4577
 4958TIP3   OH236364   4.142   0.737  15.960 -0.2218  0.1088  0.1013
 4958TIP3    H136365   4.077   0.730  16.031  0.2444 -1.0827  0.4270
 4958TIP3    H236366   4.146   0.831  15.942 -1.9065  0.2328  0.1852
 4959TIP3   OH236367   6.062   3.482   1.877 -0.1766 -0.3122 -0.6015
 4959TIP3    H136368   6.034   3.515   1.962  1.1448 -0.6493 -0.0093
 4959TIP3    H236369   5.981   3.466   1.829 -0.9274  0.1977  0.4730
 4960TIP3   OH236370   6.288   0.145   4.382 -0.2269 -0.6650 -0.2459
 4960TIP3    H136371   6.247   0.177   4.302 -0.0417 -0.1139 -0.1267
 4960TIP3    H236372   6.240   0.188   4.452  0.4119 -0.1775 -0.1012
 4961TIP3   OH236373   3.786   0.193  13.532 -0.4702 -0.5308  0.4090
 4961TIP3    H136374   3.807   0.286  13.527 -0.9782 -0.4561 -0.9539
 4961TIP3    H236375   3.702   0.189  13.578 -0.7086 -0.2514  0.0092
 4962TIP3   OH236376   2.721   0.965  14.002 -0.0973 -0.3429  0.1195
 4962TIP3    H136377   2.639   0.936  13.963  0.6346 -1.0174 -0.9828
 4962TIP3    H236378   2.745   0.894  14.063  0.8352 -1.3096 -1.3187
 4963TIP3   OH236379   0.263   1.701   3.577  0.1951 -0.4692  0.2298
 4963TIP3    H136380   0.353   1.695   3.606  0.6991  0.1054 -1.1083
 4963TIP3    H236381   0.267   1.681   3.483 -1.5050 -3.5439  0.6948
 4964TIP3   OH236382   5.039   2.623   6.370 -0.3000  0.2219  0.0958
 4964TIP3    H136383   5.044   2.713   6.403  0.6683  0.7070 -1.2770
 4964TIP3    H236384   5.092   2.572   6.431 -0.9997  0.5319  0.9847
 4965TIP3   OH236385   0.773   3.119   0.554 -0.0616 -0.2608 -0.4415
 4965TIP3    H136386   0.679   3.110   0.538  0.0545  0.4311 -1.5701
 4965TIP3    H236387   0.799   3.196   0.504  1.1139 -0.4497 -0.1501
 4966TIP3   OH236388   5.720   2.608   1.855 -0.6663 -0.4208  0.4073
 4966TIP3    H136389   5.677   2.529   1.824 -1.0775  0.5216 -1.5706
 4966TIP3    H236390   5.787   2.627   1.790 -2.0094  2.0193 -0.4003
 4967TIP3   OH236391   1.084   5.472   3.270  0.2025  0.0136  0.1724
 4967TIP3    H136392   1.001   5.426   3.258  0.3948 -0.2178 -0.3269
 4967TIP3    H236393   1.137   5.444   3.195 -0.0053  1.7636 -0.6712
 4968TIP3   OH236394   2.469   5.814  16.906 -0.0981 -0.7038  0.3246
 4968TIP3    H136395   2.527   5.752  16.949  0.6131 -1.0100 -1.0425
 4968TIP3    H236396   2.525   5.887  16.882 -0.5989 -0.2888  0.3898
 4969TIP3   OH236397   1.543   0.074   3.428  0.3813 -0.2106 -0.1744
 4969TIP3    H136398   1.601   0.124   3.370  0.9392 -0.3854  0.2302
 4969TIP3    H236399   1.488   0.141   3.469  0.8262  0.0346  0.0312
 4970TIP3   OH236400   3.628   0.924   4.221 -0.0370  0.7529 -0.6447
 4970TIP3    H136401   3.656   0.910   4.311 -0.2704  1.7493 -0.4019
 4970TIP3    H236402   3.548   0.976   4.228  0.7207  2.1068 -1.4308
 4971TIP3   OH236403   6.245   0.703   2.733 -0.1865  0.1518 -0.8418
 4971TIP3    H136404   6.270   0.691   2.825  1.1538  0.9183 -1.0759
 4971TIP3    H236405   6.163   0.654   2.723  0.7140 -1.6578  0.2428
 4972TIP3   OH236406   6.540   0.882   4.402 -0.2530 -0.4992 -0.0623
 4972TIP3    H136407   6.461   0.910   4.447  0.9246  0.5908  1.4138
 4972TIP3    H236408   6.611   0.897   4.465  0.8455 -4.4196 -0.0705
 4973TIP3   OH236409   0.019   2.813  17.006 -0.1393  0.2909  0.2993
 4973TIP3    H136410   0.001   2.879  17.074 -1.0421 -1.3743  1.7812
 4973TIP3    H236411   0.093   2.762  17.041 -0.6919 -0.6652  0.1304
 4974TIP3   OH236412   6.644   5.920   4.444 -1.3589  0.0077  0.7379
 4974TIP3    H136413   6.568   5.899   4.499 -1.7083 -2.2052 -0.4672
 4974TIP3    H236414   6.624   5.878   4.360 -0.3834  2.4052 -0.7816
 4975TIP3   OH236415   5.722   3.110  16.990 -0.5362 -0.4371  0.3168
 4975TIP3    H136416   5.712   3.028  16.941 -1.2221 -0.2390  0.1165
 4975TIP3    H236417   5.817   3.121  16.999 -0.3905 -0.5605 -0.8385
 4976TIP3   OH236418   5.700   4.023  14.383  0.4137  0.3114 -0.1013
 4976TIP3    H136419   5.647   4.085  14.332 -1.2280  0.4350  1.6384
 4976TIP3    H236420   5.654   4.016  14.467  0.8660 -2.8450 -0.0147
 4977TIP3   OH236421   6.490   1.169  16.966 -0.0782 -0.3526 -0.4464
 4977TIP3    H136422   6.573   1.179  17.014 -0.9309 -0.8889  1.2027
 4977TIP3    H236423   6.507   1.097  16.906  1.4326  1.1810 -1.9896
 4978TIP3   OH236424   5.621   0.087  15.463 -0.7488  0.2742 -0.0564
 4978TIP3    H136425   5.642   0.171  15.504  2.5355  0.1928 -1.2731
 4978TIP3    H236426   5.609   0.109  15.370 -0.6131 -0.4939 -0.2622
 4979TIP3   OH236427   2.310   4.128   1.269  0.6780 -0.1058 -0.0939
 4979TIP3    H136428   2.330   4.155   1.359  1.4448  0.5555 -0.4545
 4979TIP3    H236429   2.366   4.183   1.214  1.2626 -1.4842 -0.9296
 4980TIP3   OH236430   4.691   5.972  12.691 -0.8316 -0.2442 -0.6969
 4980TIP3    H136431   4.660   5.912  12.623 -1.4843 -0.8585  0.1217
 4980TIP3    H236432   4.611   6.010  12.727 -0.4978 -0.0026 -0.1996
 4981TIP3   OH236433   3.810   1.053   5.610 -0.1267  0.0079  0.3519
 4981TIP3    H136434   3.797   1.046   5.515  0.0321  0.0194  0.3282
 4981TIP3    H236435   3.771   1.136   5.634 -1.1620 -0.4993  0.4747
 4982TIP3   OH236436   3.370   5.632   4.603 -0.2427  0.1830  0.2015
 4982TIP3    H136437   3.312   5.694   4.559 -1.8974 -1.4548 -0.0353
 4982TIP3    H236438   3.327   5.615   4.687 -0.9300 -2.1540 -0.5655
 4983TIP3   OH236439   6.808   3.569  16.330 -0.1364  0.5526  0.3364
 4983TIP3    H136440   6.731   3.520  16.301 -0.6478  1.8532 -0.5934
 4983TIP3    H236441   6.877   3.541  16.270 -0.1405  0.1686  0.5046
 4984TIP3   OH236442   6.598   4.434   4.257 -0.2276  0.3001 -0.2721
 4984TIP3    H136443   6.624   4.506   4.200  0.1924  1.1773  0.9812
 4984TIP3    H236444   6.505   4.450   4.274 -0.6127 -0.5338 -1.4895
 4985TIP3   OH236445   1.332   2.677  13.552  0.3940 -0.5320  0.4254
 4985TIP3    H136446   1.293   2.703  13.468  1.5530 -0.4762 -0.1154
 4985TIP3    H236447   1.259   2.678  13.613 -0.2956  0.3791 -0.3757
 4986TIP3   OH236448   4.313   3.472  15.860  0.4303  0.3409 -0.8189
 4986TIP3    H136449   4.375   3.518  15.803 -0.1988  1.6927 -0.4527
 4986TIP3    H236450   4.309   3.525  15.939 -1.9523  0.9014 -1.2333
 4987TIP3   OH236451   5.863   4.888   1.967  0.4534  0.0292 -0.0615
 4987TIP3    H136452   5.841   4.964   2.020  0.0370 -0.7919  0.9805
 4987TIP3    H236453   5.907   4.924   1.890 -2.5545  1.6230 -1.2159
 4988TIP3   OH236454   5.721   2.721   3.422  0.3019  0.0314 -0.4885
 4988TIP3    H136455   5.745   2.633   3.454  2.6147  1.3254  1.7231
 4988TIP3    H236456   5.706   2.772   3.502 -3.1457  1.2308 -1.7145
 4989TIP3   OH236457   4.686   0.136   5.374 -0.2234  0.3340  0.1942
 4989TIP3    H136458   4.678   0.053   5.421 -2.0361  0.5386  0.3228
 4989TIP3    H236459   4.668   0.203   5.441 -0.2185  0.7524 -0.2216
 4990TIP3   OH236460   4.446   0.271  15.890  0.8690 -0.3435  0.3942
 4990TIP3    H136461   4.395   0.352  15.898  0.9912 -0.0710 -1.3176
 4990TIP3    H236462   4.396   0.218  15.828  1.0042 -1.4402  1.1908
 4991TIP3   OH236463   1.527   1.095  15.361  0.2809  0.2273 -0.4063
 4991TIP3    H136464   1.559   1.086  15.451 -0.9772 -0.2428  0.0081
 4991TIP3    H236465   1.456   1.158  15.367  1.1582  1.3494 -1.3407
 4992TIP3   OH236466   2.978   4.557  12.399  0.0966  0.0945  0.2783
 4992TIP3    H136467   2.916   4.629  12.412 -0.2956  0.2583 -2.1886
 4992TIP3    H236468   2.926   4.485  12.363  1.0070 -0.4138 -0.0735
 4993TIP3   OH236469   1.658   3.753   1.498  0.2122  0.2110 -0.0393
 4993TIP3    H136470   1.625   3.843   1.501  0.2307  0.2046  2.3774
 4993TIP3    H236471   1.751   3.762   1.479 -0.0884  0.5764 -1.4195
 4994TIP3   OH236472   6.607   2.016  11.983 -0.3158  0.3889 -0.2819
 4994TIP3    H136473   6.673   2.077  12.015  0.7417 -1.5791  1.5570
 4994TIP3    H236474   6.653   1.960  11.922 -0.9193  0.5267 -0.8763
 4995TIP3   OH236475   5.835   1.464   2.713 -0.1725 -0.2096 -0.0243
 4995TIP3    H136476   5.785   1.543   2.689  0.0137  0.4948  1.7645
 4995TIP3    H236477   5.768   1.402   2.741 -0.2297 -0.2896 -0.3267
 4996TIP3   OH236478   4.645   4.392  10.430  0.5979 -0.2081 -0.5334
 4996TIP3    H136479   4.561   4.407  10.387  0.0090  1.1670  0.9797
 4996TIP3    H236480   4.648   4.297  10.444 -1.0374 -0.2193 -0.0201
 4997TIP3   OH236481   0.079   4.188  13.182 -1.1026  0.0325  0.3418
 4997TIP3    H136482   0.029   4.257  13.225 -2.1769  0.6701 -1.8113
 4997TIP3    H236483   0.047   4.186  13.093  0.6268 -1.6260 -0.3295
 4998TIP3   OH236484   3.803   6.223  14.485  0.0331 -0.0219  0.3993
 4998TIP3    H136485   3.861   6.274  14.543  2.0688 -1.1900 -0.5090
 4998TIP3    H236486   3.863   6.174  14.428 -1.8874 -0.7970 -1.0525
 4999TIP3   OH236487   3.184   1.157   1.949 -0.3669 -0.2345  0.1100
 4999TIP3    H136488   3.191   1.146   1.854  0.6406 -2.0449  0.3601
 4999TIP3    H236489   3.170   1.069   1.983 -1.3871  0.4722  1.6090
 5000TIP3   OH236490   0.527   1.609   3.912  0.1759  0.0883  0.3205
 5000TIP3    H136491   0.487   1.578   3.993  0.2768  1.5105  0.9408
 5000TIP3    H236492   0.584   1.537   3.883  0.2844 -0.3543  1.6053
 5001TIP3   OH236493   0.251   1.298   2.127 -0.8715  0.6425  0.4216
 5001TIP3    H136494   0.239   1.301   2.032  0.8797  0.1970  0.1506
 5001TIP3    H236495   0.182   1.239   2.157 -0.0727 -1.0609 -0.8786
 5002TIP3   OH236496   4.800   4.626  11.706 -0.2294 -0.2226 -0.0677
 5002TIP3    H136497   4.755   4.543  11.720 -0.3198 -0.4001 -1.3117
 5002TIP3    H236498   4.747   4.672  11.641  1.3939 -0.4907 -1.6601
 5003TIP3   OH236499   5.812   5.862   1.119  0.5296 -0.1954  0.0198
 5003TIP3    H136500   5.780   5.797   1.181 -0.1478 -0.5515 -0.6901
 5003TIP3    H236501   5.869   5.813   1.060  0.5612 -0.0115 -0.1033
 5004TIP3   OH236502   3.730   3.152   0.010  0.1115 -0.5282  0.1577
 5004TIP3    H136503   3.689   3.224   0.057  0.7661  1.6406 -2.3695
 5004TIP3    H236504   3.806   3.191  -0.033  1.5499 -3.1625  0.0990
 5005TIP3   OH236505   5.680   2.544   4.671 -0.3520 -0.1156 -0.5237
 5005TIP3    H136506   5.749   2.596   4.629 -0.3283  1.1346  0.9498
 5005TIP3    H236507   5.635   2.502   4.599  1.5461 -0.4663 -1.5894
 5006TIP3   OH236508   0.395   4.147  12.652 -0.6722  0.0057 -0.4692
 5006TIP3    H136509   0.435   4.224  12.690  0.0714 -0.8873  0.6295
 5006TIP3    H236510   0.340   4.180  12.581  0.9484  1.3810 -1.1288
 5007TIP3   OH236511   6.055   5.060   4.238 -0.1758 -0.0990  0.0255
 5007TIP3    H136512   5.985   5.124   4.234  0.7797  1.1735  1.8120
 5007TIP3    H236513   6.014   4.982   4.274 -0.5750  0.8771  1.8130
 5008TIP3   OH236514   0.130   1.998   1.385  0.0281  0.2094  0.3067
 5008TIP3    H136515   0.214   2.013   1.342  0.3176  0.4349  0.9379
 5008TIP3    H236516   0.147   1.927   1.448 -1.0525 -2.1136 -1.8385
 5009TIP3   OH236517   3.379   5.120   4.092  0.5241  0.5988  0.6556
 5009TIP3    H136518   3.445   5.187   4.073  0.3150  1.5281  2.8838
 5009TIP3    H236519   3.427   5.052   4.139  0.0631  0.9907  1.7356
 5010TIP3   OH236520   6.744   0.183   1.704  0.1285 -0.4649  0.2383
 5010TIP3    H136521   6.681   0.115   1.725  3.1619 -2.8633  2.5307
 5010TIP3    H236522   6.713   0.261   1.750 -0.8449 -1.7344  1.8226
 5011TIP3   OH236523   3.181   3.396  16.989 -0.6428 -0.2883 -0.9329
 5011TIP3    H136524   3.271   3.365  16.988 -1.6981 -3.7089 -1.6367
 5011TIP3    H236525   3.155   3.391  17.082 -0.3156  0.1217 -0.8155
 5012TIP3   OH236526   3.560   4.118   5.544 -0.6607  0.6918  0.4921
 5012TIP3    H136527   3.649   4.111   5.511 -1.1314  0.9854 -0.9313
 5012TIP3    H236528   3.564   4.083   5.633  1.1389  2.0114  0.9756
 5013TIP3   OH236529   5.910   3.773  13.509 -1.2269  0.3729 -0.6964
 5013TIP3    H136530   5.966   3.819  13.572 -1.4073 -1.0060  0.5215
 5013TIP3    H236531   5.883   3.841  13.447  0.0025  1.5127 -0.0453
 5014TIP3   OH236532   1.825   1.009   0.778  0.3131 -0.5675 -0.2713
 5014TIP3    H136533   1.912   1.039   0.807  0.8005 -0.8171 -1.4061
 5014TIP3    H236534   1.767   1.082   0.798  0.6745 -0.5789  0.9520
 5015TIP3   OH236535   5.707   2.959   5.735 -0.0805 -0.2023 -0.0097
 5015TIP3    H136536   5.698   3.010   5.654  0.6846  3.0208  1.7632
 5015TIP3    H236537   5.800   2.960   5.754 -0.1884 -1.3498  0.6975
 5016TIP3   OH236538   0.880   4.444  15.666  0.5740  0.1429  0.7873
 5016TIP3    H136539   0.961   4.496  15.664  0.1703  0.7724  0.5354
 5016TIP3    H236540   0.837   4.470  15.748  0.2170  0.4552  0.5068
 5017TIP3   OH236541   1.115   5.617  14.671 -0.2234 -0.4946  0.3036
 5017TIP3    H136542   1.112   5.619  14.575 -2.9263 -1.0472  0.2938
 5017TIP3    H236543   1.104   5.525  14.693  0.2564 -0.3526  1.1569
 5018TIP3   OH236544   1.307   5.067  10.348 -0.6877 -0.0402 -0.1477
 5018TIP3    H136545   1.245   5.138  10.329  0.3642  0.5010 -1.8644
 5018TIP3    H236546   1.377   5.080  10.284  0.0862 -1.9797  0.2412
 5019TIP3   OH236547   3.038   0.220   1.342  0.1798 -0.8717  0.2122
 5019TIP3    H136548   2.996   0.245   1.260 -0.0167  0.8231  0.7910
 5019TIP3    H236549   3.132   0.223   1.323  0.1488 -2.8130 -0.5535
 5020TIP3   OH236550   3.330   6.130   5.793  0.4421  0.2783  0.2500
 5020TIP3    H136551   3.245   6.167   5.817  0.8267  0.2200  1.7563
 5020TIP3    H236552   3.377   6.204   5.754 -0.6529  0.0520 -1.6668
 5021TIP3   OH236553   5.400   5.070   2.535  0.3831  0.1752  0.3243
 5021TIP3    H136554   5.415   5.011   2.610 -2.6648  1.1513  1.8705
 5021TIP3    H236555   5.341   5.021   2.478 -0.5509  0.9507  0.6104
 5022TIP3   OH236556   3.153   5.099   0.777  0.2913  0.0279 -0.6467
 5022TIP3    H136557   3.115   5.036   0.838  0.7183 -1.7378 -2.1036
 5022TIP3    H236558   3.193   5.165   0.833 -1.0940 -0.4005  0.9470
 5023TIP3   OH236559   4.507   5.181  11.789 -0.9990 -0.3494  0.1625
 5023TIP3    H136560   4.497   5.274  11.769  2.4790  0.0099 -0.5361
 5023TIP3    H236561   4.480   5.137  11.709  1.0437  0.3918 -1.0248
 5024TIP3   OH236562   5.714   6.478   5.483 -0.0916 -0.1571  0.2285
 5024TIP3    H136563   5.620   6.482   5.464  0.1200  0.3976 -0.7766
 5024TIP3    H236564   5.740   6.389   5.459 -0.0004  0.2656 -1.3680
 5025TIP3   OH236565   5.064   1.889   3.551 -0.3315 -0.0983 -0.1556
 5025TIP3    H136566   5.130   1.947   3.588  0.3387 -0.7601 -0.2981
 5025TIP3    H236567   5.078   1.892   3.457 -0.6290 -0.1016 -0.2030
 5026TIP3   OH236568   5.218   4.712  14.858 -0.0769 -0.3106 -0.2048
 5026TIP3    H136569   5.163   4.639  14.831  1.0855 -1.1004 -0.5048
 5026TIP3    H236570   5.276   4.727  14.784 -0.1048  0.7415 -0.0342
 5027TIP3   OH236571   0.478   1.586   5.823 -0.1855  0.2711 -0.2460
 5027TIP3    H136572   0.512   1.648   5.759  0.1408  2.3666  1.8200
 5027TIP3    H236573   0.384   1.605   5.828 -1.0818 -2.6134 -2.8426
 5028TIP3   OH236574   3.558   5.452  15.431 -0.0491 -0.1243 -0.2336
 5028TIP3    H136575   3.490   5.492  15.377 -0.2232  0.7820  0.6195
 5028TIP3    H236576   3.529   5.468  15.521  1.0324 -0.1736  0.1350
 5029TIP3   OH236577   4.966   5.181  11.570 -0.1470  0.3674 -0.0375
 5029TIP3    H136578   5.045   5.185  11.516  0.2772 -2.4585  0.1926
 5029TIP3    H236579   4.908   5.246  11.532  1.9411  1.9544 -0.7423
 5030TIP3   OH236580   1.996   3.459   3.801 -0.0230 -0.5394 -0.4001
 5030TIP3    H136581   2.055   3.404   3.749  0.9846  0.1469 -0.0167
 5030TIP3    H236582   1.999   3.545   3.758 -1.3436 -0.6776 -0.8129
 5031TIP3   OH236583   5.846   0.262   1.816  0.1720 -0.2594 -0.6075
 5031TIP3    H136584   5.926   0.299   1.779  0.0239  1.1669  0.4141
 5031TIP3    H236585   5.778   0.326   1.795 -0.2183 -0.2244  0.6565
 5032TIP3   OH236586   3.049   1.786   1.573  0.1860 -0.3752 -0.2395
 5032TIP3    H136587   3.114   1.853   1.591 -2.0940  1.7660  0.6549
 5032TIP3    H236588   3.075   1.747   1.490  0.3831  3.2945 -2.0675
 5033TIP3   OH236589   0.373   6.798   6.029  0.0725  0.4411  0.4258
 5033TIP3    H136590   0.438   6.758   6.086  0.5593  2.1035  1.1168
 5033TIP3    H236591   0.297   6.813   6.085 -0.6026 -0.7052 -0.1599
 5034TIP3   OH236592   3.026   3.126  13.237  0.1121  0.5840  0.0769
 5034TIP3    H136593   3.120   3.142  13.239  0.1323  0.7137 -0.9993
 5034TIP3    H236594   3.015   3.043  13.283  0.7606  0.5474  0.1787
 5035TIP3   OH236595   3.354   4.851   3.366 -0.6682  0.0465  0.1845
 5035TIP3    H136596   3.302   4.838   3.287 -1.0909  0.5346  0.3784
 5035TIP3    H236597   3.444   4.858   3.335 -0.6801 -0.9771 -0.1378
 5036TIP3   OH236598   2.861   4.028   1.840  0.2921  0.0578  0.3483
 5036TIP3    H136599   2.898   3.990   1.920  1.3339  1.9014  0.8267
 5036TIP3    H236600   2.823   4.111   1.869  2.2522  1.6318 -1.2655
 5037TIP3   OH236601   0.405   1.015   6.816  0.4460 -0.0211 -0.0672
 5037TIP3    H136602   0.367   1.046   6.734  2.0769 -2.2635 -1.8033
 5037TIP3    H236603   0.499   1.031   6.806  0.5672  0.7005  1.8937
 5038TIP3   OH236604   1.335   0.342   1.950 -0.0283  0.2522  0.4983
 5038TIP3    H136605   1.384   0.417   1.915 -0.7173  0.2086 -0.6078
 5038TIP3    H236606   1.383   0.317   2.029  1.0127  0.9820  0.1222
 5039TIP3   OH236607   1.323   6.428   4.798  0.3349 -0.3677  0.3743
 5039TIP3    H136608   1.348   6.335   4.792  1.5575 -0.0351 -0.1002
 5039TIP3    H236609   1.241   6.434   4.750 -1.5584 -1.7858  3.1505
 5040TIP3   OH236610   1.129   4.028   0.404 -0.2723 -0.1750  1.0079
 5040TIP3    H136611   1.094   4.080   0.476 -0.2141 -1.6551  2.1673
 5040TIP3    H236612   1.052   3.982   0.368 -0.1502 -0.1992  0.7741
 5041TIP3   OH236613   1.965   0.599  15.266  0.7174 -0.5533 -0.3004
 5041TIP3    H136614   1.953   0.693  15.265  1.8173 -0.3958 -0.5542
 5041TIP3    H236615   1.877   0.563  15.257  0.4630  0.4743 -3.0298
 5042TIP3   OH236616   4.769   3.171   1.786 -0.3578  0.4878  0.1770
 5042TIP3    H136617   4.688   3.143   1.829 -1.0117  0.5973 -0.9601
 5042TIP3    H236618   4.806   3.092   1.749 -1.0808  0.7423 -1.1558
 5043TIP3   OH236619   2.255   6.655   5.307 -0.2486  0.0625 -0.8396
 5043TIP3    H136620   2.169   6.688   5.332 -0.1227  0.4698 -0.9326
 5043TIP3    H236621   2.290   6.615   5.386 -0.2997  0.3775 -0.6571
 5044TIP3   OH236622   4.202   2.566  10.431 -0.1297 -0.4462 -0.4446
 5044TIP3    H136623   4.128   2.510  10.456 -1.5362  0.8990 -1.4281
 5044TIP3    H236624   4.226   2.611  10.512 -1.3770  0.1872 -0.4013
 5045TIP3   OH236625   4.904   3.523  16.839 -0.1822 -0.0443  0.0157
 5045TIP3    H136626   4.971   3.585  16.812 -1.9942  1.9547 -0.1352
 5045TIP3    H236627   4.837   3.576  16.882 -1.5196 -1.9840  0.4779
 5046TIP3   OH236628   5.929   6.191   1.885  0.1127  0.0506  0.8747
 5046TIP3    H136629   5.848   6.179   1.935  0.4701 -2.3317  1.0384
 5046TIP3    H236630   5.995   6.215   1.951 -0.1784  0.7017  0.9369
 5047TIP3   OH236631   5.595   5.234  16.766 -0.6237  0.2542 -0.5238
 5047TIP3    H136632   5.649   5.155  16.769 -1.6782 -0.4771 -0.1047
 5047TIP3    H236633   5.604   5.266  16.676 -1.2173 -1.1084 -1.0922
 5048TIP3   OH236634   2.114   5.947  15.715  0.2425 -0.2163  0.0077
 5048TIP3    H136635   2.161   5.987  15.643  0.7160 -1.0891 -0.1840
 5048TIP3    H236636   2.175   5.948  15.789  0.2121 -0.4626  0.0379
 5049TIP3   OH236637   2.144   1.198  12.210 -0.6147 -0.6537  0.2008
 5049TIP3    H136638   2.190   1.282  12.218 -1.5100 -0.0497 -0.7385
 5049TIP3    H236639   2.211   1.132  12.229 -0.1269  0.2863  1.9139
 5050TIP3   OH236640   2.411   2.733  10.348 -0.2403  0.5279 -0.7135
 5050TIP3    H136641   2.446   2.693  10.428 -1.5941  1.3340  0.3332
 5050TIP3    H236642   2.481   2.792  10.319  1.3429 -1.7145 -1.6887
 5051TIP3   OH236643   0.040   4.717  15.776  0.3309 -0.0278 -0.1567
 5051TIP3    H136644   0.055   4.686  15.687 -0.3413  0.4413 -0.4480
 5051TIP3    H236645  -0.034   4.778  15.768 -1.3099 -1.7411  1.0713
 5052TIP3   OH236646   4.337   3.682   2.281  0.3119 -0.0593  0.2219
 5052TIP3    H136647   4.276   3.714   2.215  1.5235 -0.6596 -1.2444
 5052TIP3    H236648   4.361   3.760   2.332 -1.7672  0.1596  0.9776
 5053TIP3   OH236649   4.233   5.157  12.767  0.1802 -0.7263  0.0834
 5053TIP3    H136650   4.179   5.173  12.690 -0.8542 -0.5561  0.8183
 5053TIP3    H236651   4.211   5.067  12.793  0.7394 -0.8850  0.0187
 5054TIP3   OH236652   5.750   5.847   3.702  0.2521 -0.0831 -0.2322
 5054TIP3    H136653   5.700   5.871   3.624  0.9806  1.5652 -0.2380
 5054TIP3    H236654   5.685   5.815   3.764 -0.6096  0.6519 -0.7416
 5055TIP3   OH236655   2.175   1.987  14.980 -0.3565  0.0892 -0.2881
 5055TIP3    H136656   2.101   1.991  15.040 -1.6233  0.9862 -1.8407
 5055TIP3    H236657   2.155   2.052  14.913  1.6336  0.0266 -0.9948
 5056TIP3   OH236658   4.895   6.600  14.763  0.5341 -0.2029 -0.8822
 5056TIP3    H136659   4.894   6.516  14.716  0.3817 -0.1654 -0.9461
 5056TIP3    H236660   4.807   6.635  14.751  0.2971 -0.4958 -0.0237
 5057TIP3   OH236661   6.540   4.321  13.939 -0.2454 -0.0362  0.0598
 5057TIP3    H136662   6.616   4.283  13.894 -1.0003  0.4062 -1.6486
 5057TIP3    H236663   6.477   4.249  13.945  1.2854 -1.3113  4.1704
 5058TIP3   OH236664   3.682   0.575  14.998  0.4528  0.3199 -0.0980
 5058TIP3    H136665   3.648   0.592  14.910 -1.8667 -2.7631  0.0403
 5058TIP3    H236666   3.744   0.503  14.987 -0.1157 -0.3301  0.7838
 5059TIP3   OH236667   1.790   4.539  13.248 -0.5254 -0.0527 -0.4257
 5059TIP3    H136668   1.836   4.589  13.315 -1.5802  0.1346  0.1821
 5059TIP3    H236669   1.741   4.473  13.297 -2.7823  1.2374 -0.8098
 5060TIP3   OH236670   2.706   6.671  13.115  0.4091  0.1040  0.3536
 5060TIP3    H136671   2.624   6.626  13.098 -0.7496  1.7110  1.4056
 5060TIP3    H236672   2.710   6.741  13.050  1.5173 -0.6118 -0.3942
 5061TIP3   OH236673   5.433   2.518   5.492 -0.1831 -0.4447  0.9410
 5061TIP3    H136674   5.449   2.490   5.582  0.7199 -1.7041  0.4255
 5061TIP3    H236675   5.516   2.558   5.464 -0.5078  0.0777  0.7164
 5062TIP3   OH236676   3.063   4.066   4.849 -0.4720  0.0640  0.6951
 5062TIP3    H136677   2.994   4.130   4.869 -1.5751 -0.6379 -0.7039
 5062TIP3    H236678   3.016   3.983   4.840  0.8246 -0.7991  1.5763
 5063TIP3   OH236679   1.192   1.328   1.101  0.2304  0.5930  0.2211
 5063TIP3    H136680   1.187   1.285   1.187  1.8892  0.9443  0.5213
 5063TIP3    H236681   1.226   1.260   1.043  0.2408  0.7037  0.0993
 5064TIP3   OH236682   5.166   2.135  11.299  0.3197  0.7318  0.5967
 5064TIP3    H136683   5.261   2.124  11.296  0.5257  2.3141 -1.7278
 5064TIP3    H236684   5.137   2.116  11.210 -1.4898  0.8407  1.1207
 5065TIP3   OH236685   5.070   0.650   0.404  0.0510 -0.0183  0.1673
 5065TIP3    H136686   5.066   0.744   0.385 -2.0812 -0.5448 -2.6662
 5065TIP3    H236687   4.978   0.623   0.410  0.5482 -2.2589 -1.1997
 5066TIP3   OH236688   1.366   2.351   6.125 -0.4584  0.0082 -0.3332
 5066TIP3    H136689   1.462   2.348   6.117 -0.5477  0.5695 -2.0960
 5066TIP3    H236690   1.350   2.404   6.203  0.6802  1.4963 -1.0703
 5067TIP3   OH236691   5.184   0.035   1.511  0.6034  0.4724  0.8290
 5067TIP3    H136692   5.186   0.113   1.456 -1.5356  0.1386  0.2106
 5067TIP3    H236693   5.176   0.068   1.601 -1.4589  1.0067  0.4904
 5068TIP3   OH236694   0.559   5.794   3.051 -0.2127  0.3651  0.1624
 5068TIP3    H136695   0.607   5.816   3.131  1.8927  0.1266 -0.9607
 5068TIP3    H236696   0.475   5.837   3.061 -0.3013 -0.2370  2.8067
 5069TIP3   OH236697   2.929   1.457   6.405 -0.2681  0.2644 -0.2723
 5069TIP3    H136698   2.981   1.381   6.379 -0.6259  0.0662 -0.4233
 5069TIP3    H236699   2.971   1.531   6.362  0.0451  0.1409 -0.1786
 5070TIP3   OH236700   2.144   2.266   3.959  0.1705  0.3823 -0.1487
 5070TIP3    H136701   2.219   2.247   3.902  0.6252  1.4011  0.0802
 5070TIP3    H236702   2.089   2.188   3.955  1.0197 -0.1936 -0.6911
 5071TIP3   OH236703   2.665   4.101  10.381  0.4280 -0.0531 -0.4612
 5071TIP3    H136704   2.740   4.154  10.409  0.2567 -0.4686  0.8378
 5071TIP3    H236705   2.698   4.011  10.383 -0.2065 -0.2783  0.5257
 5072TIP3   OH236706   2.972   4.654   0.092 -0.0836  1.0119  0.2170
 5072TIP3    H136707   3.017   4.687   0.014  0.2804  0.4204  0.1704
 5072TIP3    H236708   3.020   4.574   0.115 -1.2922  0.2112 -0.0038
 5073TIP3   OH236709   1.544   4.885   4.810 -0.5416  0.0620 -0.2978
 5073TIP3    H136710   1.523   4.917   4.722  0.6872 -0.3752 -0.7665
 5073TIP3    H236711   1.473   4.918   4.864 -1.7374 -0.2809 -1.5747
 5074TIP3   OH236712   2.896   6.021   6.355  0.2400  0.4222 -0.7105
 5074TIP3    H136713   2.881   6.111   6.381  1.5796  0.1909  1.0898
 5074TIP3    H236714   2.951   6.027   6.277  0.5498  1.1698 -0.4389
 5075TIP3   OH236715   0.724   1.715  14.137  0.2406  0.0397  0.2926
 5075TIP3    H136716   0.703   1.634  14.091  0.3726 -0.3109  0.8334
 5075TIP3    H236717   0.719   1.783  14.070 -0.4506 -0.3338 -0.0457
 5076TIP3   OH236718   0.216   5.802   4.875  0.2932 -0.0369 -0.3118
 5076TIP3    H136719   0.187   5.722   4.830 -0.1330  0.5341 -1.0998
 5076TIP3    H236720   0.162   5.806   4.954  1.3092 -1.2520  0.4775
 5077TIP3   OH236721   4.114   3.614  13.673 -0.7655  0.7014  0.6903
 5077TIP3    H136722   4.164   3.533  13.670  1.0319  1.7825 -0.2175
 5077TIP3    H236723   4.097   3.629  13.766  0.0813 -0.0014  0.9640
 5078TIP3   OH236724   0.640   2.890  13.698 -0.0133  0.3170  0.0675
 5078TIP3    H136725   0.684   2.861  13.778 -0.7877  0.9032  0.7230
 5078TIP3    H236726   0.704   2.949  13.657  0.1856  0.4260  0.5247
 5079TIP3   OH236727   5.610   1.211   5.653  0.2061  0.3842 -0.2074
 5079TIP3    H136728   5.539   1.197   5.589  0.4406 -1.7081 -0.0794
 5079TIP3    H236729   5.651   1.125   5.662  1.0278  0.9335  1.7880
 5080TIP3   OH236730   0.665   5.712   5.160 -0.3321 -0.1683  0.1213
 5080TIP3    H136731   0.570   5.726   5.153 -0.5544 -1.8414 -0.8808
 5080TIP3    H236732   0.698   5.727   5.072  0.2343 -0.1929  0.3281
 5081TIP3   OH236733   2.687   2.244   4.422  0.0473 -0.0790  0.2932
 5081TIP3    H136734   2.704   2.153   4.397  0.8595  0.3132 -0.6584
 5081TIP3    H236735   2.621   2.273   4.360 -0.1564  0.0113  0.5502
 5082TIP3   OH236736   3.068   1.240   1.025  0.4117 -0.3690 -0.1177
 5082TIP3    H136737   3.115   1.306   0.974  1.7413 -3.1449 -2.8204
 5082TIP3    H236738   3.134   1.205   1.085 -0.3200  0.7533  1.3965
 5083TIP3   OH236739   3.007   1.273  15.985  0.1333  0.5048  0.7551
 5083TIP3    H136740   3.028   1.314  16.069  0.3324  0.8990  0.5150
 5083TIP3    H236741   3.087   1.282  15.933  1.5222 -3.4063  1.9073
 5084TIP3   OH236742   3.472   3.900  12.931 -0.1690 -0.4215  0.2709
 5084TIP3    H136743   3.554   3.950  12.927  0.2404 -1.1322 -2.6743
 5084TIP3    H236744   3.499   3.809  12.919 -1.3353 -0.7739  0.2343
 5085TIP3   OH236745   6.656   5.150   3.345  0.3427  0.7151  0.1820
 5085TIP3    H136746   6.719   5.167   3.274  0.3130 -1.8451 -0.5455
 5085TIP3    H236747   6.571   5.146   3.301  0.2029  0.0642  0.4992
 5086TIP3   OH236748   3.041   4.017   2.348 -0.1842  0.3030 -0.2017
 5086TIP3    H136749   3.093   4.067   2.411 -0.0782 -0.1408  0.0682
 5086TIP3    H236750   2.987   3.959   2.401 -0.5512  0.3637 -0.5011
 5087TIP3   OH236751   3.461   5.291  11.743 -0.1947  0.0068  0.5095
 5087TIP3    H136752   3.367   5.280  11.758 -0.1784  1.1205  1.4995
 5087TIP3    H236753   3.471   5.382  11.715  0.5131 -0.3242 -0.3823
 5088TIP3   OH236754   5.676   0.982  13.933 -0.1104 -0.0090  0.3780
 5088TIP3    H136755   5.666   1.031  13.851 -1.1225  0.3827  0.7254
 5088TIP3    H236756   5.639   1.039  14.000  2.5578  0.5724  1.4624
 5089TIP3   OH236757   2.217   3.305  15.248 -0.1602 -0.0654 -0.1468
 5089TIP3    H136758   2.286   3.245  15.278  0.8375  1.8942  1.7910
 5089TIP3    H236759   2.264   3.377  15.208 -1.0494  1.2126  1.0226
 5090TIP3   OH236760   4.306   1.043   1.948 -0.0848 -0.4611 -0.0995
 5090TIP3    H136761   4.373   1.085   2.001 -1.0218  0.0364  0.7199
 5090TIP3    H236762   4.352   1.016   1.868  1.2819 -0.9637  0.8204
 5091TIP3   OH236763   5.299   1.727  15.089  0.1107 -0.3806  0.4493
 5091TIP3    H136764   5.310   1.736  15.184  1.3932  0.7397  0.2395
 5091TIP3    H236765   5.210   1.694  15.078 -1.1740  2.2471  1.9535
 5092TIP3   OH236766   6.036   0.095   1.528  0.3387 -0.2658  0.2698
 5092TIP3    H136767   6.029   0.090   1.623  2.0058 -1.0543  0.3834
 5092TIP3    H236768   5.991   0.016   1.496  0.6904 -0.5464  0.4638
 5093TIP3   OH236769   5.836   6.019   2.612 -0.5212 -0.5377 -0.8091
 5093TIP3    H136770   5.745   6.028   2.640 -0.3632 -0.3071 -0.3597
 5093TIP3    H236771   5.888   6.032   2.692 -0.0158  1.1416 -1.3610
 5094TIP3   OH236772   5.241   1.499   3.512 -0.5030  0.1690 -0.4794
 5094TIP3    H136773   5.251   1.521   3.605  0.1819 -1.9098 -0.0054
 5094TIP3    H236774   5.176   1.561   3.480 -0.3423  1.3103  1.2365
 5095TIP3   OH236775   6.298   0.287  16.373 -0.4223 -0.1683 -0.2705
 5095TIP3    H136776   6.341   0.319  16.452 -1.8329 -1.0697  0.9013
 5095TIP3    H236777   6.362   0.229  16.332  0.1335 -0.0898  0.4796
 5096TIP3   OH236778   6.487   1.125   4.726 -0.3848 -0.6030 -0.4527
 5096TIP3    H136779   6.437   1.099   4.803 -0.4178 -1.8156 -0.8701
 5096TIP3    H236780   6.561   1.064   4.723  0.3729  0.2815 -0.6361
 5097TIP3   OH236781   4.627   4.912   4.050  0.6442 -0.2899  0.1674
 5097TIP3    H136782   4.568   4.916   4.126 -1.0629 -1.8450 -0.9744
 5097TIP3    H236783   4.606   4.828   4.009  1.4869  0.5167 -2.0351
 5098TIP3   OH236784   0.477   5.989  13.842  0.6405  0.6669 -0.3873
 5098TIP3    H136785   0.550   6.016  13.898  2.9252 -2.1883 -1.7156
 5098TIP3    H236786   0.412   5.952  13.902  1.0873  1.5416  0.6671
 5099TIP3   OH236787   4.951   6.798  13.816 -0.2381 -0.1334 -0.3040
 5099TIP3    H136788   5.025   6.802  13.756  0.3616  2.5665  0.4904
 5099TIP3    H236789   4.875   6.815  13.762 -0.1656 -1.5518 -0.8942
 5100TIP3   OH236790   5.655   3.350   1.908  0.3262  0.2438 -0.3650
 5100TIP3    H136791   5.723   3.283   1.919 -1.3891 -1.3493  1.3826
 5100TIP3    H236792   5.591   3.309   1.850 -0.3034  0.7257 -0.0166
 5101TIP3   OH236793   4.789   0.242  13.572 -0.4599  0.3141  0.0566
 5101TIP3    H136794   4.809   0.198  13.489  0.6720 -0.3460  0.6438
 5101TIP3    H236795   4.851   0.315  13.577  0.9791 -0.9112  1.2577
 5102TIP3   OH236796   4.687   1.217   3.241  0.1597 -0.2185 -0.7683
 5102TIP3    H136797   4.765   1.261   3.207  0.8927 -0.9062 -0.0280
 5102TIP3    H236798   4.686   1.236   3.334  0.7890 -2.1160 -0.3174
 5103TIP3   OH236799   5.338   2.358  12.495  0.0787  0.4561 -0.3151
 5103TIP3    H136800   5.367   2.370  12.586  0.4300  0.6065 -0.4426
 5103TIP3    H236801   5.331   2.264  12.483  1.1245  0.3881 -0.4612
 5104TIP3   OH236802   0.611   0.623  14.586  0.1798  0.9499  0.4880
 5104TIP3    H136803   0.523   0.612  14.549  1.2941  0.1654 -2.2035
 5104TIP3    H236804   0.664   0.557  14.540  2.0976  1.1068  2.3568
 5105TIP3   OH236805   0.124   3.971   5.846 -0.3039 -0.3027  0.2477
 5105TIP3    H136806   0.074   4.041   5.805 -0.0998 -0.3461 -0.0832
 5105TIP3    H236807   0.177   3.935   5.775  2.3486  1.5623  1.1093
 5106TIP3   OH236808   6.708   4.045   1.132  0.0377 -0.7861 -0.7829
 5106TIP3    H136809   6.802   4.030   1.145 -0.1427 -0.6631  0.7477
 5106TIP3    H236810   6.668   3.959   1.145 -0.1876 -0.5939 -0.2168
 5107TIP3   OH236811   4.602   1.472   1.525 -0.0051  0.1172  0.3201
 5107TIP3    H136812   4.685   1.460   1.572  1.2044  0.9876 -1.4693
 5107TIP3    H236813   4.574   1.383   1.504  0.5436 -0.1938  0.8585
 5108TIP3   OH236814   2.529   5.879  15.793  0.3080 -0.5399  0.2704
 5108TIP3    H136815   2.491   5.967  15.803 -0.9904 -1.0591  0.1967
 5108TIP3    H236816   2.453   5.821  15.793  1.2275 -1.7993  1.6016
 5109TIP3   OH236817   4.065   5.484   0.017 -0.3826 -0.7031 -0.4511
 5109TIP3    H136818   4.068   5.542   0.093 -0.7499 -0.3072 -0.7388
 5109TIP3    H236819   4.144   5.505  -0.033 -0.6368 -0.2744 -0.6796
 5110TIP3   OH236820   5.353   2.369   2.753  0.8424  0.5820 -0.2080
 5110TIP3    H136821   5.291   2.335   2.817 -1.4864  1.5948 -1.7607
 5110TIP3    H236822   5.412   2.296   2.734 -1.0039 -1.0590  0.0427
 5111TIP3   OH236823   3.634   2.873  12.286  0.3038  0.0648 -0.6340
 5111TIP3    H136824   3.576   2.937  12.245 -0.9078 -0.9398 -0.5737
 5111TIP3    H236825   3.707   2.864  12.226 -0.0160  0.7569 -1.1364
 5112TIP3   OH236826   4.943   1.536  16.395  0.1993 -0.8350 -0.1006
 5112TIP3    H136827   4.964   1.469  16.330 -1.9814 -3.2008  1.4185
 5112TIP3    H236828   4.848   1.547  16.388  0.2403  0.5652  1.1182
 5113TIP3   OH236829   0.591   3.445   0.615 -0.2535 -0.1093  0.6805
 5113TIP3    H136830   0.629   3.425   0.529 -1.7345 -2.8417  0.5483
 5113TIP3    H236831   0.664   3.435   0.676  0.0337 -1.9742  0.0996
 5114TIP3   OH236832   6.724   3.956  15.537 -0.0350 -0.3279 -0.2657
 5114TIP3    H136833   6.691   4.046  15.539 -1.6184 -0.8695 -0.6809
 5114TIP3    H236834   6.790   3.954  15.607 -0.2109  1.0525 -0.0180
 5115TIP3   OH236835   0.975   5.294   3.912 -0.7227 -0.5255 -0.1849
 5115TIP3    H136836   1.060   5.325   3.944 -0.8650 -0.2429 -0.0659
 5115TIP3    H236837   0.955   5.218   3.966 -1.3050  0.3831  0.9532
 5116TIP3   OH236838   1.714   6.331   2.607 -0.7045 -0.3705  0.5920
 5116TIP3    H136839   1.774   6.289   2.545 -0.5949 -0.3129  0.6585
 5116TIP3    H236840   1.748   6.419   2.618 -1.1450 -0.1434  0.1743
 5117TIP3   OH236841   0.237   4.924  15.016  0.4213 -0.1632  0.4585
 5117TIP3    H136842   0.295   4.859  14.975  1.3710  1.0438 -0.1856
 5117TIP3    H236843   0.153   4.880  15.024  0.5557 -0.9007 -1.5914
 5118TIP3   OH236844   2.986   5.673  11.131  0.1611 -0.6550 -0.2687
 5118TIP3    H136845   2.932   5.639  11.203  0.9170  0.3821  0.8327
 5118TIP3    H236846   3.075   5.649  11.155  0.4167 -0.4036 -0.9406
 5119TIP3   OH236847   5.866   4.776  13.645  0.3467 -0.4036 -0.2032
 5119TIP3    H136848   5.920   4.842  13.602 -0.4014  0.2332 -0.1976
 5119TIP3    H236849   5.824   4.823  13.718 -1.6711 -0.3556 -1.3316
 5120TIP3   OH236850   3.537   4.174   3.844  0.2466 -0.1160  0.8145
 5120TIP3    H136851   3.470   4.145   3.906 -0.6727  1.8735  0.8265
 5120TIP3    H236852   3.506   4.258   3.813  0.1035 -1.4613 -3.2412
 5121TIP3   OH236853   2.426   2.233   0.385 -0.2403 -0.6168  0.2687
 5121TIP3    H136854   2.506   2.198   0.346  0.9947  1.8829  0.3655
 5121TIP3    H236855   2.445   2.239   0.478 -1.6992 -2.7451  0.7777
 5122TIP3   OH236856   5.895   0.365   5.133  0.0561  0.0108  0.0195
 5122TIP3    H136857   5.854   0.302   5.193  0.6880  0.6715  1.1743
 5122TIP3    H236858   5.832   0.438   5.129  0.2608  0.2069  0.3231
 5123TIP3   OH236859   0.879   3.676  12.581 -0.0078  0.2360 -0.3215
 5123TIP3    H136860   0.904   3.743  12.644 -0.4466  1.1048 -1.0483
 5123TIP3    H236861   0.807   3.629  12.623  1.1389 -0.6499  0.7253
 5124TIP3   OH236862   3.352   0.692   5.522  0.2832 -0.0115  0.3166
 5124TIP3    H136863   3.329   0.640   5.444  0.0218  0.2050  0.2452
 5124TIP3    H236864   3.322   0.638   5.595  0.6257 -0.2638  0.2713
 5125TIP3   OH236865   5.372   2.878   2.133  0.0476  0.1860 -0.7336
 5125TIP3    H136866   5.404   2.861   2.045 -0.9811 -1.0642 -0.9046
 5125TIP3    H236867   5.433   2.941   2.170  1.2560 -0.2911 -1.8698
 5126TIP3   OH236868   0.103   5.933  14.892  0.0117  0.1302  0.1584
 5126TIP3    H136869   0.109   5.859  14.953  1.8643  0.0562 -0.0432
 5126TIP3    H236870   0.153   6.003  14.935  0.3935  0.4331 -0.7520
 5127TIP3   OH236871   4.553   3.799   6.112 -0.6414  0.2656 -0.1876
 5127TIP3    H136872   4.642   3.810   6.078 -0.2742  1.0582  0.9685
 5127TIP3    H236873   4.565   3.761   6.199 -1.4771 -0.1362 -0.2309
 5128TIP3   OH236874   4.001   0.662   0.460  0.2740 -0.3957 -0.3219
 5128TIP3    H136875   4.092   0.630   0.457  0.6572  0.5477  0.6947
 5128TIP3    H236876   4.004   0.745   0.414  0.4101  0.6915  1.5623
 5129TIP3   OH236877   4.886   4.745  13.267 -0.0122  0.4047  0.8244
 5129TIP3    H136878   4.962   4.800  13.247  0.1334 -0.1112 -0.1227
 5129TIP3    H236879   4.870   4.758  13.360  2.7201 -1.3042  1.6329
 5130TIP3   OH236880   0.059   2.071   6.151  0.2114  0.0695  0.0426
 5130TIP3    H136881   0.026   1.982   6.164 -1.9439  0.4447 -2.1110
 5130TIP3    H236882  -0.002   2.127   6.199 -0.3992  0.5690 -1.2690
 5131TIP3   OH236883   4.278   3.827  10.308  0.2251 -0.5352 -0.2256
 5131TIP3    H136884   4.266   3.850  10.400  0.6656 -0.6583 -0.1344
 5131TIP3    H236885   4.346   3.760  10.309  1.1140  0.3393 -0.7391
 5132TIP3   OH236886   1.732   0.826   0.068  0.1234 -0.3458  0.0342
 5132TIP3    H136887   1.721   0.753   0.128  0.8907  0.1876  0.8535
 5132TIP3    H236888   1.656   0.822   0.010 -0.7450 -0.7453  1.1687
 5133TIP3   OH236889   1.337   2.050  16.686 -0.0439  0.3159  0.1228
 5133TIP3    H136890   1.285   2.062  16.607 -1.4084 -0.7384  0.8235
 5133TIP3    H236891   1.333   1.956  16.704 -0.2538  0.6101  1.7611
 5134TIP3   OH236892   6.070   5.320  10.832  0.2631  0.4851 -0.5395
 5134TIP3    H136893   5.985   5.315  10.787 -0.3225  0.5283  0.5390
 5134TIP3    H236894   6.122   5.250  10.791 -0.2951  0.4304 -1.1825
 5135TIP3   OH236895   5.759   0.134  12.881  0.4896 -0.2453 -0.2407
 5135TIP3    H136896   5.709   0.207  12.844 -1.3797 -1.8686 -1.1246
 5135TIP3    H236897   5.762   0.153  12.975 -0.3967  0.7259 -0.3870
 5136TIP3   OH236898   4.537   6.610  12.191  0.2804 -0.2257  0.0435
 5136TIP3    H136899   4.563   6.699  12.167  0.8551 -0.5452 -0.5524
 5136TIP3    H236900   4.615   6.573  12.233  0.5382 -0.9260 -1.0293
 5137TIP3   OH236901   2.043   3.676  11.139  0.7847  0.4638  0.1646
 5137TIP3    H136902   2.062   3.766  11.167  1.2894  0.2717  0.4398
 5137TIP3    H236903   2.010   3.634  11.218 -0.5027  0.7005 -0.2218
 5138TIP3   OH236904   5.625   3.158  11.200 -0.3440  0.3212  0.4377
 5138TIP3    H136905   5.635   3.068  11.168  2.6644  0.0882  1.6744
 5138TIP3    H236906   5.617   3.211  11.120 -1.3551 -0.9466 -0.3286
 5139TIP3   OH236907   5.519   2.177   2.636 -0.6578  0.1839  0.2201
 5139TIP3    H136908   5.500   2.102   2.580 -0.2831 -0.4557  0.9327
 5139TIP3    H236909   5.583   2.228   2.586  1.0497 -1.3004  0.7767
 5140TIP3   OH236910   1.811   2.758   5.985  0.3208  0.1260 -0.6662
 5140TIP3    H136911   1.858   2.838   6.006  1.1301 -0.4191 -0.3696
 5140TIP3    H236912   1.802   2.712   6.069  1.2431 -0.8196 -1.0602
 5141TIP3   OH236913   1.336   1.607   1.301  0.0332  0.8753 -0.4279
 5141TIP3    H136914   1.319   1.688   1.348 -4.3617 -1.8665  3.6503
 5141TIP3    H236915   1.263   1.599   1.239  0.6627  0.2302 -1.1133
 5142TIP3   OH236916   2.962   5.031   3.305 -0.2115  0.4174 -0.0643
 5142TIP3    H136917   2.910   4.975   3.362  1.6639 -1.7479 -0.3034
 5142TIP3    H236918   3.012   5.087   3.365 -0.2132  0.0263  0.3013
 5143TIP3   OH236919   2.246   3.992  13.131  0.0444 -0.8080 -0.1738
 5143TIP3    H136920   2.180   4.062  13.128  1.3787  0.4835 -0.9144
 5143TIP3    H236921   2.240   3.957  13.220 -1.3017 -0.4144 -0.0801
 5144TIP3   OH236922   0.515   4.847  11.921  0.4478 -0.0484  0.0278
 5144TIP3    H136923   0.529   4.811  12.009  1.4223  0.9058  0.2777
 5144TIP3    H236924   0.421   4.867  11.919  0.5677  0.7460  1.1825
 5145TIP3   OH236925   4.916   1.931  14.372  0.2656 -0.1686 -1.1928
 5145TIP3    H136926   4.840   1.876  14.389 -1.6562  2.6890  0.4083
 5145TIP3    H236927   4.932   1.921  14.278 -0.2308 -3.0038 -1.0493
 5146TIP3   OH236928   2.898   4.259  12.866  0.0060  0.3984  0.1737
 5146TIP3    H136929   2.900   4.315  12.788 -1.7827  1.8204  1.0834
 5146TIP3    H236930   2.872   4.173  12.833 -0.2860  0.8619 -0.8426
 5147TIP3   OH236931   3.752   4.306  14.393  0.0507 -0.4959  0.2062
 5147TIP3    H136932   3.690   4.313  14.466  0.9324  0.3064  0.9160
 5147TIP3    H236933   3.754   4.394  14.354  0.7716 -0.4886  0.2373
 5148TIP3   OH236934   0.615   6.456  15.999  0.0572  0.0451  0.0623
 5148TIP3    H136935   0.702   6.427  16.027 -0.6460 -2.6079 -0.1963
 5148TIP3    H236936   0.562   6.454  16.078  0.5440  3.6433  0.6726
 5149TIP3   OH236937   4.283   2.430  12.936  0.6107 -0.2906  0.2239
 5149TIP3    H136938   4.208   2.452  12.881 -1.1299 -1.9132  1.7845
 5149TIP3    H236939   4.281   2.495  13.006  0.7396 -0.2702  0.2090
 5150TIP3   OH236940   1.281   3.424  13.351  0.6211 -0.4679 -0.9043
 5150TIP3    H136941   1.274   3.343  13.402 -1.6881  2.5382  4.3355
 5150TIP3    H236942   1.192   3.440  13.320  0.5647  1.0451 -0.0200
 5151TIP3   OH236943   0.926   3.998  11.845 -0.4784 -0.1403  0.0472
 5151TIP3    H136944   0.999   3.938  11.832  0.1458  0.6992 -0.4037
 5151TIP3    H236945   0.966   4.079  11.877 -1.0014  0.8955 -1.7691
 5152TIP3   OH236946   4.197   0.844   1.102 -0.7169  0.3669  0.0486
 5152TIP3    H136947   4.126   0.843   1.166 -0.8594 -1.5415 -0.0880
 5152TIP3    H236948   4.204   0.753   1.073  0.4542  0.8942 -1.4236
 5153TIP3   OH236949   1.611   2.412   6.270  0.1314 -0.1751  0.0700
 5153TIP3    H136950   1.575   2.452   6.349  1.5086 -0.2725  0.7784
 5153TIP3    H236951   1.687   2.466   6.249 -1.9724  1.8434 -3.0998
 5154TIP3   OH236952   5.476   5.053   1.616  0.1270  0.9369  0.0434
 5154TIP3    H136953   5.506   5.124   1.559 -0.1981  1.5838  0.6554
 5154TIP3    H236954   5.539   5.053   1.688 -0.1952  0.9806  0.3284
 5155TIP3   OH236955   0.652   4.636   3.160 -0.3728 -0.3389  0.6393
 5155TIP3    H136956   0.647   4.571   3.091  0.7301  0.1112  0.1069
 5155TIP3    H236957   0.693   4.712   3.119 -1.0660  0.4775  1.4028
 5156TIP3   OH236958   1.021   1.919   4.418 -0.8004 -0.4017  0.1005
 5156TIP3    H136959   0.936   1.945   4.453 -0.8144  0.0540 -0.2780
 5156TIP3    H236960   1.004   1.895   4.327 -0.5059 -0.2066 -0.0086
 5157TIP3   OH236961   4.760   5.847   6.177  0.0517 -0.2110 -0.1722
 5157TIP3    H136962   4.817   5.920   6.151  0.7905 -0.4541  0.7056
 5157TIP3    H236963   4.720   5.875   6.260 -0.0722 -0.5835 -0.1018
 5158TIP3   OH236964   5.711   1.484   1.945 -0.2696 -0.3484  0.3103
 5158TIP3    H136965   5.635   1.509   1.997 -0.7575 -0.8869 -0.1365
 5158TIP3    H236966   5.678   1.420   1.883  0.7658 -1.3925  0.8008
 5159TIP3   OH236967   3.941   0.391  15.162  0.1897 -0.2436 -0.6956
 5159TIP3    H136968   3.879   0.346  15.220 -0.0450 -0.4068 -1.0761
 5159TIP3    H236969   3.914   0.368  15.074 -0.0691  0.8230 -0.9114
 5160TIP3   OH236970   6.481   2.057  13.427  0.1578  0.6151  0.4792
 5160TIP3    H136971   6.398   2.026  13.464 -1.3143  2.7085 -0.8908
 5160TIP3    H236972   6.459   2.139  13.382  2.6828  0.4961 -1.1968
 5161TIP3   OH236973   1.024   5.151  11.568 -0.0219  0.2303  0.2477
 5161TIP3    H136974   1.110   5.156  11.527 -0.4051  2.7779 -0.4067
 5161TIP3    H236975   1.043   5.145  11.662  0.8622 -0.0193  0.0620
 5162TIP3   OH236976   5.351   1.652  15.659 -0.6594  0.4339  0.1356
 5162TIP3    H136977   5.375   1.725  15.715 -0.3098  0.6854 -0.3359
 5162TIP3    H236978   5.317   1.585  15.719  1.5494 -0.0990  0.8956
 5163TIP3   OH236979   3.551   2.146  14.785  0.8181 -1.2465 -0.8425
 5163TIP3    H136980   3.565   2.054  14.760 -1.2353 -1.5408 -1.1256
 5163TIP3    H236981   3.456   2.158  14.778  1.1041  1.1186 -1.5247
 5164TIP3   OH236982   4.828   3.726  15.015  0.0619 -0.2077 -0.9046
 5164TIP3    H136983   4.918   3.724  14.982 -0.2158  2.0291 -2.0137
 5164TIP3    H236984   4.774   3.703  14.939 -0.3279 -1.7221 -0.1996
 5165TIP3   OH236985   3.239   5.706  14.696 -0.5825  0.3100  0.2932
 5165TIP3    H136986   3.255   5.756  14.616 -0.2223  0.3194  0.3707
 5165TIP3    H236987   3.318   5.653  14.708 -0.9646 -0.2963  0.2018
 5166TIP3   OH236988   0.684   4.471   0.649 -0.1424  0.0049  0.1672
 5166TIP3    H136989   0.717   4.399   0.703  0.8399 -1.1473 -1.8499
 5166TIP3    H236990   0.589   4.460   0.650  0.0295 -2.6298 -1.6623
 5167TIP3   OH236991   0.349   1.591  13.449  0.5796  0.2202  0.2376
 5167TIP3    H136992   0.295   1.566  13.524  0.9300 -0.9869  0.0941
 5167TIP3    H236993   0.386   1.676  13.474 -1.7665  1.3523  0.1330
 5168TIP3   OH236994   3.030   4.957   3.976  0.5899  0.4805  0.0309
 5168TIP3    H136995   3.004   4.988   3.889 -0.0464  2.1605  0.7731
 5168TIP3    H236996   2.974   5.006   4.036  2.0936  0.5255  1.4682
 5169TIP3   OH236997   2.206   3.887  13.404 -0.5572 -0.4149 -0.6743
 5169TIP3    H136998   2.226   3.945  13.478 -1.2649  0.3513 -1.0750
 5169TIP3    H236999   2.254   3.806  13.424 -0.3118 -0.0310  0.3561
 5170TIP3   OH237000   5.275   5.667   2.592 -0.2814  0.5463  0.1239
 5170TIP3    H137001   5.363   5.700   2.609 -0.1381  0.9919 -1.3864
 5170TIP3    H237002   5.273   5.581   2.635  0.8309  0.5883  0.2789
 5171TIP3   OH237003   4.055   5.793  11.287 -0.0770 -0.0817 -0.2469
 5171TIP3    H137004   4.146   5.825  11.285 -0.2298  1.2569  4.2656
 5171TIP3    H237005   4.007   5.857  11.234  0.9175  2.6376  1.8576
 5172TIP3   OH237006   1.570   3.912   2.457  0.1822 -0.3180 -0.4480
 5172TIP3    H137007   1.513   3.849   2.414  1.2295 -0.5420 -1.5624
 5172TIP3    H237008   1.545   3.908   2.549 -0.6339 -1.4320 -0.6969
 5173TIP3   OH237009   4.419   3.924   4.728  0.0989 -0.0378  0.4315
 5173TIP3    H137010   4.393   4.016   4.734  1.4781  0.4408 -0.4474
 5173TIP3    H237011   4.352   3.876   4.777 -1.2264  1.3207  0.0037
 5174TIP3   OH237012   6.513   1.589   0.961  0.0467 -0.0617  0.0850
 5174TIP3    H137013   6.603   1.610   0.988  0.1434  2.4719 -1.7419
 5174TIP3    H237014   6.524   1.546   0.876 -0.4580  0.6149 -0.3273
 5175TIP3   OH237015   3.413   6.156   2.871 -0.0737  0.3605  0.3725
 5175TIP3    H137016   3.345   6.211   2.910 -0.6232 -0.3500  0.4490
 5175TIP3    H237017   3.494   6.205   2.883 -0.3067  0.4207  1.9064
 5176TIP3   OH237018   2.753   5.733  12.730 -0.0357 -0.3101  0.3995
 5176TIP3    H137019   2.822   5.690  12.781  0.4411  1.3217  1.1848
 5176TIP3    H237020   2.702   5.781  12.796 -0.3516  0.5873 -0.4854
 5177TIP3   OH237021   0.262   2.037   5.219  0.4465  0.2514 -0.3221
 5177TIP3    H137022   0.198   1.991   5.165  0.6888 -0.7463  0.2253
 5177TIP3    H237023   0.323   2.076   5.155  0.5804 -0.6966 -0.7897
 5178TIP3   OH237024   4.476   5.866  14.272 -0.5568  0.6960 -0.0339
 5178TIP3    H137025   4.507   5.934  14.211 -2.3758  0.0858 -1.7397
 5178TIP3    H237026   4.457   5.914  14.353  2.2724  1.4784  0.2996
 5179TIP3   OH237027   4.637   4.584  15.733 -0.5578 -0.1698 -0.3401
 5179TIP3    H137028   4.648   4.493  15.706 -0.1564 -0.3697  0.4595
 5179TIP3    H237029   4.703   4.597  15.800  1.5356  1.6307 -2.5582
 5180TIP3   OH237030   5.594   0.877   4.524 -0.4623  0.0490  0.6438
 5180TIP3    H137031   5.687   0.874   4.499  0.0890  2.8439  1.9628
 5180TIP3    H237032   5.547   0.873   4.440  0.8408 -0.6213 -0.1009
 5181TIP3   OH237033   2.864   0.126   3.469 -0.9338  0.8616 -0.3428
 5181TIP3    H137034   2.899   0.073   3.398 -2.1858 -0.5708  0.0614
 5181TIP3    H237035   2.868   0.216   3.436  1.3200  0.5748 -1.0130
 5182TIP3   OH237036   6.588   0.675  14.394 -0.6171  0.2046  0.0006
 5182TIP3    H137037   6.543   0.633  14.321 -0.6598 -0.1390  0.2254
 5182TIP3    H237038   6.595   0.767  14.367 -3.0878  0.6884  0.7197
 5183TIP3   OH237039   5.349   6.382  12.319  0.0495  0.4983  0.2961
 5183TIP3    H137040   5.398   6.405  12.398 -2.1410  2.6221  1.1616
 5183TIP3    H237041   5.333   6.288  12.328  2.4838  0.0453  0.7412
 5184TIP3   OH237042   2.962   6.328   2.727 -0.8194 -0.1490 -0.3671
 5184TIP3    H137043   3.046   6.351   2.768 -1.0933  0.6876 -0.2445
 5184TIP3    H237044   2.927   6.412   2.698 -2.1679 -0.3230  0.6629
 5185TIP3   OH237045   3.571   3.823   3.891 -0.2536 -0.0861  0.2966
 5185TIP3    H137046   3.497   3.882   3.904  0.7516  1.4012 -0.5202
 5185TIP3    H237047   3.594   3.832   3.799  1.7629  0.4842  0.8224
 5186TIP3   OH237048   0.052   2.698  16.419 -0.2453  1.0876  0.7758
 5186TIP3    H137049   0.090   2.786  16.430 -0.7560  1.2583  1.2084
 5186TIP3    H237050   0.033   2.693  16.325  0.3958  1.1804  0.6299
 5187TIP3   OH237051   4.954   1.827  16.047  0.5249  0.1040  0.4554
 5187TIP3    H137052   4.909   1.899  16.090 -0.8452 -0.2220 -0.3776
 5187TIP3    H237053   5.045   1.856  16.042 -0.0375  1.9284 -0.1172
 5188TIP3   OH237054   3.064   0.245   4.735  0.0556 -0.0980 -0.1333
 5188TIP3    H137055   3.102   0.192   4.665  0.7689 -0.4942  0.5287
 5188TIP3    H237056   3.088   0.199   4.816 -3.1055 -1.1821  0.3274
 5189TIP3   OH237057   4.009   2.667   4.101  0.6558  0.1831  0.3757
 5189TIP3    H137058   3.913   2.669   4.100  0.6334 -0.5619 -0.0600
 5189TIP3    H237059   4.031   2.598   4.164  0.8935 -0.0550  0.0332
 5190TIP3   OH237060   2.684   2.402  11.286 -0.1836 -0.0732  0.3389
 5190TIP3    H137061   2.713   2.475  11.230  0.8007 -0.6167  0.1174
 5190TIP3    H237062   2.705   2.323  11.236 -1.8580 -0.5207  0.2838
 5191TIP3   OH237063   0.301   2.789   0.395  0.4327  0.5613  0.3040
 5191TIP3    H137064   0.266   2.701   0.381  0.2422  0.8555 -1.1243
 5191TIP3    H237065   0.387   2.774   0.434  0.4400 -0.2644 -0.0087
 5192TIP3   OH237066   6.656   5.980   1.541  0.0414 -0.0937 -0.2582
 5192TIP3    H137067   6.740   5.957   1.581 -0.3469 -1.4617 -0.1827
 5192TIP3    H237068   6.662   6.075   1.527  1.1862  0.0081  0.6882
 5193TIP3   OH237069   2.610   4.290  16.644 -0.5108  0.5346  0.1598
 5193TIP3    H137070   2.564   4.344  16.709 -0.6447 -0.4933  0.9386
 5193TIP3    H237071   2.702   4.294  16.670 -0.5804  0.0229  0.4906
 5194TIP3   OH237072   1.520   5.820   3.894  0.0852  0.5528  0.0179
 5194TIP3    H137073   1.450   5.756   3.906  2.3963 -2.3335 -0.8412
 5194TIP3    H237074   1.539   5.852   3.982 -1.0635  0.0123  0.4782
 5195TIP3   OH237075   5.636   5.338  13.418 -0.0168  0.1061  0.6582
 5195TIP3    H137076   5.606   5.403  13.481 -1.1276 -0.4039  0.6733
 5195TIP3    H237077   5.557   5.312  13.370  0.7731  0.3811 -0.8582
 5196TIP3   OH237078   6.069   2.485   0.012  0.5297  0.1026 -0.4728
 5196TIP3    H137079   6.052   2.523  -0.074  1.7395  1.8376 -0.0126
 5196TIP3    H237080   6.088   2.560   0.068  0.0307 -0.9962  1.2707
 5197TIP3   OH237081   1.949   4.635   5.466  0.2529 -0.2083  0.1834
 5197TIP3    H137082   1.864   4.679   5.460 -0.3729 -1.5621 -1.5000
 5197TIP3    H237083   2.006   4.685   5.409 -0.1766 -0.9071 -0.8851
 5198TIP3   OH237084   0.599   6.569   2.641 -0.0702  0.1207 -0.3647
 5198TIP3    H137085   0.647   6.498   2.683  0.9307  1.0474  0.0993
 5198TIP3    H237086   0.535   6.596   2.706 -1.8000 -1.5953 -1.2460
 5199TIP3   OH237087   0.525   4.907   4.056  0.1101 -0.3162 -0.0863
 5199TIP3    H137088   0.611   4.932   4.023 -0.3023  1.3166  0.0058
 5199TIP3    H237089   0.544   4.841   4.124  1.0723 -2.2820 -2.1270
 5200TIP3   OH237090   2.350   2.297  16.251 -0.5024 -0.8607 -0.3801
 5200TIP3    H137091   2.295   2.277  16.327  2.5924 -1.1827  1.9814
 5200TIP3    H237092   2.384   2.212  16.224 -0.9997 -0.6533 -1.7117
 5201TIP3   OH237093   0.806   2.629  10.556 -0.4224  0.5983 -0.0379
 5201TIP3    H137094   0.850   2.595  10.635 -2.2902 -1.2037  0.3134
 5201TIP3    H237095   0.876   2.672  10.507  1.4716 -1.0058  1.0819
 5202TIP3   OH237096   2.007   6.438   0.853  0.2068  0.5016  0.1602
 5202TIP3    H137097   2.006   6.404   0.942  1.5489  0.5625  0.2097
 5202TIP3    H237098   2.058   6.519   0.858  2.1626 -0.5797 -1.0121
 5203TIP3   OH237099   3.048   5.452   3.667  0.3920 -0.1965  0.0315
 5203TIP3    H137100   3.049   5.479   3.576 -2.5419  0.0592 -0.0439
 5203TIP3    H237101   3.022   5.531   3.715 -1.7529 -1.1581  0.5824
 5204TIP3   OH237102   5.089   0.246  14.845  0.0258 -0.0169 -0.5182
 5204TIP3    H137103   5.129   0.241  14.758 -0.3708  1.1025 -0.7830
 5204TIP3    H237104   5.013   0.304  14.833  0.5310  0.9564  0.7747
 5205TIP3   OH237105   2.946   2.348  16.716  0.2628 -0.0257  0.3550
 5205TIP3    H137106   2.914   2.262  16.688  0.1761  0.2692 -0.4807
 5205TIP3    H237107   3.032   2.330  16.755  2.7167 -0.0196 -4.3171
 5206TIP3   OH237108   5.756   2.113  15.847  0.2361  0.1861  0.1702
 5206TIP3    H137109   5.796   2.135  15.762 -1.4736 -1.6799 -1.2084
 5206TIP3    H237110   5.672   2.160  15.846 -1.1320 -2.1417 -0.5564
 5207TIP3   OH237111   6.476   1.637  13.334  0.0236  0.5559 -0.0876
 5207TIP3    H137112   6.418   1.561  13.340 -0.8592  1.2794  1.0034
 5207TIP3    H237113   6.541   1.622  13.402 -1.0359  1.4638  1.1735
 5208TIP3   OH237114   0.204   6.466  16.214 -0.3709  0.3305 -0.8067
 5208TIP3    H137115   0.204   6.561  16.226  0.1555  0.4811 -1.8873
 5208TIP3    H237116   0.135   6.435  16.273 -0.7778  1.4141 -0.6819
 5209TIP3   OH237117   6.162   1.581  13.582 -0.0127 -0.2647 -0.2205
 5209TIP3    H137118   6.085   1.636  13.565 -1.7731 -2.2724  0.7062
 5209TIP3    H237119   6.187   1.548  13.496  0.2979  1.0003 -0.6281
 5210TIP3   OH237120   2.931   6.225   0.585  0.2517  0.2196 -0.2268
 5210TIP3    H137121   2.957   6.312   0.616 -0.9197  0.5151 -0.0498
 5210TIP3    H237122   3.009   6.192   0.541  1.1013  0.8697  0.7381
 5211TIP3   OH237123   4.820   4.332  15.151  0.8329  0.6519  0.2676
 5211TIP3    H137124   4.733   4.349  15.186  1.5201 -0.0914  2.5495
 5211TIP3    H237125   4.852   4.258  15.202  2.3709  0.1714 -1.3121
 5212TIP3   OH237126   5.220   1.308   7.007  0.1665  0.1448 -0.4805
 5212TIP3    H137127   5.202   1.402   7.001  0.5802  0.2399 -0.2944
 5212TIP3    H237128   5.176   1.270   6.931 -1.5664  0.2392  0.4486
 5213TIP3   OH237129   0.965   3.752  10.984 -0.1069 -0.1838 -0.7987
 5213TIP3    H137130   0.882   3.723  10.946 -2.0368  1.7127  1.5732
 5213TIP3    H237131   1.001   3.814  10.921 -1.0564 -0.2371 -1.4068
 5214TIP3   OH237132   0.494   1.164   1.420 -0.4707 -0.2726  0.7462
 5214TIP3    H137133   0.457   1.236   1.471  0.9338  0.0125  1.4121
 5214TIP3    H237134   0.486   1.088   1.477 -0.1432 -0.2318  0.8492
 5215TIP3   OH237135   0.731   4.886  12.401 -0.0777 -0.0253  0.3912
 5215TIP3    H137136   0.639   4.865  12.387  0.0930 -0.6170  0.1228
 5215TIP3    H237137   0.737   4.906  12.494 -0.2255 -1.3330  0.6929
 5216TIP3   OH237138   0.458   3.027   4.326 -0.3491  0.5278 -0.0929
 5216TIP3    H137139   0.430   3.107   4.372 -1.0083 -0.2926  0.9684
 5216TIP3    H237140   0.441   3.046   4.234  0.1438  1.8684  0.0724
 5217TIP3   OH237141   1.170   4.196  14.209  0.3204  0.7527 -0.2432
 5217TIP3    H137142   1.104   4.189  14.141 -0.3947  0.0201  0.5082
 5217TIP3    H237143   1.129   4.157  14.286  2.1147 -0.9923 -0.0996
 5218TIP3   OH237144   3.030   2.018  16.273 -0.8706  0.3233 -0.2660
 5218TIP3    H137145   3.117   2.034  16.309 -1.1552 -0.0768  0.6236
 5218TIP3    H237146   3.020   2.085  16.205  0.8306 -0.7591 -1.6710
 5219TIP3   OH237147   5.204   0.952   2.713  0.5222  0.1185 -0.9341
 5219TIP3    H137148   5.215   0.994   2.799 -2.1445  1.1692 -1.0318
 5219TIP3    H237149   5.219   1.023   2.650  0.8581 -0.2676 -1.2947
 5220TIP3   OH237150   5.031   5.561   2.873  0.3040 -0.0349 -0.1112
 5220TIP3    H137151   5.084   5.625   2.920  0.3815  1.5261 -2.1562
 5220TIP3    H237152   5.008   5.605   2.791 -1.8150 -1.7037 -0.5078
 5221TIP3   OH237153   1.527   4.755   4.073 -0.2718  0.4025 -0.4681
 5221TIP3    H137154   1.509   4.835   4.023  0.3774  1.3648  0.7623
 5221TIP3    H237155   1.584   4.703   4.016 -0.0636  1.1873 -0.9909
 5222TIP3   OH237156   4.075   3.017   4.948 -0.1977 -0.8372 -0.3658
 5222TIP3    H137157   4.061   2.981   5.036 -0.8495  0.9663  0.3008
 5222TIP3    H237158   3.993   3.061   4.926  1.2536  2.1801 -0.1628
 5223TIP3   OH237159   2.537   0.706  12.864 -0.2014  0.3876 -0.2106
 5223TIP3    H137160   2.447   0.737  12.870  0.2696  1.8334 -0.3119
 5223TIP3    H237161   2.532   0.630  12.807 -1.3061  0.6481 -0.4893
 5224TIP3   OH237162   3.652   0.210  15.699 -0.0982 -0.2601  0.0225
 5224TIP3    H137163   3.590   0.239  15.766  0.7639  1.9869 -0.0810
 5224TIP3    H237164   3.598   0.201  15.620 -0.4891  0.7000  0.1638
 5225TIP3   OH237165   4.409   1.299   6.487 -0.2855 -0.1820  0.5486
 5225TIP3    H137166   4.379   1.385   6.460  0.0846 -0.4471 -0.7453
 5225TIP3    H237167   4.486   1.282   6.433  0.1003 -1.0037  1.3290
 5226TIP3   OH237168   2.742   2.176  11.152  0.0784 -0.6800 -0.3326
 5226TIP3    H137169   2.794   2.096  11.142 -0.5691 -1.0435 -0.9285
 5226TIP3    H237170   2.708   2.194  11.064  0.5997  0.5277 -0.3018
 5227TIP3   OH237171   5.009   2.864  15.719 -0.6654  0.0164 -0.5449
 5227TIP3    H137172   4.939   2.927  15.736  0.4247  0.7277  1.7052
 5227TIP3    H237173   5.085   2.919  15.696  0.1654 -0.4619  0.9525
 5228TIP3   OH237174   0.849   4.566   2.186 -0.7866 -0.1626  0.5118
 5228TIP3    H137175   0.783   4.545   2.120 -1.2168 -1.4245  1.3072
 5228TIP3    H237176   0.904   4.489   2.190  0.8726  0.9364 -0.2425
 5229TIP3   OH237177   4.024   5.285  10.708  0.0929 -1.0468 -0.0666
 5229TIP3    H137178   4.028   5.190  10.710 -2.5210 -1.2384 -1.1188
 5229TIP3    H237179   4.095   5.311  10.649  0.2406 -2.3862 -0.4922
 5230TIP3   OH237180   6.805   0.494  11.656 -0.3321  0.2948 -0.4434
 5230TIP3    H137181   6.756   0.419  11.622 -1.4346  2.2055 -3.4908
 5230TIP3    H237182   6.873   0.510  11.590  0.5508  1.3748  0.6776
 5231TIP3   OH237183   5.730   3.632  16.314 -1.4108  0.1132 -0.1151
 5231TIP3    H137184   5.763   3.697  16.376 -0.6419  0.7835 -1.1824
 5231TIP3    H237185   5.778   3.650  16.233 -0.4481 -2.3978 -0.1913
 5232TIP3   OH237186   5.546   5.904   3.523 -0.5669  0.5359  0.0540
 5232TIP3    H137187   5.469   5.870   3.569  0.0710 -0.6666  0.2730
 5232TIP3    H237188   5.527   5.890   3.430 -0.3125 -0.4758  0.1404
 5233TIP3   OH237189   5.380   3.496  11.356 -0.3694  0.4834  0.3118
 5233TIP3    H137190   5.326   3.516  11.433 -0.6788  0.5047  0.0904
 5233TIP3    H237191   5.349   3.411  11.325 -0.7186  0.7912 -0.1976
 5234TIP3   OH237192   5.539   5.138  11.861  0.2672  0.6389  0.3607
 5234TIP3    H137193   5.537   5.060  11.804  0.2919  0.4668  0.5926
 5234TIP3    H237194   5.590   5.202  11.812  1.8289 -0.0972  0.9439
 5235TIP3   OH237195   1.861   3.299   2.839  0.4760 -0.3060  0.3135
 5235TIP3    H137196   1.821   3.310   2.752 -0.7197  0.3122  0.9073
 5235TIP3    H237197   1.787   3.279   2.897  1.3395 -1.4070  1.0855
 5236TIP3   OH237198   1.827   2.878   3.513  1.0478 -0.0790 -0.6434
 5236TIP3    H137199   1.746   2.828   3.505  0.4661  0.8160 -0.4636
 5236TIP3    H237200   1.830   2.932   3.434  1.3101  0.1205 -0.4993
 5237TIP3   OH237201   5.253   4.618  15.801  0.6471 -0.2520  0.0789
 5237TIP3    H137202   5.272   4.553  15.733  0.4920  1.3599 -1.5919
 5237TIP3    H237203   5.165   4.649  15.781  0.7097  0.4620  0.8574
 5238TIP3   OH237204   6.665   1.268  13.745 -0.0960  0.3905 -0.0191
 5238TIP3    H137205   6.726   1.233  13.680 -0.6992  0.1819 -0.4893
 5238TIP3    H237206   6.600   1.316  13.693 -0.9267 -0.2871  0.3612
 5239TIP3   OH237207   2.741   4.172  15.596 -0.6517  0.2319 -0.3791
 5239TIP3    H137208   2.745   4.107  15.665 -0.2250  0.0526 -0.5710
 5239TIP3    H237209   2.654   4.211  15.605  0.2270  1.8650  1.7563
 5240TIP3   OH237210   4.387   0.676  11.235 -0.3689 -0.2898 -0.3445
 5240TIP3    H137211   4.448   0.617  11.190  0.3535 -0.7500  1.1851
 5240TIP3    H237212   4.402   0.761  11.193 -0.5459 -0.9140 -1.7334
 5241TIP3   OH237213   3.618   5.946   0.981 -0.2198  0.4377 -0.4938
 5241TIP3    H137214   3.636   5.861   1.020  0.5533 -0.1261 -2.0389
 5241TIP3    H237215   3.526   5.963   1.003 -0.4596 -0.9093 -0.4065
 5242TIP3   OH237216   6.149   6.345   4.158  0.1253  0.3358 -0.7704
 5242TIP3    H137217   6.067   6.351   4.109 -1.1750 -1.5809  0.9752
 5242TIP3    H237218   6.124   6.369   4.248  1.6560  0.4637 -0.3606
 5243TIP3   OH237219   0.504   2.546   3.899  0.1040 -0.1144 -0.1788
 5243TIP3    H137220   0.498   2.451   3.886 -0.8351 -0.0075 -0.5550
 5243TIP3    H237221   0.492   2.557   3.994  1.1315 -0.4333  0.0004
 5244TIP3   OH237222   0.060   3.535  15.704  0.1308 -0.0546 -0.7219
 5244TIP3    H137223  -0.017   3.574  15.746  1.2701  0.8298  0.6207
 5244TIP3    H237224   0.028   3.504  15.619 -2.3468 -2.1343  0.8206
 5245TIP3   OH237225   4.795   4.025  16.860 -0.2512  1.2976 -0.7910
 5245TIP3    H137226   4.795   3.933  16.833  0.8541  1.2671 -0.7315
 5245TIP3    H237227   4.823   4.073  16.781  3.8340  1.1399  0.3462
 5246TIP3   OH237228   4.478   4.053  16.250  0.1994 -0.5566  0.5212
 5246TIP3    H137229   4.479   4.138  16.207  1.4119  0.8576  3.0920
 5246TIP3    H237230   4.429   4.067  16.331 -0.0268 -2.4494  0.7670
 5247TIP3   OH237231   2.308   0.442   0.767 -0.0246 -0.4177 -0.0116
 5247TIP3    H137232   2.268   0.374   0.821 -0.2425 -0.3504 -0.0862
 5247TIP3    H237233   2.283   0.524   0.809 -1.7606 -0.2658 -1.2258
 5248TIP3   OH237234   2.206   2.331  12.051 -0.1819  0.3590  0.0499
 5248TIP3    H137235   2.298   2.331  12.024  0.3605  1.0508  1.7423
 5248TIP3    H237236   2.204   2.388  12.129 -2.1703  0.9300 -0.3570
 5249TIP3   OH237237   0.533   5.259   1.194  0.0811  0.4603 -0.7611
 5249TIP3    H137238   0.475   5.183   1.202  1.0864 -0.2891 -0.3307
 5249TIP3    H237239   0.577   5.247   1.110  1.2633 -0.1915 -0.0665
 5250TIP3   OH237240   1.418   0.303  15.086 -0.0257 -0.3503  1.1448
 5250TIP3    H137241   1.364   0.324  15.162  0.7596 -1.0104  1.9091
 5250TIP3    H237242   1.488   0.248  15.121  0.0119 -1.1858 -0.1564
 5251TIP3   OH237243   3.309   3.884  11.067  0.3720 -0.3285  0.1153
 5251TIP3    H137244   3.262   3.900  10.985 -0.8398 -1.1611  0.6063
 5251TIP3    H237245   3.360   3.805  11.050 -0.5581 -1.0161  0.3943
 5252TIP3   OH237246   0.456   3.542   2.991  0.2425 -0.0217 -0.1754
 5252TIP3    H137247   0.365   3.516   3.009  0.8643 -2.0112  0.3343
 5252TIP3    H237248   0.448   3.625   2.944 -1.8837 -0.5924 -0.9503
 5253TIP3   OH237249   3.169   2.179   4.285  0.0718  0.3486 -0.4866
 5253TIP3    H137250   3.224   2.102   4.296 -0.0053  0.2066 -1.0545
 5253TIP3    H237251   3.215   2.248   4.332  0.2103 -0.0092 -0.0861
 5254TIP3   OH237252   0.294   4.242  14.755 -0.3844 -0.1784  0.0031
 5254TIP3    H137253   0.291   4.162  14.702  1.8351 -0.2461 -0.1494
 5254TIP3    H237254   0.284   4.313  14.691 -2.3988 -0.2784  0.1436
 5255TIP3   OH237255   2.283   4.200   5.060  0.0198  0.0214 -0.1446
 5255TIP3    H137256   2.286   4.129   4.996 -0.3241 -0.5530  0.4663
 5255TIP3    H237257   2.190   4.220   5.068  0.2028  1.5460 -1.3835
 5256TIP3   OH237258   1.993   6.679   5.400  0.3438 -0.3369  0.0240
 5256TIP3    H137259   2.011   6.767   5.433 -2.4447  0.1218  0.5690
 5256TIP3    H237260   1.936   6.640   5.466  0.9402 -2.3065 -0.5717
 5257TIP3   OH237261   4.830   3.424   2.393  0.1347 -0.0571  0.1152
 5257TIP3    H137262   4.882   3.388   2.465  0.8597  1.2207  0.2803
 5257TIP3    H237263   4.806   3.512   2.424 -0.7692 -0.0342 -0.6272
 5258TIP3   OH237264   1.438   1.170   5.018  0.2352 -0.1290 -0.1911
 5258TIP3    H137265   1.380   1.176   4.942  2.1218  2.4434 -1.5916
 5258TIP3    H237266   1.412   1.243   5.074  1.2397  0.2502 -0.2020
 5259TIP3   OH237267   2.308   4.666  12.801 -0.1400 -0.2111 -0.6116
 5259TIP3    H137268   2.351   4.735  12.752 -0.4156 -0.2110 -0.8577
 5259TIP3    H237269   2.324   4.586  12.750  1.4276 -0.5926  0.4241
 5260TIP3   OH237270   1.673   4.308   5.312  0.0402  0.1450 -0.6010
 5260TIP3    H137271   1.655   4.216   5.327  0.3193 -0.1553 -1.9902
 5260TIP3    H237272   1.586   4.348   5.302 -0.0655 -0.3418 -1.9249
 5261TIP3   OH237273   1.238   5.488  13.064 -0.2607  0.3702  0.1798
 5261TIP3    H137274   1.209   5.428  13.133 -0.0901  0.2948  0.1860
 5261TIP3    H237275   1.311   5.443  13.023  0.5492  1.0401  0.8611
 5262TIP3   OH237276   3.341   1.308  16.045  0.1000  0.2295  0.0200
 5262TIP3    H137277   3.430   1.319  16.014  0.5883  0.8870  1.5338
 5262TIP3    H237278   3.335   1.216  16.072  0.4212  0.2661  0.2102
 5263TIP3   OH237279   0.454   5.748   1.872  0.2134 -0.4317 -0.7499
 5263TIP3    H137280   0.408   5.830   1.890  0.1636 -0.4300 -0.8817
 5263TIP3    H237281   0.398   5.703   1.808 -0.3080 -1.0404  0.1019
 5264TIP3   OH237282   1.343   2.341  12.396 -0.0861 -0.4977  0.0066
 5264TIP3    H137283   1.434   2.353  12.369 -0.6080 -0.0933 -1.7113
 5264TIP3    H237284   1.323   2.250  12.375 -0.7929  0.0852 -2.0733
 5265TIP3   OH237285   0.573   6.719  14.323  0.6038  0.3703  0.5248
 5265TIP3    H137286   0.562   6.624  14.329 -0.4042  0.4227 -0.2624
 5265TIP3    H237287   0.509   6.754  14.385  0.4499  0.5424  0.2717
 5266TIP3   OH237288   1.807   5.365  15.697 -0.3187  0.2626 -0.3323
 5266TIP3    H137289   1.830   5.416  15.619 -1.4123  0.0970 -0.7925
 5266TIP3    H237290   1.790   5.277  15.664  0.6277 -0.1772  0.3206
 5267TIP3   OH237291   2.824   4.476   0.282  0.1764 -0.3435 -0.1650
 5267TIP3    H137292   2.793   4.550   0.334 -1.8577  0.5705 -2.4904
 5267TIP3    H237293   2.892   4.514   0.226  0.6518 -0.7567  0.1278
 5268TIP3   OH237294   1.639   2.665  12.481  0.2275  0.1442 -0.5076
 5268TIP3    H137295   1.666   2.723  12.410  0.7686  0.1875 -0.2700
 5268TIP3    H237296   1.615   2.583  12.437  3.3588 -0.8578 -0.5444
 5269TIP3   OH237297   6.528   6.581   2.936  0.2956 -0.2455  0.0174
 5269TIP3    H137298   6.530   6.674   2.959  0.5902  0.1910 -1.6188
 5269TIP3    H237299   6.487   6.579   2.849  1.0945 -1.5501 -0.3548
 5270TIP3   OH237300   1.423   2.628  11.262 -0.1896 -0.0161 -0.7379
 5270TIP3    H137301   1.460   2.622  11.351  0.7501  1.8784 -0.9338
 5270TIP3    H237302   1.374   2.547  11.251 -0.2424 -0.3623  1.4732
 5271TIP3   OH237303   1.777   3.325   2.332  0.1731 -0.3144  0.1904
 5271TIP3    H137304   1.793   3.272   2.254  1.2331  0.6625 -0.2905
 5271TIP3    H237305   1.738   3.406   2.298 -1.1981 -0.6500  0.8857
 5272TIP3   OH237306   0.409   5.764   5.096  0.0361  0.1406 -0.3978
 5272TIP3    H137307   0.369   5.700   5.038 -0.8679  0.1405  0.1989
 5272TIP3    H237308   0.379   5.849   5.063  1.6733  0.3298 -1.5224
 5273TIP3   OH237309   2.955   3.816  14.327 -0.1145  0.5505  0.7536
 5273TIP3    H137310   2.984   3.903  14.355  1.7311  0.7466 -1.4574
 5273TIP3    H237311   2.954   3.821  14.232  1.6842 -2.3082  0.4677
 5274TIP3   OH237312   4.495   5.590  12.650 -0.2793  0.5968  0.5705
 5274TIP3    H137313   4.575   5.631  12.616 -0.1370 -1.9742 -2.6511
 5274TIP3    H237314   4.514   5.575  12.743  3.4383 -0.6581 -0.2089
 5275TIP3   OH237315   1.982   2.397  15.573 -0.3793  0.1156 -0.2191
 5275TIP3    H137316   1.915   2.456  15.539 -0.9972 -1.4396 -1.9083
 5275TIP3    H237317   2.035   2.376  15.496  1.1095  0.1072  0.7822
 5276TIP3   OH237318   5.566   5.315   3.249 -0.0202 -0.3618 -0.0964
 5276TIP3    H137319   5.659   5.300   3.265 -0.1794 -0.6563  0.5741
 5276TIP3    H237320   5.560   5.334   3.155  0.8803  0.9997  0.0922
 5277TIP3   OH237321   6.559   1.765  14.713  0.1434 -0.2955 -0.1373
 5277TIP3    H137322   6.547   1.673  14.689  0.3570 -0.2119 -0.5860
 5277TIP3    H237323   6.652   1.782  14.696  0.1040  0.0012 -0.0637
 5278TIP3   OH237324   0.497   1.235  14.781  0.0223 -0.0835 -0.3624
 5278TIP3    H137325   0.406   1.230  14.812 -0.2194  0.7567 -0.9140
 5278TIP3    H237326   0.500   1.176  14.706 -0.8391  1.9713 -2.1199
 5279TIP3   OH237327   2.647   1.805  14.448 -0.0795 -0.4977 -0.4467
 5279TIP3    H137328   2.592   1.849  14.384 -0.8669 -1.0322 -0.1527
 5279TIP3    H237329   2.621   1.713  14.443  0.6241 -0.7183 -0.1386
 5280TIP3   OH237330   2.218   3.920   3.672  0.2257 -0.1602 -0.1033
 5280TIP3    H137331   2.267   3.837   3.675  0.5919 -0.1030 -2.4365
 5280TIP3    H237332   2.186   3.925   3.582  0.7306  2.5187 -0.2135
 5281TIP3   OH237333   1.234   4.126   2.561 -0.5031  0.2743 -0.2252
 5281TIP3    H137334   1.222   4.115   2.466  1.2589  0.5098 -0.5031
 5281TIP3    H237335   1.268   4.042   2.591 -0.3760  0.4347  0.0832
 5282TIP3   OH237336   4.564   3.044   4.985 -0.5904  0.3327 -0.5022
 5282TIP3    H137337   4.598   3.108   4.922  0.2048  0.0917 -0.3215
 5282TIP3    H237338   4.477   3.077   5.007 -0.7783  0.5733 -1.5151
 5283TIP3   OH237339   0.047   2.878  11.952  0.2993 -0.7227 -0.5319
 5283TIP3    H137340   0.084   2.935  12.019 -2.2019  0.7055 -0.2141
 5283TIP3    H237341   0.052   2.790  11.990  1.1251 -0.2584  0.4758
 5284TIP3   OH237342   5.293   2.955  12.490 -0.0103  0.1119  0.2140
 5284TIP3    H137343   5.218   3.015  12.490 -0.0919  0.0109  0.3285
 5284TIP3    H237344   5.369   3.013  12.500  0.2612  0.5766 -3.2839
 5285TIP3   OH237345   1.440   3.977   4.512  0.1135 -0.1493  0.3218
 5285TIP3    H137346   1.530   3.967   4.483  0.3490  0.5732  0.7715
 5285TIP3    H237347   1.399   4.034   4.446  0.8041  1.9732  1.6226
 5286TIP3   OH237348   4.697   4.760  16.913 -0.1434  0.4438 -0.0380
 5286TIP3    H137349   4.679   4.670  16.886 -1.0209  0.2888  0.9660
 5286TIP3    H237350   4.655   4.814  16.845 -1.8866  0.0704  0.6720
 5287TIP3   OH237351   4.863   0.124  15.126  0.3345  1.1454  0.8404
 5287TIP3    H137352   4.830   0.124  15.036  1.5725 -0.5213  0.3563
 5287TIP3    H237353   4.807   0.062  15.173  1.3761 -0.0636  0.5312
 5288TIP3   OH237354   6.054   1.018  11.990 -0.3315 -0.3971  0.4957
 5288TIP3    H137355   6.055   1.109  11.962  1.6432 -0.8253 -1.0288
 5288TIP3    H237356   5.961   0.995  11.997 -0.8695  1.0210 -1.5020
 5289TIP3   OH237357   6.316   1.129   3.413 -0.3706  0.0826 -0.8480
 5289TIP3    H137358   6.343   1.221   3.403  0.0111  0.0285 -0.3227
 5289TIP3    H237359   6.341   1.106   3.502 -1.1981 -0.2941 -0.7095
 5290TIP3   OH237360   4.503   0.916   1.759  0.4737 -0.8781 -0.2543
 5290TIP3    H137361   4.475   0.845   1.702  1.1939 -2.0383  0.7877
 5290TIP3    H237362   4.579   0.954   1.715  0.2663 -0.9328 -0.6666
 5291TIP3   OH237363   3.135   0.021  16.059 -0.0361 -0.2557 -0.0067
 5291TIP3    H137364   3.174  -0.029  15.987  1.2757 -0.3139  0.7091
 5291TIP3    H237365   3.075  -0.040  16.101 -0.2837 -0.4441 -0.6232
 5292TIP3   OH237366   5.686   3.952  12.161  0.2556  0.4612 -0.1308
 5292TIP3    H137367   5.612   3.901  12.127  1.2017 -1.4263  0.5195
 5292TIP3    H237368   5.683   3.939  12.255  1.8339 -0.2373 -0.1574
 5293TIP3   OH237369   4.474   2.380   2.293  0.2278 -0.5719  0.1173
 5293TIP3    H137370   4.440   2.325   2.223  1.2104 -2.2698  0.8916
 5293TIP3    H237371   4.556   2.337   2.319  0.7249  0.9370  1.1888
 5294TIP3   OH237372   3.398   0.027  14.448 -0.2039  0.0098  0.0264
 5294TIP3    H137373   3.383  -0.062  14.417  0.2416 -0.3481  0.7979
 5294TIP3    H237374   3.484   0.051  14.413 -0.1231 -0.0354  0.1923
 5295TIP3   OH237375   6.115   6.523   4.768 -0.0966  0.2401 -0.1912
 5295TIP3    H137376   6.118   6.605   4.818  0.9954 -0.5328  1.0483
 5295TIP3    H237377   6.030   6.485   4.789 -0.3823  0.7752 -0.3472
 5296TIP3   OH237378   3.702   1.507   1.339 -0.0103  0.2729 -0.0498
 5296TIP3    H137379   3.763   1.473   1.274 -0.1532 -0.8632  0.3829
 5296TIP3    H237380   3.697   1.601   1.321  1.9067  0.4004 -0.0439
 5297TIP3   OH237381   1.057   0.817   1.388  0.1584  0.0851 -0.1151
 5297TIP3    H137382   1.022   0.842   1.474  0.4809 -0.1775  0.0936
 5297TIP3    H237383   1.081   0.901   1.348 -1.1667  0.3174 -0.4717
 5298TIP3   OH237384   5.740   2.578   1.524 -0.5316 -0.1451  0.0022
 5298TIP3    H137385   5.661   2.566   1.471  0.3433 -0.1648 -1.3361
 5298TIP3    H237386   5.812   2.572   1.462  0.5666 -0.5810  1.2668
 5299TIP3   OH237387   0.239   1.846   6.148 -0.1624  0.1921 -0.1772
 5299TIP3    H137388   0.329   1.814   6.156 -0.4456 -0.8309 -0.8609
 5299TIP3    H237389   0.248   1.941   6.146  1.0335  0.0907 -1.5343
 5300TIP3   OH237390   2.145   5.373   3.372  0.1257 -0.3142 -0.1253
 5300TIP3    H137391   2.052   5.355   3.385  0.2396 -0.4456  0.5157
 5300TIP3    H237392   2.156   5.464   3.400 -0.0105  0.0487 -1.2131
 5301TIP3   OH237393   3.758   0.293   3.679 -0.2140  0.2188 -0.2113
 5301TIP3    H137394   3.728   0.373   3.723 -0.7527 -0.4405  0.6614
 5301TIP3    H237395   3.849   0.311   3.655 -0.4675  1.2540 -0.4209
 5302TIP3   OH237396   0.867   4.580   2.856  0.0031  0.0239  0.3034
 5302TIP3    H137397   0.906   4.546   2.937 -1.2626 -2.7446 -0.1312
 5302TIP3    H237398   0.937   4.572   2.791  0.1858 -0.3402  0.5405
 5303TIP3   OH237399   0.454   0.579  13.963  0.4479  0.2948  0.0931
 5303TIP3    H137400   0.532   0.620  13.927  0.2665 -2.0349 -3.4468
 5303TIP3    H237401   0.485   0.536  14.043  2.5791  0.2055 -0.7102
 5304TIP3   OH237402   0.895   4.936   4.422  0.0680  0.7406 -0.7752
 5304TIP3    H137403   0.836   4.984   4.364  0.5544  1.7121 -0.4920
 5304TIP3    H237404   0.946   5.004   4.466  1.3299 -0.0642 -0.9334
 5305TIP3   OH237405   2.497   1.429   5.382  0.0783  0.1751 -0.1947
 5305TIP3    H137406   2.551   1.368   5.333 -1.1385 -0.5654 -0.6718
 5305TIP3    H237407   2.417   1.438   5.329 -0.7336  0.3621  1.0154
 5306TIP3   OH237408   0.064   4.931   5.269  0.7496 -0.2304  0.6939
 5306TIP3    H137409  -0.010   4.991   5.280  0.7051  0.2639 -1.8573
 5306TIP3    H237410   0.139   4.980   5.302  0.2079 -0.1925  1.9552
 5307TIP3   OH237411   0.710   6.555   3.816  0.1878 -0.1912 -0.2390
 5307TIP3    H137412   0.796   6.552   3.772  0.8658  0.5548  0.9874
 5307TIP3    H237413   0.707   6.475   3.868  0.3083 -0.0413  0.0019
 5308TIP3   OH237414   5.249   4.036  11.946 -0.0586 -0.2291  0.0288
 5308TIP3    H137415   5.188   3.989  11.889 -2.1421  2.0609  0.2072
 5308TIP3    H237416   5.255   4.123  11.907  2.8803 -0.2318  0.2622
 5309TIP3   OH237417   6.509   3.453   5.990 -0.0831  0.2808 -0.0207
 5309TIP3    H137418   6.441   3.396   5.954  2.7935 -1.3002 -3.6084
 5309TIP3    H237419   6.549   3.401   6.060 -0.8800  0.1880  0.3843
 5310TIP3   OH237420   4.749   3.934  16.589 -0.0071  0.6638  0.1479
 5310TIP3    H137421   4.798   4.014  16.606  1.0622  0.0178  0.2559
 5310TIP3    H237422   4.812   3.876  16.545 -1.5739  0.8884 -2.6142
 5311TIP3   OH237423   2.376   5.241   1.354 -0.1902  0.1204 -0.0529
 5311TIP3    H137424   2.285   5.242   1.385  0.6182 -2.3124  2.9558
 5311TIP3    H237425   2.410   5.328   1.376 -1.3106  0.4282  0.5152
 5312TIP3   OH237426   5.390   4.321  16.338 -0.0719 -0.1923  0.9979
 5312TIP3    H137427   5.471   4.369  16.324  0.2005 -1.0999 -0.8047
 5312TIP3    H237428   5.322   4.388  16.335  0.4007  0.2601 -0.3171
 5313TIP3   OH237429   3.355   5.992   4.302 -0.1349  0.4988  0.1161
 5313TIP3    H137430   3.398   5.922   4.251  1.7253  1.0132  0.8728
 5313TIP3    H237431   3.294   6.032   4.241  0.3800 -0.3713 -1.0087
 5314TIP3   OH237432   2.922   2.558  13.994  0.7567  0.2999  0.0087
 5314TIP3    H137433   2.982   2.629  14.016  0.7686 -0.0181  1.0647
 5314TIP3    H237434   2.848   2.570  14.053 -1.5160  2.2141 -2.9647
 5315TIP3   OH237435   2.781   5.424   2.047  0.8910  0.8144 -0.4631
 5315TIP3    H137436   2.740   5.423   1.960  1.8241  1.4037 -0.9298
 5315TIP3    H237437   2.840   5.349   2.047  0.2267  0.2709  0.0212
 5316TIP3   OH237438   6.510   4.462  10.481 -0.2403  0.1761  0.5526
 5316TIP3    H137439   6.554   4.547  10.490 -1.6259  1.2438 -1.6802
 5316TIP3    H237440   6.562   4.416  10.415 -0.3347 -0.0921  0.6669
 5317TIP3   OH237441   0.214   1.240  14.874  0.1842  0.6966 -0.5164
 5317TIP3    H137442   0.126   1.205  14.887  0.3348  0.7176  0.6855
 5317TIP3    H237443   0.200   1.322  14.827 -0.2948 -0.1085 -1.8477
 5318TIP3   OH237444   2.039   0.867  13.231  0.0825  0.3370  0.2983
 5318TIP3    H137445   2.044   0.906  13.318  0.3937  1.3443 -0.1520
 5318TIP3    H237446   2.117   0.812  13.225  1.0959  1.7313 -0.0049
 5319TIP3   OH237447   4.224   5.521  12.648  0.0063 -0.5920 -0.4980
 5319TIP3    H137448   4.307   5.537  12.693 -0.2040  0.2431 -0.3854
 5319TIP3    H237449   4.247   5.467  12.573  0.5634 -0.8642 -0.1394
 5320TIP3   OH237450   0.201   0.540  10.814 -1.0523  0.4007 -0.7276
 5320TIP3    H137451   0.243   0.453  10.811 -1.1882  0.2123  1.2846
 5320TIP3    H237452   0.272   0.599  10.839 -1.5325  0.3827  0.7742
 5321TIP3   OH237453   5.635   3.113   2.266 -0.0857 -0.4224 -0.0722
 5321TIP3    H137454   5.549   3.146   2.291  0.5167  0.8389  0.4014
 5321TIP3    H237455   5.691   3.131   2.341  1.2015  1.2522 -1.3408
 5322TIP3   OH237456   4.890   1.777   1.947  0.4667  0.5610  0.1021
 5322TIP3    H137457   4.896   1.864   1.907  0.1972  0.8973  0.7709
 5322TIP3    H237458   4.931   1.718   1.884 -1.0032  0.8893 -1.2515
 5323TIP3   OH237459   3.132   0.203   4.467  0.5389  0.3632  0.0938
 5323TIP3    H137460   3.218   0.225   4.504  0.0077  0.1424  1.5066
 5323TIP3    H237461   3.150   0.127   4.411  1.5433  1.3729 -1.0367
 5324TIP3   OH237462   1.803   4.200   1.763 -0.1546  0.0541 -0.0980
 5324TIP3    H137463   1.719   4.226   1.725  0.2894  1.1321 -0.3743
 5324TIP3    H237464   1.850   4.282   1.777  0.7512 -0.5148  0.3073
 5325TIP3   OH237465   5.376   1.600   3.235  0.2170 -0.2055 -0.5357
 5325TIP3    H137466   5.449   1.575   3.178 -1.6608 -2.2905 -2.2210
 5325TIP3    H237467   5.369   1.528   3.298  0.3395  0.5937  0.4146
 5326TIP3   OH237468   4.545   4.367  12.133  0.6496  0.0406  0.0545
 5326TIP3    H137469   4.604   4.320  12.192  0.1245 -0.1405  0.4386
 5326TIP3    H237470   4.470   4.390  12.187  0.9100  1.3776 -0.1107
 5327TIP3   OH237471   5.310   0.384   0.677 -0.4510  0.3803  0.3940
 5327TIP3    H137472   5.370   0.336   0.620 -0.9937 -1.9038  1.6227
 5327TIP3    H237473   5.223   0.365   0.642 -0.8619 -1.7475  2.3098
 5328TIP3   OH237474   0.577   6.739  11.318 -0.6942 -0.5765 -0.2878
 5328TIP3    H137475   0.601   6.798  11.246 -2.3905 -0.5754 -0.9067
 5328TIP3    H237476   0.660   6.706  11.351  0.6571  4.1872  1.9261
 5329TIP3   OH237477   1.625   0.195   1.246  0.1058  0.2189  0.2219
 5329TIP3    H137478   1.551   0.231   1.196 -0.4261  1.2935  1.7113
 5329TIP3    H237479   1.676   0.146   1.181 -1.2159  0.5255 -1.1067
 5330TIP3   OH237480   3.184   4.139  16.843 -0.1982 -0.1951 -0.4515
 5330TIP3    H137481   3.221   4.173  16.761  0.9323 -1.1032 -0.3347
 5330TIP3    H237482   3.181   4.044  16.831 -1.9026 -0.2045 -0.1876
 5331TIP3   OH237483   0.869   4.207   2.643  0.1238  0.2245  0.5115
 5331TIP3    H137484   0.776   4.185   2.645 -0.0507  0.9900  2.1985
 5331TIP3    H237485   0.885   4.255   2.724  1.6047  1.7070 -0.5872
 5332TIP3   OH237486   5.100   6.523   2.515  0.1490 -0.0611 -0.0886
 5332TIP3    H137487   5.181   6.561   2.548  0.7348 -1.4684  0.1480
 5332TIP3    H237488   5.059   6.594   2.465  3.1023 -0.2089 -3.0790
 5333TIP3   OH237489   1.611   4.687  16.840 -0.5314  0.9656  0.0535
 5333TIP3    H137490   1.656   4.657  16.918  1.9739 -1.4703 -2.1149
 5333TIP3    H237491   1.674   4.746  16.797 -0.5942 -0.0536 -1.5194
 5334TIP3   OH237492   1.199   4.064   2.900 -0.7805 -0.0170  0.0387
 5334TIP3    H137493   1.202   4.023   2.986  1.1899  1.0324  0.5276
 5334TIP3    H237494   1.268   4.020   2.850 -1.7543 -0.4603 -0.9582
 5335TIP3   OH237495   5.563   0.050  13.654 -0.1301  0.2691 -0.4390
 5335TIP3    H137496   5.594   0.067  13.744  0.4482 -1.3916 -0.2948
 5335TIP3    H237497   5.630  -0.008  13.617 -1.1439 -0.2794 -1.4419
 5336TIP3   OH237498   2.472   5.728  13.257  0.0499 -0.0214  0.3934
 5336TIP3    H137499   2.379   5.713  13.239  0.5615 -0.5966 -2.1242
 5336TIP3    H237500   2.501   5.648  13.301  0.1039 -1.4722 -2.1284
 5337TIP3   OH237501   6.275   5.009  14.108  0.3031 -0.0825 -0.3072
 5337TIP3    H137502   6.281   5.096  14.069 -1.6360 -0.0595 -0.6687
 5337TIP3    H237503   6.272   5.024  14.202  0.4868  0.1894 -0.3434
 5338TIP3   OH237504   4.259   4.930  17.167 -0.2386 -0.3171 -0.4862
 5338TIP3    H137505   4.213   4.924  17.084 -0.9576  0.0732 -0.1262
 5338TIP3    H237506   4.262   5.024  17.186  0.8723 -0.3139 -0.5844
 5339TIP3   OH237507   2.266   6.698  11.024  0.3410  0.2616 -0.1525
 5339TIP3    H137508   2.189   6.673  10.971  0.4094  0.7471 -0.4792
 5339TIP3    H237509   2.234   6.694  11.114  0.1385 -0.2705 -0.2374
 5340TIP3   OH237510   0.563   0.819  15.469  0.1125 -0.0738 -0.4156
 5340TIP3    H137511   0.545   0.791  15.559 -1.1784  0.2971 -0.5313
 5340TIP3    H237512   0.481   0.860  15.440  1.5738  3.0193 -0.5642
 5341TIP3   OH237513   6.347   2.214   3.195  0.0422  0.2561  0.0401
 5341TIP3    H137514   6.301   2.295   3.215 -0.3334  0.1223 -0.2707
 5341TIP3    H237515   6.278   2.151   3.177  0.3381 -0.0859  0.1011
 5342TIP3   OH237516   1.473   0.486  14.891  0.3376  0.0585  0.2568
 5342TIP3    H137517   1.453   0.413  14.950 -0.8613  0.3080  0.1861
 5342TIP3    H237518   1.406   0.481  14.823  0.2373  1.2226  0.2546
 5343TIP3   OH237519   0.543   2.245   2.253  0.9021  0.0578  0.1921
 5343TIP3    H137520   0.594   2.167   2.275  0.3680  0.4867  3.3638
 5343TIP3    H237521   0.606   2.304   2.211  1.9619 -1.0120  0.2330
 5344TIP3   OH237522   1.736   2.507   3.314  0.8717 -0.6893  0.4071
 5344TIP3    H137523   1.800   2.564   3.272 -1.1051 -0.3095 -2.3516
 5344TIP3    H237524   1.716   2.550   3.397  0.7494  1.7319 -0.8005
 5345TIP3   OH237525   3.392   5.836  12.058 -0.9078  0.2489 -0.0957
 5345TIP3    H137526   3.344   5.773  12.112 -1.9882 -0.5222 -1.8607
 5345TIP3    H237527   3.361   5.820  11.969  0.6620  1.5987 -0.9454
 5346TIP3   OH237528   5.877   6.527  14.206 -0.4053  0.4840 -0.0961
 5346TIP3    H137529   5.964   6.497  14.180 -0.1202  1.0472  0.1863
 5346TIP3    H237530   5.891   6.617  14.235 -1.1720  0.7629 -0.5668
 5347TIP3   OH237531   2.582   1.652  11.295 -0.0083 -0.0268 -0.0245
 5347TIP3    H137532   2.504   1.695  11.260  0.2774  0.7718  0.2839
 5347TIP3    H237533   2.655   1.695  11.251  0.3208  0.4301  0.9470
 5348TIP3   OH237534   6.147   6.181   6.641  0.1345 -0.0571 -0.0474
 5348TIP3    H137535   6.144   6.107   6.702 -0.6010 -1.0816 -1.2567
 5348TIP3    H237536   6.163   6.140   6.556  0.2810  1.2469 -0.6651
 5349TIP3   OH237537   5.047   6.571  12.209 -0.1491 -0.6540  0.3005
 5349TIP3    H137538   5.118   6.616  12.163 -1.6097  1.8840  0.3131
 5349TIP3    H237539   5.077   6.481  12.217  3.7975  0.5678  1.7285
 5350TIP3   OH237540   4.750   0.859  12.363 -0.6227 -0.5106  0.2430
 5350TIP3    H137541   4.784   0.835  12.277 -1.3174 -1.7808  0.2964
 5350TIP3    H237542   4.810   0.818  12.425 -0.7791 -0.5647  0.3590
 5351TIP3   OH237543   4.811   2.928  11.328  0.3717 -0.0841  0.1469
 5351TIP3    H137544   4.866   2.865  11.374  0.2438 -0.8164 -0.6856
 5351TIP3    H237545   4.856   3.012  11.340  0.9873 -0.4625  0.5474
 5352TIP3   OH237546   2.288   3.959   2.168 -0.6822 -0.5148 -0.0515
 5352TIP3    H137547   2.251   3.875   2.197  0.5754 -0.6908  1.1611
 5352TIP3    H237548   2.349   3.934   2.098 -0.6420 -0.5625  0.0001
 5353TIP3   OH237549   6.698   4.630  15.519 -0.0055  0.0751 -0.0522
 5353TIP3    H137550   6.642   4.707  15.528  1.5783  1.3107 -0.3106
 5353TIP3    H237551   6.650   4.560  15.564 -1.6435  1.1127 -0.1122
 5354TIP3   OH237552   2.357   3.234   5.982  0.1979  0.0026 -0.0093
 5354TIP3    H137553   2.362   3.237   6.077 -0.4277 -0.8979  0.0643
 5354TIP3    H237554   2.315   3.317   5.957  1.4242  0.7720  0.3928
 5355TIP3   OH237555   6.365   1.530  13.899 -0.4120 -0.0512 -0.1379
 5355TIP3    H137556   6.372   1.613  13.850  0.0064 -0.8765 -1.5236
 5355TIP3    H237557   6.455   1.500  13.907 -0.4596  0.0885  1.2490
 5356TIP3   OH237558   3.046   4.477   1.730  0.5731 -0.0584 -0.7536
 5356TIP3    H137559   3.088   4.425   1.799 -0.3372  0.9375  0.5959
 5356TIP3    H237560   2.980   4.418   1.693  0.3704 -0.2713 -0.0687
 5357TIP3   OH237561   0.817   5.850   1.083 -0.4202  0.1337  0.1517
 5357TIP3    H137562   0.866   5.786   1.032  0.4494 -0.5312  1.7384
 5357TIP3    H237563   0.785   5.801   1.158 -1.0120  1.2341  0.6423
 5358TIP3   OH237564   4.221   6.047   2.532  0.4163  0.4469  0.1212
 5358TIP3    H137565   4.194   6.019   2.620  1.4266 -1.5946 -0.1663
 5358TIP3    H237566   4.172   5.990   2.473  0.4219  1.2008 -0.6211
 5359TIP3   OH237567   4.238   1.882   0.610  0.1551  0.2165 -0.1633
 5359TIP3    H137568   4.160   1.932   0.633  0.5787  0.5604  0.5458
 5359TIP3    H237569   4.222   1.795   0.644  0.4271  0.5061  0.7313
 5360TIP3   OH237570   3.216   2.919   1.072 -0.0494 -0.1085  0.7666
 5360TIP3    H137571   3.245   2.985   1.010 -2.3516 -2.3457 -3.0720
 5360TIP3    H237572   3.286   2.853   1.071  0.0995  0.0460  0.8984
 5361TIP3   OH237573   0.027   5.764   4.261  0.6961  0.4396 -0.1120
 5361TIP3    H137574  -0.037   5.718   4.314  0.5647 -1.0590 -1.4698
 5361TIP3    H237575   0.111   5.724   4.284  1.0900  1.9112  1.1515
 5362TIP3   OH237576   5.844   2.020   0.469 -0.3192  0.2187 -0.7967
 5362TIP3    H137577   5.809   2.107   0.490 -2.8025 -0.6503 -0.9804
 5362TIP3    H237578   5.781   1.985   0.406  0.3298 -1.9219 -0.3062
 5363TIP3   OH237579   0.253   6.497   2.752 -0.9582  0.0266 -0.3244
 5363TIP3    H137580   0.255   6.469   2.844  0.7414  0.6500 -0.1318
 5363TIP3    H237581   0.237   6.591   2.757 -0.3498  0.1469 -0.6422
 5364TIP3   OH237582   0.971   6.243   2.879 -0.5598 -0.5058 -0.2348
 5364TIP3    H137583   1.048   6.234   2.823 -0.9616 -0.8954 -0.7411
 5364TIP3    H237584   0.990   6.319   2.935 -1.1294  1.4584 -2.5350
 5365TIP3   OH237585   2.677   0.199   0.815 -0.3465  0.2734  0.2823
 5365TIP3    H137586   2.690   0.272   0.755 -1.8213  0.3127 -0.0333
 5365TIP3    H237587   2.672   0.239   0.902 -0.4836  0.4868  0.1777
 5366TIP3   OH237588   4.401   4.254   5.930  0.3531 -0.6889  0.5219
 5366TIP3    H137589   4.349   4.178   5.904  1.2839 -1.5968  1.2270
 5366TIP3    H237590   4.385   4.318   5.862 -0.5096 -1.4937 -0.0611
 5367TIP3   OH237591   5.226   0.666  17.040  0.5498 -0.1452  0.0868
 5367TIP3    H137592   5.190   0.603  16.978  2.5811 -1.9171  0.6150
 5367TIP3    H237593   5.317   0.679  17.012  0.3392  2.2844  0.2514
 5368TIP3   OH237594   6.630   4.987   1.580 -0.8595  0.2739 -0.2123
 5368TIP3    H137595   6.636   5.005   1.674  0.0351  0.2899 -0.2629
 5368TIP3    H237596   6.580   4.906   1.574 -1.5222  0.6463  0.2406
 5369TIP3   OH237597   4.472   6.590   5.453  0.1856  0.2941 -0.4720
 5369TIP3    H137598   4.384   6.617   5.428  0.3060 -0.7765 -2.2678
 5369TIP3    H237599   4.461   6.501   5.488  0.4984  0.2702 -0.4280
 5370TIP3   OH237600   0.973   5.680  11.137 -0.0174 -1.2546 -0.1428
 5370TIP3    H137601   0.950   5.675  11.044 -0.7100  0.7598 -0.1189
 5370TIP3    H237602   1.026   5.602  11.152 -1.0122 -2.3510 -1.8982
 5371TIP3   OH237603   0.709   0.118  16.486 -0.2337  0.1101 -0.2931
 5371TIP3    H137604   0.628   0.134  16.438  0.4169  2.0384 -0.8432
 5371TIP3    H237605   0.716   0.191  16.547  0.1281 -1.0789  1.1466
 5372TIP3   OH237606   3.894   5.677  17.026 -0.2926  0.4398 -0.6462
 5372TIP3    H137607   3.969   5.629  17.063 -0.2339 -1.1584 -2.6760
 5372TIP3    H237608   3.934   5.751  16.981 -0.0928  0.5299 -0.3285
 5373TIP3   OH237609   4.944   6.421  11.930  0.7503  0.1877  0.2827
 5373TIP3    H137610   4.850   6.425  11.947  0.6744 -0.9857  0.1972
 5373TIP3    H237611   4.979   6.365  11.999  1.2121 -0.3226 -0.3587
 5374TIP3   OH237612   2.679   5.776   2.858  0.0612  0.0667 -0.2793
 5374TIP3    H137613   2.649   5.841   2.921  2.4580 -1.3467  2.6019
 5374TIP3    H237614   2.646   5.693   2.891  2.0423 -0.8187 -0.3312
 5375TIP3   OH237615   3.410   5.737   2.806 -0.4448 -0.2965  0.1028
 5375TIP3    H137616   3.495   5.698   2.788 -0.1351 -0.9296  2.5244
 5375TIP3    H237617   3.412   5.821   2.761  1.0758 -0.6999 -0.6548
 5376TIP3   OH237618   4.059   5.018  13.026  0.1716 -0.6121 -0.9328
 5376TIP3    H137619   4.151   4.998  13.046  0.4030 -1.6343 -2.8709
 5376TIP3    H237620   4.027   4.941  12.980 -2.3488 -1.2224  1.5703
 5377TIP3   OH237621   5.616   5.201  16.244  0.0256 -0.2517 -0.1893
 5377TIP3    H137622   5.672   5.182  16.168  1.3164  0.8595  0.4400
 5377TIP3    H237623   5.591   5.293  16.232 -0.1173 -0.1997  0.5010
 5378TIP3   OH237624   4.744   3.106  11.673  0.3391  1.0277 -0.1118
 5378TIP3    H137625   4.772   3.196  11.655 -0.2096  1.2466  0.1139
 5378TIP3    H237626   4.660   3.115  11.718  0.1437  0.3924 -0.3301
 5379TIP3   OH237627   4.811   6.626   4.890  0.3669  0.9814  0.0167
 5379TIP3    H137628   4.742   6.560   4.895 -0.8560  2.1135 -1.0827
 5379TIP3    H237629   4.872   6.592   4.825  0.6652  0.1539  0.7107
 5380TIP3   OH237630   4.575   0.516  17.193  0.5969  0.1024 -0.3381
 5380TIP3    H137631   4.556   0.586  17.255  1.4541  1.4406 -1.5267
 5380TIP3    H237632   4.639   0.461  17.237  1.5308  1.2865 -0.1822
 5381TIP3   OH237633   2.540   6.193  17.051 -0.2906  0.1856  0.4356
 5381TIP3    H137634   2.509   6.160  17.136  0.5398  0.9338  1.0396
 5381TIP3    H237635   2.630   6.163  17.045 -0.2005  0.5263  0.0204
 5382TIP3   OH237636   3.130   5.409   1.576 -0.2084  0.4522 -0.3977
 5382TIP3    H137637   3.037   5.413   1.556 -0.7443 -0.6652  1.6251
 5382TIP3    H237638   3.137   5.439   1.666  1.3804  0.3634 -0.4545
 5383TIP3   OH237639   0.171   0.478   3.182  0.4002 -0.1476  0.3151
 5383TIP3    H137640   0.126   0.560   3.202  0.1330 -0.1760 -0.1488
 5383TIP3    H237641   0.167   0.427   3.263  2.2725  1.0596  1.2549
 5384TIP3   OH237642   5.783   0.593  13.537 -0.1558 -0.1257 -0.0304
 5384TIP3    H137643   5.769   0.499  13.544 -0.5044 -0.0455  0.3771
 5384TIP3    H237644   5.777   0.625  13.627 -1.2811  0.4513 -0.2905
 5385TIP3   OH237645   3.218   2.900   3.665 -0.0078  0.1615  0.4890
 5385TIP3    H137646   3.257   2.970   3.717  1.6643  0.1081 -0.6085
 5385TIP3    H237647   3.293   2.855   3.626 -1.0878 -1.5924  0.3322
 5386TIP3   OH237648   4.838   6.645  13.353 -0.4572 -0.2191  0.0671
 5386TIP3    H137649   4.766   6.683  13.403  0.3761  1.6390 -0.0592
 5386TIP3    H237650   4.852   6.559  13.392 -0.7680  0.6059  2.0839
 5387TIP3   OH237651   4.185   3.922   2.244 -0.9765 -0.3763 -0.0376
 5387TIP3    H137652   4.210   3.936   2.152 -0.4369 -0.6554  0.0588
 5387TIP3    H237653   4.268   3.930   2.292 -1.4508  0.9782  0.5705
 5388TIP3   OH237654   6.000   2.437  12.127  0.1203 -0.5938  0.1618
 5388TIP3    H137655   6.026   2.354  12.087  0.0045 -0.1373 -0.9097
 5388TIP3    H237656   6.064   2.500  12.094 -1.4611  0.2853 -1.4262
 5389TIP3   OH237657   0.960   4.876  15.212  0.0312  0.6030  0.3820
 5389TIP3    H137658   1.026   4.943  15.194  0.4307 -0.4414 -2.5010
 5389TIP3    H237659   1.011   4.797  15.231 -0.4343  0.4270  0.9369
 5390TIP3   OH237660   0.513   4.641  12.428  0.2092  0.3406  0.2719
 5390TIP3    H137661   0.559   4.560  12.448 -0.8435 -0.1168  0.9153
 5390TIP3    H237662   0.497   4.681  12.514 -2.3226 -0.5013  0.2784
 5391TIP3   OH237663   0.240   3.005   4.511 -0.0079 -0.4754 -0.4349
 5391TIP3    H137664   0.303   2.991   4.440  0.3582 -0.0169 -0.2083
 5391TIP3    H237665   0.177   3.067   4.475 -0.0805 -0.5920 -0.5105
 5392TIP3   OH237666   4.540   0.937   0.043 -0.2660  0.1731 -0.2072
 5392TIP3    H137667   4.519   0.850   0.078 -0.4596  0.3854  0.2077
 5392TIP3    H237668   4.478   0.996   0.086 -1.4139  0.2591 -1.9009
 5393TIP3   OH237669   0.751   1.478  16.360 -0.3456  0.2223  0.4263
 5393TIP3    H137670   0.773   1.466  16.268 -0.6480  0.1760  0.3583
 5393TIP3    H237671   0.709   1.396  16.386  0.6650 -0.1687  0.8884
 5394TIP3   OH237672   3.521   1.547   5.651  0.1741 -0.6480  0.0126
 5394TIP3    H137673   3.479   1.596   5.581 -0.4902  1.0522  1.5164
 5394TIP3    H237674   3.449   1.499   5.693  0.6044 -1.8573 -0.5785
 5395TIP3   OH237675   6.165   3.249  10.965  0.5445 -0.1885 -0.1041
 5395TIP3    H137676   6.074   3.244  10.937  0.5764  1.1455 -0.5273
 5395TIP3    H237677   6.214   3.270  10.885  0.8560  1.8832  0.5645
 5396TIP3   OH237678   2.325   3.048   5.463  0.8121  0.3109 -0.0959
 5396TIP3    H137679   2.417   3.050   5.437  0.3247  0.9874 -1.9264
 5396TIP3    H237680   2.327   3.039   5.559  2.7492 -0.5497 -0.1729
 5397TIP3   OH237681   3.236   6.774  14.663 -0.2605 -0.2319 -0.2702
 5397TIP3    H137682   3.311   6.769  14.723  0.1414 -0.7485 -0.8084
 5397TIP3    H237683   3.270   6.820  14.586 -0.7946  0.4932 -0.0910
 5398TIP3   OH237684   0.430   5.125  13.825  0.3320  1.0065  1.0355
 5398TIP3    H137685   0.344   5.096  13.856  0.2188  2.7372  2.5049
 5398TIP3    H237686   0.484   5.130  13.904  1.1940  1.8880  0.4153
 5399TIP3   OH237687   0.106   0.230  15.018 -0.1131  0.2799 -0.1913
 5399TIP3    H137688   0.068   0.171  14.952  1.0506  0.6890 -1.2581
 5399TIP3    H237689   0.195   0.197  15.031 -0.9746 -1.1825  2.9046
 5400TIP3   OH237690   4.807   0.201  16.111  0.2662  0.1732  0.1132
 5400TIP3    H137691   4.846   0.140  16.174 -0.2120  1.0732  1.3152
 5400TIP3    H237692   4.715   0.177  16.109  0.0173  1.0078  0.8133
 5401TIP3   OH237693   6.218   2.735  12.935 -0.1719 -0.2524  0.2834
 5401TIP3    H137694   6.139   2.789  12.928 -0.8432 -1.3307 -0.8588
 5401TIP3    H237695   6.264   2.747  12.852 -0.1077 -1.0666  0.1898
 5402TIP3   OH237696   2.955   5.531   0.839 -0.3481 -0.0947 -0.1126
 5402TIP3    H137697   2.901   5.610   0.840  0.3016  0.3501  0.4847
 5402TIP3    H237698   2.921   5.478   0.911  0.7757  0.7370  1.0894
 5403TIP3   OH237699   1.376   1.933  10.701 -0.1307 -0.5194 -0.0189
 5403TIP3    H137700   1.354   1.855  10.753  4.1307 -2.9896 -1.4154
 5403TIP3    H237701   1.395   1.898  10.614  2.8979  1.8624 -0.4630
 5404TIP3   OH237702   3.802   0.798   0.155  0.2974 -0.3008  0.1041
 5404TIP3    H137703   3.714   0.836   0.161  0.2703 -0.5057  1.1059
 5404TIP3    H237704   3.849   0.857   0.096 -0.5354 -0.2418 -0.5219
 5405TIP3   OH237705   3.894   4.652   3.494  0.4978 -0.5563  0.1566
 5405TIP3    H137706   3.946   4.587   3.542  1.1054  0.4771  0.9376
 5405TIP3    H237707   3.941   4.664   3.411  2.0387  0.9877  1.1903
 5406TIP3   OH237708   3.839   2.116  12.227  0.8815 -0.2538  0.6587
 5406TIP3    H137709   3.758   2.114  12.277 -0.4892  1.1243 -1.3826
 5406TIP3    H237710   3.850   2.026  12.195  0.3644 -0.5298  1.2524
 5407TIP3   OH237711   1.079   3.308   6.596 -0.0297 -0.1528 -0.3672
 5407TIP3    H137712   0.989   3.276   6.586 -0.1006 -0.2166  0.4035
 5407TIP3    H237713   1.089   3.372   6.526 -0.3209 -0.9063 -1.1096
 5408TIP3   OH237714   2.845   4.926  14.156 -0.6853  0.2536 -0.1050
 5408TIP3    H137715   2.805   4.981  14.223 -0.0531 -1.4805  1.8054
 5408TIP3    H237716   2.777   4.862  14.133 -0.7787  0.6201 -0.9054
 5409TIP3   OH237717   6.400   6.722  12.905 -0.1898  0.4725 -0.6355
 5409TIP3    H137718   6.441   6.643  12.868 -0.7948 -0.4044  0.4962
 5409TIP3    H237719   6.315   6.691  12.938  0.3858  1.1573  1.6118
 5410TIP3   OH237720   5.663   5.525   4.878 -0.2749 -0.3522  0.1517
 5410TIP3    H137721   5.626   5.613   4.880 -0.1805 -0.3195  1.1767
 5410TIP3    H237722   5.599   5.473   4.830 -1.0434 -0.0248  0.8016
 5411TIP3   OH237723   6.618   5.901   1.929  0.0916  0.4811 -0.1575
 5411TIP3    H137724   6.584   5.977   1.880 -1.1485 -0.3798 -0.6978
 5411TIP3    H237725   6.593   5.825   1.876 -1.4987 -0.5204  1.8796
 5412TIP3   OH237726   5.019   1.122  14.131 -0.8833 -0.7679 -0.9052
 5412TIP3    H137727   4.992   1.162  14.048 -0.7122 -0.6852 -0.9215
 5412TIP3    H237728   5.088   1.180  14.164 -0.1586 -1.4123 -1.2644
 5413TIP3   OH237729   0.684   1.628  13.684 -0.2307 -0.4808 -0.0551
 5413TIP3    H137730   0.762   1.654  13.733  0.2411 -0.6720 -0.6777
 5413TIP3    H237731   0.657   1.707  13.638 -0.8428 -0.2275  0.7205
 5414TIP3   OH237732   2.109   2.504  16.272 -0.5124 -0.0950  0.5621
 5414TIP3    H137733   2.115   2.598  16.253  1.0082 -0.4425 -0.9622
 5414TIP3    H237734   2.180   2.487  16.332 -0.4449 -0.3587  0.4097
 5415TIP3   OH237735   0.488   4.359  12.793  0.1944 -0.3797 -0.1163
 5415TIP3    H137736   0.418   4.393  12.848  0.9085  1.1314 -0.0759
 5415TIP3    H237737   0.566   4.365  12.848  1.0498  1.7911 -1.4256
 5416TIP3   OH237738   5.112   3.290   3.083  0.4208 -0.3811  0.6764
 5416TIP3    H137739   5.122   3.352   3.154 -0.4364  0.4317  0.1193
 5416TIP3    H237740   5.025   3.308   3.048 -0.1109 -2.3298  0.8961
 5417TIP3   OH237741   5.812   0.568   2.345 -0.0842  0.0102  0.8289
 5417TIP3    H137742   5.767   0.590   2.427  0.0683 -0.1673  0.9611
 5417TIP3    H237743   5.762   0.614   2.278  0.9299  1.8081  1.2163
 5418TIP3   OH237744   4.536   4.507  14.365 -0.5231 -0.0911 -0.7673
 5418TIP3    H137745   4.494   4.463  14.439 -2.0044  0.3876 -1.2889
 5418TIP3    H237746   4.602   4.446  14.335 -0.4905 -0.6614  0.4076
 5419TIP3   OH237747   1.258   6.452  11.468 -0.0196  0.0254  0.1417
 5419TIP3    H137748   1.345   6.473  11.501 -0.6033  0.4933  1.4527
 5419TIP3    H237749   1.248   6.358  11.484 -0.5654  0.3650  2.0761
 5420TIP3   OH237750   4.556   3.467  11.021 -0.5835  0.0315  0.1358
 5420TIP3    H137751   4.484   3.405  11.023 -0.0448 -0.5815  0.8115
 5420TIP3    H237752   4.635   3.413  11.019 -0.1245  0.6553 -1.8294
 5421TIP3   OH237753   1.611   5.712   3.000  0.4145  0.1132  0.5223
 5421TIP3    H137754   1.526   5.754   2.987  0.6729  0.1057 -1.5096
 5421TIP3    H237755   1.593   5.618   2.994  0.7069  0.1379 -1.1801
 5422TIP3   OH237756   4.315   5.559   0.448 -0.1930  0.5168 -0.0924
 5422TIP3    H137757   4.402   5.518   0.445  0.7468  2.3177  1.1304
 5422TIP3    H237758   4.256   5.487   0.469  1.0587 -0.6542 -0.4309
 5423TIP3   OH237759   6.250   1.831  13.256 -0.2158  0.6377 -0.3198
 5423TIP3    H137760   6.215   1.860  13.172  0.5045 -0.6529 -1.0995
 5423TIP3    H237761   6.328   1.780  13.233  1.1324  1.8972  1.2488
 5424TIP3   OH237762   2.602   0.514  14.444  0.2834 -0.2019  0.0629
 5424TIP3    H137763   2.612   0.549  14.533  1.5341  1.5151 -0.6893
 5424TIP3    H237764   2.508   0.510  14.430  0.0732 -0.3314  1.4024
 5425TIP3   OH237765   0.735   1.884   3.565  0.2621  0.0641 -0.1854
 5425TIP3    H137766   0.800   1.876   3.495 -0.1167  1.0943 -0.6796
 5425TIP3    H237767   0.745   1.974   3.597 -0.4422  0.0119  0.2054
 5426TIP3   OH237768   5.152   1.201   2.134 -0.2697  0.1635  0.4217
 5426TIP3    H137769   5.137   1.277   2.078 -1.6387  0.5035  1.2011
 5426TIP3    H237770   5.239   1.169   2.109  0.4815  2.1624  0.2803
 5427TIP3   OH237771   0.934   0.868   4.072  0.0392 -0.6241  0.4298
 5427TIP3    H137772   0.895   0.936   4.128 -1.8550 -1.2395 -0.0608
 5427TIP3    H237773   0.927   0.788   4.124 -1.2240 -1.0992 -0.4308
 5428TIP3   OH237774   1.520   3.729   0.549 -0.3273  0.3182  0.5080
 5428TIP3    H137775   1.504   3.648   0.597 -0.7268  0.6740  0.9876
 5428TIP3    H237776   1.586   3.705   0.483 -1.2528 -0.6486 -0.0885
 5429TIP3   OH237777   3.169   5.101   4.471 -1.1038  0.3349 -0.2127
 5429TIP3    H137778   3.173   5.173   4.408 -3.0818  1.3799  0.7774
 5429TIP3    H237779   3.183   5.022   4.417 -3.7169  1.0996 -2.1995
 5430TIP3   OH237780   6.523   3.353  12.958 -0.1913  0.0409 -0.0250
 5430TIP3    H137781   6.548   3.438  12.920  2.4345  0.6753  2.7341
 5430TIP3    H237782   6.432   3.341  12.931 -0.0774  2.7913 -2.1137
 5431TIP3   OH237783   3.601   6.095  15.918 -0.5091 -0.7332  0.4458
 5431TIP3    H137784   3.664   6.166  15.926 -1.1322 -0.0601 -0.3890
 5431TIP3    H237785   3.524   6.125  15.967 -0.9697 -0.5783 -0.3478
 5432TIP3   OH237786   1.309   2.744   1.275 -0.1621 -0.0562  0.5223
 5432TIP3    H137787   1.243   2.796   1.320 -0.0422  0.0517  0.5750
 5432TIP3    H237788   1.392   2.789   1.293  0.1918 -1.2474  2.0861
 5433TIP3   OH237789   2.386   4.638   2.201  0.2054  0.0185 -0.2009
 5433TIP3    H137790   2.324   4.712   2.201  0.7365  0.5927 -3.0525
 5433TIP3    H237791   2.468   4.676   2.234  0.2913  0.5470 -0.9961
 5434TIP3   OH237792   6.097   2.570   4.612  0.1579 -0.4077 -0.2281
 5434TIP3    H137793   6.151   2.512   4.557  0.1393  1.3244 -2.2188
 5434TIP3    H237794   6.048   2.511   4.669  2.2303 -2.1687 -0.1665
 5435TIP3   OH237795   3.608   0.699  13.928 -0.1797 -0.2571 -0.4313
 5435TIP3    H137796   3.515   0.687  13.946 -0.0813 -1.8740 -0.8618
 5435TIP3    H237797   3.625   0.645  13.851  1.0431  0.3249 -0.5946
 5436TIP3   OH237798   2.132   3.944   3.405  0.2479 -0.0718  0.4432
 5436TIP3    H137799   2.038   3.962   3.407  0.4289  1.0928 -0.2496
 5436TIP3    H237800   2.144   3.892   3.325  0.3825  1.1477 -0.3557
 5437TIP3   OH237801   2.092   4.434   3.864 -0.6162 -0.3901  1.0169
 5437TIP3    H137802   2.141   4.362   3.825 -0.6507 -0.4915  1.1622
 5437TIP3    H237803   2.040   4.394   3.933 -0.0490 -0.1077  1.6208
 5438TIP3   OH237804   2.679   1.047  16.889  0.3228  0.5051  0.5443
 5438TIP3    H137805   2.747   1.013  16.947  1.2835  0.7787 -0.3901
 5438TIP3    H237806   2.658   1.134  16.924  0.1938  0.2836  1.0276
 5439TIP3   OH237807   5.006   3.375  14.750  0.9341 -0.4548  0.2848
 5439TIP3    H137808   4.987   3.289  14.788 -0.4567 -1.3611 -2.2395
 5439TIP3    H237809   5.088   3.362  14.701  1.5989  0.1429  1.1998
 5440TIP3   OH237810   4.504   0.806   0.735 -0.2857 -0.5419 -0.0078
 5440TIP3    H137811   4.477   0.721   0.701 -1.3473  0.0856 -0.8082
 5440TIP3    H237812   4.427   0.841   0.779 -0.8146  1.1679 -2.0879
 5441TIP3   OH237813   2.346   5.661  11.900 -0.4524 -0.3283  0.0680
 5441TIP3    H137814   2.394   5.723  11.954 -1.9799 -0.8111  2.0960
 5441TIP3    H237815   2.323   5.710  11.821  1.2813  0.5951  0.0955
 5442TIP3   OH237816   4.681   4.125  11.640  0.3727 -0.3158 -0.1818
 5442TIP3    H137817   4.586   4.136  11.631  0.2131 -2.2750 -1.6651
 5442TIP3    H237818   4.696   4.120  11.735 -0.6859  1.9277  0.1781
 5443TIP3   OH237819   2.259   2.038   3.172 -0.3571 -0.2623 -0.4972
 5443TIP3    H137820   2.209   1.957   3.159  0.4909 -1.0236  0.7465
 5443TIP3    H237821   2.203   2.092   3.227 -1.0824  0.1739 -1.6307
 5444TIP3   OH237822   3.910   0.717   1.607 -0.0932  0.7048 -0.0490
 5444TIP3    H137823   3.893   0.811   1.612 -1.7748  0.3893  1.4625
 5444TIP3    H237824   3.847   0.685   1.542 -0.3980  0.4686  0.3576
 5445TIP3   OH237825   5.900   0.642   4.212  0.4553  0.0047  0.3026
 5445TIP3    H137826   5.908   0.664   4.120  0.2554  0.6093  0.4300
 5445TIP3    H237827   5.983   0.600   4.234 -0.0015 -1.3768 -0.4821
 5446TIP3   OH237828   5.558   0.251   1.590  0.3136 -0.2069 -1.2157
 5446TIP3    H137829   5.577   0.158   1.600 -1.6326 -0.6296 -0.9520
 5446TIP3    H237830   5.483   0.254   1.530  0.6501  1.2217 -1.6067
 5447TIP3   OH237831   1.468   0.563   4.729  0.2152 -0.0822 -0.4146
 5447TIP3    H137832   1.446   0.655   4.744 -1.1790 -0.4349 -0.2319
 5447TIP3    H237833   1.417   0.538   4.652 -0.0724 -0.9416  0.0439
 5448TIP3   OH237834   4.301   3.610  16.777 -0.0156 -0.3444 -0.0481
 5448TIP3    H137835   4.383   3.573  16.810  1.5347  3.0104  0.2826
 5448TIP3    H237836   4.245   3.617  16.854  0.1692 -0.7884  0.1271
 5449TIP3   OH237837   2.896   0.100  11.652 -0.2852 -0.1514 -0.1946
 5449TIP3    H137838   2.878   0.192  11.667 -2.9133 -0.7304  0.7146
 5449TIP3    H237839   2.888   0.089  11.557  0.0743  0.5265 -0.3126
 5450TIP3   OH237840   0.568   5.793   3.481  0.6661  0.3808 -0.1905
 5450TIP3    H137841   0.632   5.841   3.534 -0.3927  0.3536  1.1646
 5450TIP3    H237842   0.507   5.859   3.451  0.8914  0.2951 -0.8605
 5451TIP3   OH237843   4.448   6.826   2.978  0.3461 -0.1082 -0.4155
 5451TIP3    H137844   4.397   6.778   2.912  0.0124  0.4932 -0.6063
 5451TIP3    H237845   4.480   6.903   2.932 -1.3520  1.2531  0.5334
 5452TIP3   OH237846   1.716   5.438   5.609 -0.2090  0.1192  0.7382
 5452TIP3    H137847   1.731   5.488   5.690 -1.3499 -1.3096  1.8988
 5452TIP3    H237848   1.791   5.378   5.603 -0.5403 -0.3542  1.2228
 5453TIP3   OH237849   1.242   3.227   5.599  0.2395  0.1270 -0.2194
 5453TIP3    H137850   1.187   3.289   5.551 -1.0064  0.3711  1.4611
 5453TIP3    H237851   1.311   3.281   5.638  0.1141  0.2195 -0.1246
 5454TIP3   OH237852   5.558   5.782   4.866 -0.0841 -0.2593 -0.4781
 5454TIP3    H137853   5.467   5.797   4.840  0.0844  1.6604 -0.1277
 5454TIP3    H237854   5.562   5.810   4.957  0.0802 -3.8238  0.7644
 5455TIP3   OH237855   6.290   4.783   5.110 -0.0052  0.1218 -0.3307
 5455TIP3    H137856   6.353   4.727   5.155  0.8551  2.7003  2.0192
 5455TIP3    H237857   6.341   4.859   5.082 -1.7428  1.5561  0.1845
 5456TIP3   OH237858   3.511   6.303   1.495  0.1046  0.1684  0.2743
 5456TIP3    H137859   3.588   6.269   1.540  0.9748  2.6983  0.8457
 5456TIP3    H237860   3.516   6.266   1.407  1.2273 -0.7375  0.6954
 5457TIP3   OH237861   1.827   4.417  16.709 -0.5187 -0.0593 -0.3338
 5457TIP3    H137862   1.833   4.420  16.805  1.7233  0.3028 -0.4462
 5457TIP3    H237863   1.917   4.422  16.679 -1.2598  1.4043 -2.5304
 5458TIP3   OH237864   1.561   2.749  14.085 -0.6105 -0.1402 -0.3763
 5458TIP3    H137865   1.503   2.795  14.023 -2.2263 -1.1954  0.2820
 5458TIP3    H237866   1.503   2.722  14.156  1.4191  2.6760  2.6817
 5459TIP3   OH237867   4.595   5.864   2.420 -0.2435  0.1609 -0.2410
 5459TIP3    H137868   4.651   5.841   2.345  0.4347 -0.1970  0.3646
 5459TIP3    H237869   4.509   5.830   2.396  0.4646 -2.0990  0.1071
 5460TIP3   OH237870   2.624   4.969  12.103 -0.0921 -0.0396  0.0874
 5460TIP3    H137871   2.577   5.003  12.027  0.4879  0.2459 -0.1511
 5460TIP3    H237872   2.608   5.033  12.172  0.0457  0.1207 -0.0283
 5461TIP3   OH237873   4.590   5.674   0.559 -0.1585  0.1697 -0.4869
 5461TIP3    H137874   4.578   5.597   0.504  1.0953  0.7837 -1.6642
 5461TIP3    H237875   4.576   5.748   0.500  0.6610  0.8467  0.1493
 5462TIP3   OH237876   5.460   3.355   0.415  0.0641 -0.0598 -0.0968
 5462TIP3    H137877   5.438   3.339   0.323 -0.9984  1.0122 -0.0565
 5462TIP3    H237878   5.536   3.300   0.432 -0.6314 -1.4217 -1.2052
 5463TIP3   OH237879   1.510   4.709   0.734 -0.8055  0.0962  0.2621
 5463TIP3    H137880   1.554   4.662   0.663  1.5357  1.2565  0.8302
 5463TIP3    H237881   1.443   4.761   0.690  0.4199  0.5978 -1.1236
 5464TIP3   OH237882   3.689   0.978   3.043 -1.0993  0.0370 -0.0036
 5464TIP3    H137883   3.702   0.951   3.134 -0.0003  0.5305 -0.0024
 5464TIP3    H237884   3.612   1.035   3.046 -1.3868 -0.3655  0.5311
 5465TIP3   OH237885   3.815   6.132   5.337  0.6118 -0.4827  0.0711
 5465TIP3    H137886   3.800   6.227   5.340 -0.0850 -0.6053  1.4294
 5465TIP3    H237887   3.829   6.112   5.245 -0.0803  0.8217 -0.3381
 5466TIP3   OH237888   6.477   4.736   2.994 -0.0335 -0.0395 -0.0894
 5466TIP3    H137889   6.390   4.761   2.962 -0.6116 -0.6599  0.9590
 5466TIP3    H237890   6.492   4.793   3.070 -0.4041 -1.3000  0.9541
 5467TIP3   OH237891   0.710   6.075  15.452  0.3156 -0.0862 -0.1604
 5467TIP3    H137892   0.689   5.991  15.494  0.4062  0.1944  0.4492
 5467TIP3    H237893   0.650   6.079  15.377 -1.5465  0.4895  1.2790
 5468TIP3   OH237894   3.920   0.303  14.127 -0.1945 -0.6896  0.1564
 5468TIP3    H137895   3.962   0.325  14.210  0.1079 -1.4221  0.2043
 5468TIP3    H237896   3.943   0.211  14.112  2.8838  0.3027 -2.5175
 5469TIP3   OH237897   2.368   0.402   1.902 -0.3339 -0.1489  0.8881
 5469TIP3    H137898   2.304   0.472   1.914  0.0563  0.5399 -0.7902
 5469TIP3    H237899   2.320   0.331   1.861  0.0393  0.5631 -0.8569
 5470TIP3   OH237900   2.121   4.711  10.978 -0.4589  0.0246  0.4128
 5470TIP3    H137901   2.216   4.706  10.978 -0.4593 -0.1034 -0.2870
 5470TIP3    H237902   2.099   4.756  10.896 -1.0288 -0.5744  0.2261
 5471TIP3   OH237903   5.411   0.692   0.984  0.0493  0.8333  0.0253
 5471TIP3    H137904   5.496   0.725   1.013 -1.1356  4.6491 -0.2951
 5471TIP3    H237905   5.428   0.653   0.898  1.6373  0.4212  0.5058
 5472TIP3   OH237906   3.242   1.737  11.306  0.1277 -0.0182 -0.4656
 5472TIP3    H137907   3.325   1.696  11.283 -0.9969 -2.0612 -1.0994
 5472TIP3    H237908   3.179   1.665  11.309 -1.9617  1.6274 -1.5237
 5473TIP3   OH237909   4.374   4.815  14.357  0.3389 -0.5441  0.6927
 5473TIP3    H137910   4.407   4.887  14.303  1.1213 -1.6378 -0.3781
 5473TIP3    H237911   4.384   4.738  14.300 -1.2723 -1.3652  1.4809
 5474TIP3   OH237912   3.599   1.169  13.693 -0.2988 -0.3208  0.4656
 5474TIP3    H137913   3.528   1.232  13.686 -0.6238 -0.6242  0.9574
 5474TIP3    H237914   3.674   1.220  13.722  0.0520  0.2436 -1.3099
 5475TIP3   OH237915   3.127   5.006   5.625  0.7280 -0.3835 -0.1042
 5475TIP3    H137916   3.097   5.045   5.708  0.9037 -1.6101  0.5511
 5475TIP3    H237917   3.058   5.029   5.563 -1.1438 -2.2502  1.1379
 5476TIP3   OH237918   6.427   6.320  13.645 -0.0119 -1.0633  0.3271
 5476TIP3    H137919   6.463   6.260  13.710  2.7657 -0.2836 -0.3392
 5476TIP3    H237920   6.431   6.406  13.686 -0.4167 -0.8613 -0.0434
 5477TIP3   OH237921   5.251   4.315   2.603  0.5973 -0.6507  0.1026
 5477TIP3    H137922   5.255   4.383   2.535  1.0453 -0.9022 -0.1275
 5477TIP3    H237923   5.188   4.251   2.570  0.8433 -0.7913 -0.0922
 5478TIP3   OH237924   6.518   2.414  10.783  0.0437  0.4977  0.4618
 5478TIP3    H137925   6.584   2.347  10.797 -0.0154  0.3180 -0.1192
 5478TIP3    H237926   6.438   2.377  10.821  0.2050  0.5958  0.9030
 5479TIP3   OH237927   4.934   4.962   2.977  0.7644  0.0226 -0.0559
 5479TIP3    H137928   4.983   4.973   2.895  2.3933  1.9504  1.0786
 5479TIP3    H237929   4.904   5.050   2.998 -1.0948 -0.7254  0.5958
 5480TIP3   OH237930   6.636   3.213   0.034  0.2574 -0.4922 -0.2487
 5480TIP3    H137931   6.601   3.290   0.079 -1.2574 -0.0042 -2.1020
 5480TIP3    H237932   6.560   3.177  -0.013  1.3742 -1.9400 -1.0169
 5481TIP3   OH237933   4.741   3.019   3.536  0.4356 -0.0283 -0.2787
 5481TIP3    H137934   4.645   3.018   3.533  0.4014 -2.2900 -0.5864
 5481TIP3    H237935   4.768   2.985   3.450  1.5236  0.3238 -0.0937
 5482TIP3   OH237936   5.651   2.380  15.629  0.5187  0.8832 -0.0186
 5482TIP3    H137937   5.733   2.385  15.580  0.6253  3.0627  0.2718
 5482TIP3    H237938   5.672   2.420  15.714 -0.3014 -0.5783  0.9276
 5483TIP3   OH237939   0.893   1.157   3.691  0.2152 -0.2297 -0.1772
 5483TIP3    H137940   0.846   1.128   3.770  0.6540 -0.5769 -0.0366
 5483TIP3    H237941   0.830   1.213   3.645 -0.4767 -0.9920 -0.1923
 5484TIP3   OH237942   4.350   3.666   0.499  0.4098  0.0787  0.6864
 5484TIP3    H137943   4.310   3.698   0.419  1.3446  0.7806  0.4834
 5484TIP3    H237944   4.413   3.733   0.524  2.2284 -1.4301  0.4083
 5485TIP3   OH237945   6.479   5.090   1.038 -0.0660 -0.0304 -0.3817
 5485TIP3    H137946   6.565   5.127   1.020 -0.0675  0.5378  0.6520
 5485TIP3    H237947   6.417   5.151   0.997 -0.0281  0.5485  0.3996
 5486TIP3   OH237948   3.407   5.441   5.161  0.0187  0.3154  0.2700
 5486TIP3    H137949   3.425   5.369   5.222 -1.2151  0.2480  0.5927
 5486TIP3    H237950   3.384   5.514   5.218  2.2258  1.2900 -0.0206
 5487TIP3   OH237951   1.134   1.470   1.579  0.6648 -0.3141 -0.0884
 5487TIP3    H137952   1.113   1.486   1.671 -0.4202 -1.7494 -0.0468
 5487TIP3    H237953   1.171   1.552   1.548  0.3706  0.4292  1.4440
 5488TIP3   OH237954   5.267   5.172   6.055  0.1038  0.3585 -0.2748
 5488TIP3    H137955   5.322   5.094   6.049  3.6459  2.5853  0.2208
 5488TIP3    H237956   5.233   5.171   6.144  0.1305 -0.5402 -0.2615
 5489TIP3   OH237957   4.681   6.658   0.352  0.0470 -0.0469 -0.1986
 5489TIP3    H137958   4.646   6.745   0.331  0.1360 -0.0628 -0.4171
 5489TIP3    H237959   4.738   6.674   0.428 -1.8739 -0.3291  1.3831
 5490TIP3   OH237960   1.447   4.811   5.128  0.4201  0.4748 -0.2888
 5490TIP3    H137961   1.418   4.898   5.102  0.0580 -0.2910 -2.7513
 5490TIP3    H237962   1.539   4.822   5.153 -0.5191  2.0946  2.9835
 5491TIP3   OH237963   6.711   3.106  11.460 -0.1870 -0.0596  0.4775
 5491TIP3    H137964   6.712   3.015  11.491 -0.0802 -0.1351  0.2569
 5491TIP3    H237965   6.789   3.145  11.500  1.1163 -0.7010 -1.2725
 5492TIP3   OH237966   3.615   2.114   0.201  0.6471  0.5534  0.0197
 5492TIP3    H137967   3.588   2.087   0.114 -0.7845  3.9121 -0.7489
 5492TIP3    H237968   3.681   2.183   0.185  0.3663  1.2247  1.5631
 5493TIP3   OH237969   3.465   0.256  16.155 -0.6107  0.4191  0.0346
 5493TIP3    H137970   3.379   0.292  16.179 -1.6346 -1.8189  0.0615
 5493TIP3    H237971   3.449   0.210  16.072  0.7720  0.6012 -0.3591
 5494TIP3   OH237972   5.490   6.673   4.903 -0.2518 -0.3290  0.3700
 5494TIP3    H137973   5.409   6.671   4.954  0.1495 -1.3422  1.0066
 5494TIP3    H237974   5.556   6.707   4.963 -0.3351  1.2235 -0.3806
 5495TIP3   OH237975   2.788   5.816  13.250 -0.3639  0.6534  0.0456
 5495TIP3    H137976   2.880   5.791  13.263 -1.0922 -1.2001  2.3967
 5495TIP3    H237977   2.748   5.740  13.209 -0.7419  1.8234 -1.9194
 5496TIP3   OH237978   0.485   1.790  11.899 -0.0493  0.2678  0.2522
 5496TIP3    H137979   0.441   1.830  11.824 -1.2021 -0.9799  0.2367
 5496TIP3    H237980   0.416   1.773  11.963  0.7292  0.1874  1.1102
 5497TIP3   OH237981   5.136   6.705  16.874  0.7546  0.7252 -0.1760
 5497TIP3    H137982   5.046   6.706  16.906  0.4514 -2.0822 -0.6553
 5497TIP3    H237983   5.188   6.686  16.952  0.4804 -1.4142 -0.4445
 5498TIP3   OH237984   4.053   3.758   5.204  0.1916  0.5602 -0.7376
 5498TIP3    H137985   3.967   3.774   5.166 -0.5225 -1.2146  0.0377
 5498TIP3    H237986   4.048   3.669   5.239  1.7494  1.0530  0.8963
 5499TIP3   OH237987   6.578   0.101   6.627  0.0244  0.0797 -0.2942
 5499TIP3    H137988   6.522   0.049   6.684 -1.3737  0.4550 -1.2744
 5499TIP3    H237989   6.605   0.176   6.680  1.2577 -1.0958  0.8162
 5500TIP3   OH237990   2.118   0.108   4.443 -0.3389  0.8828 -0.7054
 5500TIP3    H137991   2.168   0.149   4.372 -0.8704  1.4850 -0.7451
 5500TIP3    H237992   2.029   0.143   4.433 -0.5154  0.6663  0.0219
 5501TIP3   OH237993   1.798   1.879  16.497 -0.3910 -0.3081  0.3938
 5501TIP3    H137994   1.776   1.915  16.582 -1.3198 -0.9791  0.4542
 5501TIP3    H237995   1.749   1.932  16.434 -0.2882 -0.2848  0.3317
 5502TIP3   OH237996   3.102   4.585  11.427  0.0736  0.0991 -0.1055
 5502TIP3    H137997   3.109   4.490  11.422 -1.9756 -0.2391  1.6512
 5502TIP3    H237998   3.114   4.605  11.520 -0.5969  1.4117 -0.2636
 5503TIP3   OH237999   2.623   3.941   2.969 -0.0467 -0.1963  0.8189
 5503TIP3    H138000   2.541   3.989   2.975  0.4691  1.2118 -1.8698
 5503TIP3    H238001   2.599   3.856   2.932 -0.4510 -0.4014  1.5341
 5504TIP3   OH238002   2.106   0.173  11.784 -0.1388 -0.1580  0.9158
 5504TIP3    H138003   2.183   0.128  11.751 -1.2681 -0.8470 -0.9490
 5504TIP3    H238004   2.093   0.139  11.872  1.8548  0.2513  1.4186
 5505TIP3   OH238005   0.034   5.783   5.097  0.2656 -1.0412 -0.0231
 5505TIP3    H138006  -0.027   5.731   5.045  0.4702 -0.7921 -0.5150
 5505TIP3    H238007  -0.021   5.843   5.146  0.1270 -0.6648 -0.6362
 5506TIP3   OH238008   2.491   3.198  14.701 -0.0646 -0.1308  0.4825
 5506TIP3    H138009   2.481   3.221  14.794  1.3262 -0.2502  0.6912
 5506TIP3    H238010   2.460   3.108  14.695 -0.5657  0.0206  0.7431
 5507TIP3   OH238011   2.785   0.390   2.370 -0.7179 -0.2039  0.1167
 5507TIP3    H138012   2.832   0.429   2.296 -1.0592 -1.0809 -0.5783
 5507TIP3    H238013   2.695   0.424   2.362 -0.5618  0.3344  0.6037
 5508TIP3   OH238014   2.896   6.288  14.656 -0.0001  0.0285  0.4559
 5508TIP3    H138015   2.974   6.343  14.659 -0.3257  0.5240  0.0506
 5508TIP3    H238016   2.881   6.273  14.562  1.3527 -2.6061  0.5736
 5509TIP3   OH238017   5.531   5.826  15.263  0.3196 -0.2893 -0.4086
 5509TIP3    H138018   5.568   5.906  15.224 -1.7132  1.4738  1.0483
 5509TIP3    H238019   5.445   5.817  15.223 -0.0457 -0.9283  0.4772
 5510TIP3   OH238020   5.482   2.692  13.007 -0.0344 -0.0272 -0.1012
 5510TIP3    H138021   5.439   2.748  12.942  2.6452  1.4952 -0.6948
 5510TIP3    H238022   5.517   2.619  12.956  1.4116  0.7828 -0.3438
 5511TIP3   OH238023   2.852   3.722  11.783  0.1012 -0.1872 -0.2683
 5511TIP3    H138024   2.932   3.678  11.812 -0.5707 -1.8320 -0.8546
 5511TIP3    H238025   2.884   3.791  11.725  1.2395  1.0033  1.6334
 5512TIP3   OH238026   0.288   3.331   1.885 -0.2664 -0.1812 -0.0418
 5512TIP3    H138027   0.276   3.414   1.931  0.1705 -0.2734  0.2526
 5512TIP3    H238028   0.383   3.314   1.890 -0.1923 -0.1387 -1.0827
 5513TIP3   OH238029   6.665   1.922   2.214  0.2925  0.1125  0.1837
 5513TIP3    H138030   6.657   1.899   2.306 -1.6736 -0.4577 -0.0861
 5513TIP3    H238031   6.692   1.841   2.171 -0.5986 -0.1098  0.0312
 5514TIP3   OH238032   5.087   4.137   4.075  0.5392 -0.3700 -0.1384
 5514TIP3    H138033   5.019   4.074   4.049 -1.7834  2.3776 -1.3368
 5514TIP3    H238034   5.061   4.164   4.163 -0.9097  1.7258 -1.1282
 5515TIP3   OH238035   3.212   4.476   4.889  0.4555  0.1699 -0.4529
 5515TIP3    H138036   3.198   4.557   4.839  1.7993  1.4550  1.1487
 5515TIP3    H238037   3.205   4.406   4.823 -2.6474  1.3497 -1.5917
 5516TIP3   OH238038   4.683   0.212  13.814 -0.0986  0.2669 -0.7287
 5516TIP3    H138039   4.706   0.219  13.721  0.1043  0.2171 -0.6835
 5516TIP3    H238040   4.737   0.278  13.857  1.3687 -1.0877 -0.3795
 5517TIP3   OH238041   6.123   3.147  15.269 -0.3974  0.4740 -0.3617
 5517TIP3    H138042   6.201   3.170  15.219 -0.5576  0.9310 -0.4006
 5517TIP3    H238043   6.075   3.085  15.213  0.2067 -0.2400 -0.1061
 5518TIP3   OH238044   5.924   6.260  16.753  0.6626 -0.1023 -0.1325
 5518TIP3    H138045   5.833   6.249  16.723  0.7801 -0.1457 -0.4802
 5518TIP3    H238046   5.956   6.336  16.705 -0.2631  2.1222  2.5479
 5519TIP3   OH238047   5.524   1.431   0.354  0.2927 -0.6327 -0.6527
 5519TIP3    H138048   5.523   1.527   0.350 -0.2293 -0.3835  2.8407
 5519TIP3    H238049   5.616   1.408   0.361  0.4000 -0.3993 -1.2094
 5520TIP3   OH238050   0.488   0.620   1.717 -0.1406  0.4732  0.7344
 5520TIP3    H138051   0.415   0.624   1.655 -0.3948  1.2302  1.0657
 5520TIP3    H238052   0.514   0.528   1.718 -1.3571  0.1106  0.9157
 5521TIP3   OH238053   3.149   2.089   4.980 -0.3822  0.1909  0.2917
 5521TIP3    H138054   3.073   2.148   4.978  0.6433  1.7215  2.4551
 5521TIP3    H238055   3.124   2.020   5.041 -0.1632  0.5379  0.7806
 5522TIP3   OH238056   2.990   0.474  10.621  0.2839  0.5163 -0.3512
 5522TIP3    H138057   3.079   0.461  10.654 -0.2330 -0.5344  0.7208
 5522TIP3    H238058   2.999   0.538  10.551  1.9958 -0.1690 -0.7962
 5523TIP3   OH238059   6.336   0.388  16.635 -0.6626 -0.7659  0.0951
 5523TIP3    H138060   6.244   0.415  16.625 -0.5943  0.2950  1.9582
 5523TIP3    H238061   6.386   0.461  16.599 -0.5432 -0.4314  0.9157
 5524TIP3   OH238062   6.673   4.237  15.561  0.4151 -0.8722  0.7819
 5524TIP3    H138063   6.671   4.279  15.647 -0.2454  0.3014  0.2101
 5524TIP3    H238064   6.765   4.238  15.535  0.4141  0.2058  0.7950
 5525TIP3   OH238065   4.144   3.570  15.462  0.1820 -0.2034  0.0435
 5525TIP3    H138066   4.219   3.514  15.444 -1.2157 -2.4077  0.6783
 5525TIP3    H238067   4.160   3.650  15.412  2.0149 -1.3765 -1.3346
 5526TIP3   OH238068   1.698   1.251   6.680  0.3070  0.1115 -0.3148
 5526TIP3    H138069   1.675   1.167   6.640 -0.7170 -0.4030  1.2695
 5526TIP3    H238070   1.615   1.284   6.716  0.7801  1.5918 -0.5216
 5527TIP3   OH238071   0.926   3.410   3.163 -0.3144  0.3446 -0.4202
 5527TIP3    H138072   0.943   3.325   3.122  0.4626 -0.1545  0.8945
 5527TIP3    H238073   0.869   3.456   3.100 -0.8023 -1.1581 -1.1161
 5528TIP3   OH238074   6.741   6.432  17.162  0.3068 -0.3121 -0.1397
 5528TIP3    H138075   6.816   6.425  17.104  0.1164  0.6355 -0.5275
 5528TIP3    H238076   6.735   6.347  17.205  1.7701 -0.2954  0.1156
 5529TIP3   OH238077   0.761   5.330   4.488 -0.1261 -0.4872  0.1319
 5529TIP3    H138078   0.853   5.304   4.488 -0.1599 -0.6077 -0.1684
 5529TIP3    H238079   0.745   5.360   4.398 -0.6544 -1.4448 -0.1101
 5530TIP3   OH238080   2.800   3.914  16.637  0.1972  0.7128 -0.4683
 5530TIP3    H138081   2.875   3.967  16.610  1.6381 -1.5539 -1.2445
 5530TIP3    H238082   2.760   3.886  16.554  1.3940 -1.9017 -0.2513
 5531TIP3   OH238083   5.197   5.195  16.930  0.4689 -0.6376  0.1745
 5531TIP3    H138084   5.143   5.138  16.874  0.4039 -2.6553  2.1675
 5531TIP3    H238085   5.136   5.228  16.996  0.7978  0.7364 -0.1863
 5532TIP3   OH238086   3.888   3.545   1.866  0.1036  0.3056 -0.0388
 5532TIP3    H138087   3.973   3.570   1.902 -0.0613  0.7257  0.0701
 5532TIP3    H238088   3.825   3.598   1.914 -0.1530  0.5731 -0.6540
 5533TIP3   OH238089   3.569   2.146   4.380 -0.6582 -0.1797  0.6244
 5533TIP3    H138090   3.508   2.152   4.307 -2.0283 -0.0804  1.7318
 5533TIP3    H238091   3.571   2.234   4.417 -0.2009 -0.2931  0.8767
 5534TIP3   OH238092   3.414   6.736   4.439 -0.7211  0.5277  0.2803
 5534TIP3    H138093   3.371   6.700   4.516 -0.2053 -0.0248  0.3238
 5534TIP3    H238094   3.503   6.701   4.444 -0.1542  1.9245  0.3888
 5535TIP3   OH238095   6.460   2.309   5.511 -0.1272  0.2557 -0.0467
 5535TIP3    H138096   6.525   2.267   5.455  0.0115  1.1203 -0.5610
 5535TIP3    H238097   6.500   2.393   5.535 -0.8730  0.6189 -0.0268
 5536TIP3   OH238098   0.520   1.925   3.394 -0.1077  0.5835  0.5225
 5536TIP3    H138099   0.471   1.996   3.436 -0.2233  0.0380  1.3367
 5536TIP3    H238100   0.603   1.921   3.442  0.0192  0.3581  0.2877
 5537TIP3   OH238101   2.854   4.800   3.455 -0.1446  0.8749 -0.8449
 5537TIP3    H138102   2.865   4.855   3.532  1.7747  2.4506 -2.1450
 5537TIP3    H238103   2.836   4.713   3.490 -0.4746  1.7643  1.3392
 5538TIP3   OH238104   4.278   4.557   6.117  0.6537 -0.2023 -0.1740
 5538TIP3    H138105   4.235   4.545   6.032 -1.9988  1.4100  0.8310
 5538TIP3    H238106   4.242   4.639   6.151  2.7639 -0.0161  1.9069
 5539TIP3   OH238107   4.407   2.159  14.580  0.3091  0.1371  0.2188
 5539TIP3    H138108   4.313   2.168  14.562  0.2465  0.7239  0.8292
 5539TIP3    H238109   4.422   2.210  14.659  0.8888 -1.0872  0.9321
 5540TIP3   OH238110   5.358   6.409   0.019  0.0912  0.0905  0.3024
 5540TIP3    H138111   5.437   6.426  -0.033  0.5826 -0.1228  0.9731
 5540TIP3    H238112   5.343   6.315   0.010 -0.2528  0.1726 -0.0440
 5541TIP3   OH238113   2.466   5.636   4.867 -0.0122  0.2645 -0.0733
 5541TIP3    H138114   2.530   5.653   4.936 -1.7915  3.7111  0.9392
 5541TIP3    H238115   2.398   5.584   4.910  0.1050  0.2010  0.0366
 5542TIP3   OH238116   2.655   1.607  13.222  0.8814 -0.4232 -0.5862
 5542TIP3    H138117   2.562   1.594  13.201  1.1758 -0.4680 -1.9362
 5542TIP3    H238118   2.654   1.660  13.302 -0.3041 -1.1775 -0.0706
 5543TIP3   OH238119   3.978   6.271  12.535 -0.1298  0.1880  0.3077
 5543TIP3    H138120   4.040   6.257  12.463 -0.9516  1.3489 -0.6664
 5543TIP3    H238121   4.033   6.286  12.611  0.7611 -1.0403 -0.0549
 5544TIP3   OH238122   2.631   5.159   2.727 -0.3382 -0.0056 -0.5191
 5544TIP3    H138123   2.577   5.184   2.802  1.3494  0.2408  0.6661
 5544TIP3    H238124   2.601   5.071   2.704 -3.0689  1.1092 -1.6775
 5545TIP3   OH238125   4.359   3.481  12.444 -0.1726  0.0956  0.0009
 5545TIP3    H138126   4.318   3.431  12.374 -0.8527  1.5790 -0.7115
 5545TIP3    H238127   4.298   3.553  12.461  0.8443  0.7859  0.8483
 5546TIP3   OH238128   2.178   5.487   2.723  0.1538 -0.4521  0.8378
 5546TIP3    H138129   2.167   5.470   2.817 -1.7096  1.9216  1.1670
 5546TIP3    H238130   2.101   5.539   2.699  1.3739  0.3698 -1.6558
 5547TIP3   OH238131   4.861   0.831  13.515  0.0856 -0.5404  0.0900
 5547TIP3    H138132   4.833   0.749  13.474 -0.5010 -1.5083  2.2910
 5547TIP3    H238133   4.882   0.807  13.605  1.6472  1.4291  0.3170
 5548TIP3   OH238134   5.054   2.565   1.981 -0.3878 -0.2500 -0.6140
 5548TIP3    H138135   5.090   2.620   2.050 -0.0110  0.0464 -1.0391
 5548TIP3    H238136   5.026   2.626   1.913 -1.1502 -0.5152 -0.5480
 5549TIP3   OH238137   4.321   4.494   1.690  0.2954 -0.2183 -0.3561
 5549TIP3    H138138   4.309   4.403   1.718  1.7620  0.0286  1.2654
 5549TIP3    H238139   4.253   4.543   1.736  0.2740 -0.3419 -0.2563
 5550TIP3   OH238140   6.346   4.714  12.117 -0.3354 -0.1610  0.4682
 5550TIP3    H138141   6.378   4.673  12.037 -0.0554 -0.6980  0.8506
 5550TIP3    H238142   6.302   4.643  12.165  0.2843 -0.0599  1.2075
 5551TIP3   OH238143   3.561   2.973  17.086  0.6246  0.0420 -0.5783
 5551TIP3    H138144   3.521   3.034  17.025  1.8760 -0.9893 -2.5334
 5551TIP3    H238145   3.635   3.022  17.123 -1.0026  1.1915  1.3886
 5552TIP3   OH238146   5.179   2.116  12.236  0.6531  0.1011 -0.4680
 5552TIP3    H138147   5.217   2.114  12.324  0.9455 -0.3721 -0.6015
 5552TIP3    H238148   5.249   2.083  12.179  0.3029 -0.0479 -0.8191
 5553TIP3   OH238149   2.025   3.289   4.233 -0.5333 -0.1208  0.8109
 5553TIP3    H138150   1.957   3.328   4.179 -1.2441 -2.0066  0.2591
 5553TIP3    H238151   2.107   3.321   4.196 -1.0546  0.0031 -0.2731
 5554TIP3   OH238152   6.143   1.213   5.920  0.0475  0.0056  0.3072
 5554TIP3    H138153   6.184   1.265   5.851  1.7023 -1.0728  0.4183
 5554TIP3    H238154   6.174   1.253   6.001  1.6272 -1.2830  0.3976
 5555TIP3   OH238155   5.920   5.281   2.285  0.2138 -0.0562  0.0508
 5555TIP3    H138156   5.908   5.205   2.342  0.9672 -0.8009 -0.7594
 5555TIP3    H238157   6.014   5.288   2.273  0.0865  0.2630 -0.8579
 5556TIP3   OH238158   5.556   0.231   0.191 -0.2544  0.5485 -0.0143
 5556TIP3    H138159   5.559   0.300   0.258  0.3092 -0.5817  1.1616
 5556TIP3    H238160   5.646   0.227   0.157  1.1274 -2.7542  3.3282
 5557TIP3   OH238161   5.939   1.436   4.826 -0.8189 -0.2203  0.6764
 5557TIP3    H138162   5.860   1.417   4.775  0.5869 -1.6129 -1.1697
 5557TIP3    H238163   5.986   1.500   4.773  0.1208 -0.7913  0.7927
 5558TIP3   OH238164   5.865   3.086   4.244 -0.2931 -0.3840  0.0330
 5558TIP3    H138165   5.934   3.137   4.203 -0.8177  0.7022  0.4822
 5558TIP3    H238166   5.797   3.079   4.177 -0.9866  1.0662  0.5412
 5559TIP3   OH238167   1.282   6.359   2.247 -0.2028  0.3676  0.5160
 5559TIP3    H138168   1.205   6.330   2.199 -0.4601  0.9758  0.5560
 5559TIP3    H238169   1.248   6.408   2.321  0.1899  3.5655 -1.2527
 5560TIP3   OH238170   1.843   5.987   4.744 -0.0863 -0.2925  0.3988
 5560TIP3    H138171   1.901   5.992   4.821 -1.8184  3.4216  1.7351
 5560TIP3    H238172   1.776   5.924   4.769  1.1609 -1.6325  0.4850
 5561TIP3   OH238173   0.176   0.316  13.974  0.1599  0.3856  0.4501
 5561TIP3    H138174   0.204   0.345  13.887  0.3995  0.2057  0.4655
 5561TIP3    H238175   0.244   0.348  14.033  0.7495 -0.7177  0.3944
 5562TIP3   OH238176   2.289   2.503   1.058  0.3752 -0.7353 -0.7014
 5562TIP3    H138177   2.264   2.472   0.971  0.3975  0.8533 -1.3139
 5562TIP3    H238178   2.212   2.487   1.113 -0.7930  0.9708 -1.7518
 5563TIP3   OH238179   5.522   2.433   5.102 -0.2423  0.6096  0.4701
 5563TIP3    H138180   5.540   2.368   5.170 -2.0523 -0.8324 -0.3406
 5563TIP3    H238181   5.487   2.382   5.029 -1.2658  2.4518 -0.3900
 5564TIP3   OH238182   6.140   2.207  14.241 -0.4592  0.1880  0.1747
 5564TIP3    H138183   6.050   2.234  14.226 -0.2091  1.4807  0.8105
 5564TIP3    H238184   6.137   2.156  14.322 -0.6221  0.2801  0.2272
 5565TIP3   OH238185   1.866   3.595  13.497 -0.0378 -0.3944 -0.6047
 5565TIP3    H138186   1.860   3.659  13.425 -0.5842  0.2598  0.0060
 5565TIP3    H238187   1.869   3.649  13.576  2.2633 -1.0330 -0.1843
 5566TIP3   OH238188   2.100   0.345  10.504 -0.2575  0.2980  0.1361
 5566TIP3    H138189   2.015   0.303  10.517  0.3334 -0.5258  1.5346
 5566TIP3    H238190   2.099   0.420  10.563  1.0844 -1.4406  2.5647
 5567TIP3   OH238191   0.876   0.797  12.791 -0.1336 -0.2946 -0.0344
 5567TIP3    H138192   0.819   0.761  12.859 -0.8161  1.4248  0.3731
 5567TIP3    H238193   0.824   0.866  12.750  0.9871  0.0407 -0.9470
 5568TIP3   OH238194   2.212   2.072   1.307  0.5096 -0.1051  0.1361
 5568TIP3    H138195   2.302   2.048   1.330  1.0462  0.0638 -1.6580
 5568TIP3    H238196   2.195   2.152   1.356  1.6386  0.3113 -0.1380
 5569TIP3   OH238197   2.959   0.130  11.131 -0.5154 -0.3018 -0.3893
 5569TIP3    H138198   3.042   0.170  11.104 -0.0282 -1.4095 -0.6050
 5569TIP3    H238199   2.950   0.053  11.075 -1.3043 -0.6302  0.1693
 5570TIP3   OH238200   6.534   6.023  12.328  0.3912 -0.2723 -0.1197
 5570TIP3    H138201   6.612   5.997  12.279  0.2816 -0.6395 -0.1054
 5570TIP3    H238202   6.503   5.942  12.369 -0.0276 -0.1403 -0.1657
 5571TIP3   OH238203   2.712   5.720  16.730 -0.5710  0.7713  0.1526
 5571TIP3    H138204   2.758   5.712  16.814 -1.6668 -2.3236  0.5826
 5571TIP3    H238205   2.782   5.722  16.665  0.2780 -0.4762  0.9754
 5572TIP3   OH238206   3.194   2.735  11.006 -0.8875  0.2091  0.7137
 5572TIP3    H138207   3.254   2.785  10.951 -0.0325  0.1743  1.5975
 5572TIP3    H238208   3.126   2.798  11.031  0.4580  1.1096  2.2433
 5573TIP3   OH238209   2.403   3.676   2.536  0.2056  0.6579 -0.1063
 5573TIP3    H138210   2.365   3.643   2.454  1.5629 -0.7154 -0.2229
 5573TIP3    H238211   2.473   3.615   2.557  1.1310  2.0525  1.1033
 5574TIP3   OH238212   5.266   3.772  15.450  0.1825 -0.6814  0.0105
 5574TIP3    H138213   5.281   3.765  15.544 -0.0346 -1.4534 -0.0073
 5574TIP3    H238214   5.175   3.745  15.437 -0.4627  1.3985 -0.1986
 5575TIP3   OH238215   0.483   2.789  17.179  0.0886 -0.3919  0.1755
 5575TIP3    H138216   0.448   2.874  17.152  0.1711  0.0447  1.4032
 5575TIP3    H238217   0.561   2.777  17.124 -0.5687 -0.2365 -0.8266
 5576TIP3   OH238218   4.219   6.115  10.317 -0.1753  0.4169 -0.2586
 5576TIP3    H138219   4.184   6.185  10.373 -0.1131  0.6270 -0.4816
 5576TIP3    H238220   4.198   6.143  10.228 -0.5423 -0.0688 -0.3249
 5577TIP3   OH238221   2.663   5.033  15.797  0.1296 -0.1237  0.1686
 5577TIP3    H138222   2.649   5.108  15.739  1.4056  0.1656  0.1940
 5577TIP3    H238223   2.673   4.958  15.738  2.1302  0.2852 -0.0648
 5578TIP3   OH238224   2.185   3.106  12.787  0.1738 -0.6447 -0.4894
 5578TIP3    H138225   2.191   3.195  12.752 -0.9742 -1.0100 -1.7087
 5578TIP3    H238226   2.118   3.111  12.856 -0.6812 -0.7499 -1.2890
 5579TIP3   OH238227   1.143   5.529   3.540 -0.6634  0.5240  0.0174
 5579TIP3    H138228   1.115   5.507   3.451 -2.0936  0.8757  0.3574
 5579TIP3    H238229   1.166   5.622   3.535 -0.7586  0.5477  0.0184
 5580TIP3   OH238230   5.961   2.848  15.429 -0.5017 -0.1840  0.3658
 5580TIP3    H138231   5.923   2.812  15.509 -2.7682  2.7895  0.8306
 5580TIP3    H238232   5.934   2.788  15.360 -0.5630 -1.5153  1.4958
 5581TIP3   OH238233   5.945   4.424  13.520  0.0865 -0.0347 -0.1268
 5581TIP3    H138234   6.000   4.474  13.579  1.6131  0.7323 -2.0997
 5581TIP3    H238235   5.976   4.334  13.528  1.5194  0.3492 -1.0286
 5582TIP3   OH238236   1.443   6.274   1.684  0.4735 -0.2270 -0.2060
 5582TIP3    H138237   1.371   6.336   1.694  0.6704 -0.0842  0.3655
 5582TIP3    H238238   1.520   6.323   1.712  0.5324 -0.9437  0.9343
 5583TIP3   OH238239   3.729   2.957  16.330  0.1186 -0.3666  0.4382
 5583TIP3    H138240   3.699   2.970  16.420  0.4543 -1.7886  0.7879
 5583TIP3    H238241   3.774   3.038  16.307 -1.5846  0.7541  0.8644
 5584TIP3   OH238242   5.198   1.513  13.340 -0.0899  0.2527 -0.3770
 5584TIP3    H138243   5.113   1.557  13.343 -0.5383 -0.6179  1.5158
 5584TIP3    H238244   5.194   1.448  13.411  2.1482  0.1658 -0.2474
 5585TIP3   OH238245   1.785   3.387   1.819 -0.0068  0.2172  0.2953
 5585TIP3    H138246   1.718   3.445   1.855  0.7528  1.0514  0.4056
 5585TIP3    H238247   1.802   3.325   1.889 -0.1922  0.4063  0.5131
 5586TIP3   OH238248   2.290   2.882  14.710  0.0678 -0.3368  0.5529
 5586TIP3    H138249   2.328   2.921  14.631 -0.4706  0.1228  0.5117
 5586TIP3    H238250   2.322   2.792  14.711 -0.4736 -0.5631 -0.5670
 5587TIP3   OH238251   3.087   6.598  15.369 -0.3455  0.1004  0.1386
 5587TIP3    H138252   2.996   6.567  15.374 -1.2078  2.6213  2.7890
 5587TIP3    H238253   3.133   6.547  15.436  0.1583 -0.8496 -0.8912
 5588TIP3   OH238254   0.615   5.494  10.891  0.0718 -0.1297  0.6409
 5588TIP3    H138255   0.670   5.538  10.825 -0.8120 -1.2349 -0.8840
 5588TIP3    H238256   0.674   5.481  10.965  0.9221  1.7694  0.3777
 5589TIP3   OH238257   4.239   5.609   3.591  0.6947  0.0317 -0.2674
 5589TIP3    H138258   4.305   5.540   3.597  0.1806 -0.4431 -0.0222
 5589TIP3    H238259   4.290   5.691   3.593  1.2450 -0.3170  0.4287
 5590TIP3   OH238260   4.238   2.605  15.149  0.2235  0.5741  0.0290
 5590TIP3    H138261   4.311   2.556  15.188 -1.3568 -1.8407  0.1331
 5590TIP3    H238262   4.192   2.642  15.224  1.5459  2.5236 -0.0606
 5591TIP3   OH238263   3.443   3.891   0.056 -0.4246  0.1422  0.1772
 5591TIP3    H138264   3.451   3.909  -0.038 -4.1501 -2.3540 -0.8338
 5591TIP3    H238265   3.352   3.915   0.077 -0.2900 -1.2142  2.6686
 5592TIP3   OH238266   6.229   2.916  15.498  0.1765  0.2362  0.1969
 5592TIP3    H138267   6.221   2.990  15.438 -0.3282 -0.9661 -1.2963
 5592TIP3    H238268   6.142   2.876  15.498 -0.0054  0.5501  2.2541
 5593TIP3   OH238269   4.157   5.246  15.051  0.4304  0.4686  0.0834
 5593TIP3    H138270   4.115   5.187  15.113  2.3177  0.6339  1.5958
 5593TIP3    H238271   4.084   5.290  15.007 -0.9810  0.0712  1.8980
 5594TIP3   OH238272   1.808   0.843  13.614 -0.3782  0.6632  0.2246
 5594TIP3    H138273   1.841   0.768  13.564 -0.1850  0.3548  0.8092
 5594TIP3    H238274   1.851   0.918  13.574 -1.9821  0.6926 -1.5970
 5595TIP3   OH238275   1.227   1.099  15.264 -0.3431 -0.0882 -0.5168
 5595TIP3    H138276   1.136   1.125  15.281  0.4960  2.0178  1.3714
 5595TIP3    H238277   1.234   1.011  15.302 -1.7482 -0.6229 -1.4064
 5596TIP3   OH238278   0.031   1.958   3.941 -0.1702 -0.0565  0.0303
 5596TIP3    H138279   0.024   1.939   4.034  0.0329 -1.5798 -0.2478
 5596TIP3    H238280  -0.060   1.964   3.912 -0.2723 -1.8632 -0.0961
 5597TIP3   OH238281   0.983   6.400  13.228 -0.0849  0.2446 -0.2056
 5597TIP3    H138282   1.055   6.416  13.168 -1.3062  0.6301 -1.6386
 5597TIP3    H238283   0.970   6.305  13.225  1.5212 -0.0894  1.5239
 5598TIP3   OH238284   4.588   1.364  14.569 -0.5870  0.2634  0.0240
 5598TIP3    H138285   4.646   1.296  14.535 -1.1828 -1.2010  1.7634
 5598TIP3    H238286   4.516   1.369  14.506  0.4320  0.6770 -1.1179
 5599TIP3   OH238287   4.615   1.612  16.256 -0.1040  0.1241 -0.3633
 5599TIP3    H138288   4.657   1.604  16.341 -1.9819 -0.2534  0.5894
 5599TIP3    H238289   4.615   1.705  16.237 -0.3641  0.3032  0.4589
 5600TIP3   OH238290   5.619   6.776  12.165 -0.3817  0.5087 -0.0337
 5600TIP3    H138291   5.546   6.815  12.213 -0.6721  0.7944 -0.7067
 5600TIP3    H238292   5.666   6.850  12.128 -0.0648  0.2954 -0.0662
 5601TIP3   OH238293   5.867   3.236  14.706  0.1728  0.3193 -0.0847
 5601TIP3    H138294   5.909   3.156  14.676 -2.2989 -1.8826  1.8908
 5601TIP3    H238295   5.805   3.258  14.637  0.0631 -0.1394 -0.1340
 5602TIP3   OH238296   5.660   4.583  15.246  0.5514 -0.4548 -0.6349
 5602TIP3    H138297   5.721   4.589  15.320  0.4253 -0.7366 -0.5035
 5602TIP3    H238298   5.644   4.489  15.237 -0.0613 -0.3655 -0.5078
 5603TIP3   OH238299   5.452   2.199  15.662 -0.2814  0.5877 -0.3592
 5603TIP3    H138300   5.424   2.208  15.570  0.3426 -0.5392 -0.6770
 5603TIP3    H238301   5.519   2.266  15.673 -1.5280  1.8625 -0.2140
 5604TIP3   OH238302   1.319   2.040  11.433 -0.1816  0.0656  0.0413
 5604TIP3    H138303   1.230   2.011  11.450 -0.0616 -0.1608  0.2917
 5604TIP3    H238304   1.343   1.997  11.351 -0.4363  0.4285 -0.2249
 5605TIP3   OH238305   6.668   0.615   1.305 -0.1906 -0.1669 -0.0211
 5605TIP3    H138306   6.673   0.558   1.228 -0.8608 -0.6920  0.3276
 5605TIP3    H238307   6.666   0.556   1.380 -2.3756  0.2298  0.2996
 5606TIP3   OH238308   1.225   2.384  13.293 -0.5064 -0.4681  0.1517
 5606TIP3    H138309   1.223   2.407  13.386 -2.0995  0.5395 -0.1097
 5606TIP3    H238310   1.263   2.296  13.292  1.8064  0.3963  1.5242
 5607TIP3   OH238311   2.742   0.597  11.984  0.7534 -0.2641  0.6648
 5607TIP3    H138312   2.678   0.539  11.943  1.1106 -0.2237  0.0451
 5607TIP3    H238313   2.826   0.570  11.947  0.6948  2.1793 -1.4949
 5608TIP3   OH238314   1.283   1.113  11.076  0.0887 -0.1214 -0.4769
 5608TIP3    H138315   1.318   1.152  10.996 -1.3267 -0.5084 -1.3339
 5608TIP3    H238316   1.328   1.029  11.083  0.7141  0.2084 -0.4824
 5609TIP3   OH238317   2.661   6.799  15.457  0.7563  0.1370 -0.0340
 5609TIP3    H138318   2.717   6.869  15.423  0.5112  1.1101  1.4929
 5609TIP3    H238319   2.691   6.785  15.546  0.0452 -0.9240  0.0522
 5610TIP3   OH238320   6.366   0.636  13.939 -0.1657 -0.5693  0.3141
 5610TIP3    H138321   6.303   0.706  13.956 -0.6454 -1.0202  0.4128
 5610TIP3    H238322   6.413   0.664  13.861 -0.0061  0.1012  0.6449
 5611TIP3   OH238323   3.344   1.902   3.197 -0.6830  0.4462 -0.3276
 5611TIP3    H138324   3.267   1.861   3.236 -0.9201  0.6661 -0.5643
 5611TIP3    H238325   3.409   1.904   3.268 -1.0168  0.5955 -0.0247
 5612TIP3   OH238326   2.868   1.735   2.434  0.4044 -0.7614 -0.1592
 5612TIP3    H138327   2.931   1.794   2.393  1.0241 -0.6301  0.9245
 5612TIP3    H238328   2.906   1.715   2.520 -0.9148 -0.8868  0.4288
 5613TIP3   OH238329   3.993   5.557   5.656  0.4077 -0.1594  0.3615
 5613TIP3    H138330   3.948   5.473   5.667  0.2428 -0.0738  0.3393
 5613TIP3    H238331   4.053   5.542   5.584  0.5992 -0.3509  0.5575
 5614TIP3   OH238332   2.483   5.514  16.146  0.1752 -0.2216 -0.7093
 5614TIP3    H138333   2.417   5.533  16.079  0.5699 -1.0844 -1.3704
 5614TIP3    H238334   2.563   5.556  16.112  0.7596 -1.9352 -1.5885
 5615TIP3   OH238335   2.327   5.453   4.997  0.0503  0.5428  0.0477
 5615TIP3    H138336   2.343   5.498   5.080  1.0217 -1.6783  1.1460
 5615TIP3    H238337   2.242   5.411   5.010  0.2725  0.0720  0.0011
 5616TIP3   OH238338   5.707   4.743   5.513  0.4687  0.2661 -0.1165
 5616TIP3    H138339   5.621   4.753   5.555 -0.6725  1.6953 -2.5627
 5616TIP3    H238340   5.697   4.666   5.457  1.4738 -0.7210  1.0121
 5617TIP3   OH238341   1.398   3.102   4.941 -0.0228 -0.9550  0.2289
 5617TIP3    H138342   1.471   3.120   4.882  0.1424  0.5496  0.8374
 5617TIP3    H238343   1.399   3.007   4.953  1.0996 -1.0777 -0.6983
 5618TIP3   OH238344   1.739   4.988  15.769  0.0531  0.4684  0.0123
 5618TIP3    H138345   1.809   5.012  15.709  1.0399 -0.9083  0.5703
 5618TIP3    H238346   1.779   4.992  15.856 -0.8687  0.7171  0.4402
 5619TIP3   OH238347   0.434   6.625   4.740 -0.1433 -0.1312 -0.8033
 5619TIP3    H138348   0.434   6.717   4.767  0.7624 -0.0818 -0.9517
 5619TIP3    H238349   0.357   6.588   4.782 -0.2739  0.5932 -0.3872
 5620TIP3   OH238350   6.750   1.425   0.625 -0.2103 -0.5023  0.6436
 5620TIP3    H138351   6.729   1.351   0.682  1.9480 -1.0674  0.7931
 5620TIP3    H238352   6.823   1.394   0.572 -1.2317  0.4970 -1.4805
 5621TIP3   OH238353   4.628   6.420   2.259 -0.2532 -0.5981 -0.4716
 5621TIP3    H138354   4.681   6.471   2.197  0.4538 -1.8687 -0.9459
 5621TIP3    H238355   4.663   6.443   2.345 -0.5070  0.3437 -0.6084
 5622TIP3   OH238356   1.422   2.131  16.295  0.7912  1.1441  0.0635
 5622TIP3    H138357   1.372   2.055  16.324  0.1859  2.0114  1.4043
 5622TIP3    H238358   1.407   2.137  16.201  0.2126  0.0758  0.0871
 5623TIP3   OH238359   6.251   0.719   1.455  0.1620 -0.3161  0.1357
 5623TIP3    H138360   6.215   0.631   1.443  0.9668 -0.4336 -1.7805
 5623TIP3    H238361   6.227   0.766   1.375  0.3658  1.0031  0.8204
 5624TIP3   OH238362   0.773   2.558   5.035 -0.1978  0.7387 -0.0601
 5624TIP3    H138363   0.691   2.570   5.083 -1.1793  0.4001 -1.6013
 5624TIP3    H238364   0.785   2.639   4.986  0.1695  0.6242 -0.1658
 5625TIP3   OH238365   2.772   5.084   4.054 -0.5640 -0.3183 -0.4709
 5625TIP3    H138366   2.756   5.000   4.011  0.4536 -0.2913 -0.9493
 5625TIP3    H238367   2.708   5.088   4.125  0.8503 -2.5287  1.0323
 5626TIP3   OH238368   0.461   4.530   6.380  0.3470 -0.5787  0.8197
 5626TIP3    H138369   0.370   4.500   6.376  1.0212 -2.8793  0.7133
 5626TIP3    H238370   0.488   4.512   6.470  0.1839  1.9326  1.4228
 5627TIP3   OH238371   6.506   4.852  14.016  0.3206  0.2878  1.0153
 5627TIP3    H138372   6.526   4.822  14.104 -1.4239  2.8583  2.4325
 5627TIP3    H238373   6.424   4.901  14.025 -0.7301 -0.5565 -2.3277
 5628TIP3   OH238374   6.096   2.442  11.503 -0.2267 -0.5499 -0.0969
 5628TIP3    H138375   6.108   2.363  11.556 -0.4788  0.2812  1.2335
 5628TIP3    H238376   6.003   2.443  11.482 -0.6076  0.3221  1.4590
 5629TIP3   OH238377   4.396   2.237  11.138 -0.3924 -0.2580 -0.3271
 5629TIP3    H138378   4.328   2.170  11.144 -0.6621 -0.0014 -0.5311
 5629TIP3    H238379   4.419   2.239  11.045  1.2272 -1.6733 -0.0037
 5630TIP3   OH238380   3.291   0.030   4.027  0.3517 -0.4104 -0.4119
 5630TIP3    H138381   3.208   0.068   3.999  0.0779 -0.1705  0.6596
 5630TIP3    H238382   3.357   0.090   3.995 -0.0590  0.8869  1.0230
 5631TIP3   OH238383   4.527   2.474  14.624  0.4060  0.0319 -0.4895
 5631TIP3    H138384   4.452   2.451  14.569  0.8866 -0.0166 -1.1346
 5631TIP3    H238385   4.594   2.503  14.563  0.4073  1.5409  0.1727
 5632TIP3   OH238386   1.720   2.908   6.882  0.2460 -0.3365 -0.1266
 5632TIP3    H138387   1.654   2.947   6.825 -0.3982 -2.0594 -0.6233
 5632TIP3    H238388   1.778   2.981   6.905  0.2583  0.5211 -2.5782
 5633TIP3   OH238389   6.450   1.748   1.672  0.5198  0.1316 -0.0514
 5633TIP3    H138390   6.378   1.791   1.717 -0.8875  0.0810 -2.1046
 5633TIP3    H238391   6.502   1.709   1.742 -0.9423  0.9257  1.5616
 5634TIP3   OH238392   1.957   0.912   3.602  0.1906 -0.2877 -0.2127
 5634TIP3    H138393   2.015   0.976   3.562  1.3767 -1.0800  0.1707
 5634TIP3    H238394   1.874   0.957   3.612  0.8857  1.0527 -0.3044
 5635TIP3   OH238395   3.389   4.848  16.706 -0.4189  0.1306 -0.3117
 5635TIP3    H138396   3.402   4.934  16.747  0.8489  0.1015 -0.6193
 5635TIP3    H238397   3.347   4.867  16.622 -0.2740  0.4394 -0.3148
 5636TIP3   OH238398   0.822   6.270  10.544 -0.2965  0.5853 -0.0379
 5636TIP3    H138399   0.857   6.233  10.625  0.2003  3.3903  1.1427
 5636TIP3    H238400   0.898   6.307  10.500 -0.6772 -0.2692 -1.5021
 5637TIP3   OH238401   4.101   5.745  13.314  0.0242 -0.5669  0.3887
 5637TIP3    H138402   4.076   5.740  13.222  0.7103 -0.5893  0.1989
 5637TIP3    H238403   4.096   5.655  13.346 -1.5560 -0.3838  0.7510
 5638TIP3   OH238404   3.010   4.356   3.475  0.1491  0.0548  0.1914
 5638TIP3    H138405   2.982   4.393   3.559  1.5722 -0.4812  0.9501
 5638TIP3    H238406   2.997   4.262   3.485  0.8940 -0.0722  0.0581
 5639TIP3   OH238407   3.360   6.639  11.222 -0.3499  0.0217  0.2155
 5639TIP3    H138408   3.353   6.560  11.277 -0.6771  0.0839  0.2637
 5639TIP3    H238409   3.454   6.647  11.205 -0.3263 -0.4613  0.0921
 5640TIP3   OH238410   3.120   1.797  10.143 -0.0867 -0.4069  0.2228
 5640TIP3    H138411   3.205   1.756  10.129  0.3961  0.3742  0.7662
 5640TIP3    H238412   3.128   1.839  10.229 -0.7850  0.2634 -0.0308
 5641TIP3   OH238413   5.455   5.070  13.720 -0.8876  0.1400  0.2900
 5641TIP3    H138414   5.494   5.018  13.650  0.9301  0.7204  0.8198
 5641TIP3    H238415   5.409   5.006  13.775 -0.5013 -0.6075 -0.2438
 5642TIP3   OH238416   2.511   3.838  13.294 -0.5055 -0.8691  0.2202
 5642TIP3    H138417   2.502   3.926  13.330  0.1374 -1.2364  1.3322
 5642TIP3    H238418   2.497   3.849  13.200  1.2056  0.7115  0.0844
 5643TIP3   OH238419   2.264   4.356  14.320 -0.2293  0.4543 -0.0776
 5643TIP3    H138420   2.293   4.434  14.368  1.2109  0.7256 -1.3008
 5643TIP3    H238421   2.211   4.308  14.382  3.5667 -0.5455  2.7860
 5644TIP3   OH238422   0.737   4.468   0.081 -0.1655  0.3037  0.2816
 5644TIP3    H138423   0.657   4.458   0.029  0.0673  1.4608 -0.3206
 5644TIP3    H238424   0.707   4.506   0.164 -0.7061 -2.6239  1.5741
 5645TIP3   OH238425   4.670   2.449  12.035  0.5302 -0.0599  0.1596
 5645TIP3    H138426   4.722   2.488  11.965  1.0367 -0.4339  0.3122
 5645TIP3    H238427   4.605   2.515  12.058 -0.2150 -0.2581 -1.2560
 5646TIP3   OH238428   1.754   1.156   1.514  0.2692 -0.0496 -0.7590
 5646TIP3    H138429   1.849   1.144   1.505  0.5417  0.6748  0.7214
 5646TIP3    H238430   1.724   1.177   1.426  1.0687 -2.6909 -1.7655
 5647TIP3   OH238431   1.085   2.490  16.424 -0.4990 -0.1312  0.8594
 5647TIP3    H138432   1.157   2.433  16.397 -1.1289 -0.9827  0.9242
 5647TIP3    H238433   1.093   2.568  16.369  0.2434 -0.3821  0.6070
 5648TIP3   OH238434   2.453   5.093   3.769 -0.2083  0.1994 -0.7435
 5648TIP3    H138435   2.390   5.083   3.698 -0.9233  0.4420 -0.1523
 5648TIP3    H238436   2.481   5.003   3.788  0.0143  0.1360 -1.3501
 5649TIP3   OH238437   0.149   2.371  13.750 -0.1507  0.1085  0.3572
 5649TIP3    H138438   0.112   2.399  13.834  1.8238 -1.4212  1.8095
 5649TIP3    H238439   0.155   2.452  13.699 -1.0005  1.1340  1.8120
 5650TIP3   OH238440   3.894   4.390  12.928 -0.9425 -0.3517  0.0190
 5650TIP3    H138441   3.869   4.417  13.016 -2.1929 -1.8840  0.1889
 5650TIP3    H238442   3.811   4.385  12.881 -0.3468 -0.1580 -1.0766
 5651TIP3   OH238443   5.051   3.563  14.049  0.1145  0.2538 -0.0385
 5651TIP3    H138444   5.146   3.550  14.045  0.2709  1.2352  0.1560
 5651TIP3    H238445   5.023   3.506  14.120  0.7510  0.8698  0.7369
 5652TIP3   OH238446   3.522   2.111  16.885 -0.5250  0.2334 -0.2066
 5652TIP3    H138447   3.587   2.042  16.872  0.0622  0.1666  2.5544
 5652TIP3    H238448   3.444   2.080  16.840  0.2396 -1.4203 -0.4516
 5653TIP3   OH238449   1.045   3.209  11.642  0.1558 -0.2095  0.3862
 5653TIP3    H138450   0.970   3.258  11.608 -0.0654 -0.7138  0.1351
 5653TIP3    H238451   1.117   3.231  11.583 -0.7821 -3.0062 -2.0744
 5654TIP3   OH238452   2.265   6.784   1.951 -0.0540 -0.6818 -0.4873
 5654TIP3    H138453   2.301   6.695   1.947 -1.5852 -1.3927  0.5150
 5654TIP3    H238454   2.173   6.772   1.976  0.0441  1.2592  1.0530
 5655TIP3   OH238455   6.400   4.150  16.002 -0.2087  0.5094  0.1896
 5655TIP3    H138456   6.335   4.155  15.931  0.4642  1.8379 -0.3606
 5655TIP3    H238457   6.354   4.104  16.073 -1.2278  0.0389 -0.7370
 5656TIP3   OH238458   3.918   0.224  13.835  0.2122 -0.4596 -0.2848
 5656TIP3    H138459   3.879   0.234  13.921 -1.2335  0.7801 -1.0422
 5656TIP3    H238460   3.845   0.232  13.774  1.5968  1.9191 -1.7773
 5657TIP3   OH238461   3.948   6.127  16.610  0.0377  0.0949  0.1680
 5657TIP3    H138462   3.917   6.210  16.644  0.3267  0.7389 -1.0775
 5657TIP3    H238463   4.016   6.099  16.670 -0.3692  0.5256  0.8428
 5658TIP3   OH238464   5.865   5.652   5.045  0.4124  0.4391 -0.3241
 5658TIP3    H138465   5.816   5.677   5.123  1.5802 -2.0501  1.3311
 5658TIP3    H238466   5.804   5.600   4.993  0.4207 -0.1772  0.2772
 5659TIP3   OH238467   3.501   1.338  15.229  0.2091 -1.0355 -0.5531
 5659TIP3    H138468   3.405   1.345  15.230  0.2443 -0.5651 -0.3905
 5659TIP3    H238469   3.518   1.247  15.254 -0.1799 -0.9177  0.1831
 5660TIP3   OH238470   6.352   0.547  14.595 -0.3227  0.2564 -0.2042
 5660TIP3    H138471   6.331   0.618  14.533 -0.8454 -0.3025 -0.6787
 5660TIP3    H238472   6.300   0.473  14.565  0.2624 -0.3518  0.2594
 5661TIP3   OH238473   4.375   5.455  13.214  0.4029 -0.1675  0.5356
 5661TIP3    H138474   4.342   5.513  13.145 -0.5235 -0.3132  0.8384
 5661TIP3    H238475   4.454   5.498  13.245 -0.2105  0.8957  0.6822
 5662TIP3   OH238476   5.666   4.648   4.250  0.5135 -0.3390 -0.0026
 5662TIP3    H138477   5.593   4.705   4.271  0.8442  0.1574 -0.1780
 5662TIP3    H238478   5.654   4.571   4.305  2.2282  1.5638  3.3387
 5663TIP3   OH238479   6.086   1.973   1.708  0.2086  0.0649 -0.0073
 5663TIP3    H138480   6.031   1.900   1.738  0.0524  0.1504 -0.0815
 5663TIP3    H238481   6.162   1.972   1.766 -0.3522  0.5706  0.7477
 5664TIP3   OH238482   3.930   2.650  11.939 -0.2769 -0.4806 -1.1412
 5664TIP3    H138483   4.011   2.603  11.916  0.0012 -0.7906  0.3811
 5664TIP3    H238484   3.947   2.740  11.912  0.8293 -0.4176 -0.2992
 5665TIP3   OH238485   0.205   0.903   6.481  0.2983 -0.1924 -0.0851
 5665TIP3    H138486   0.225   0.983   6.530  0.3579  0.1266 -0.6176
 5665TIP3    H238487   0.290   0.874   6.447  0.1007  0.2996 -1.0506
 5666TIP3   OH238488   0.311   2.464   5.214  0.2001 -0.3969  0.0777
 5666TIP3    H138489   0.274   2.393   5.162 -2.9372  1.3200 -0.2927
 5666TIP3    H238490   0.330   2.533   5.150 -0.1546  0.3637  0.7682
 5667TIP3   OH238491   2.052   0.234  13.945  0.0310 -0.5509  0.3818
 5667TIP3    H138492   2.143   0.208  13.956  0.0186 -0.1549  1.5246
 5667TIP3    H238493   2.035   0.294  14.018 -0.9498 -0.1038 -0.1979
 5668TIP3   OH238494   5.305   1.896  14.317 -0.7877 -0.4175  0.1765
 5668TIP3    H138495   5.318   1.933  14.404  0.5739  2.6697 -1.1865
 5668TIP3    H238496   5.213   1.871  14.315 -2.1563  3.7275  1.1441
 5669TIP3   OH238497   3.742   5.577  11.661 -0.0090  0.1549  0.4064
 5669TIP3    H138498   3.818   5.532  11.699 -0.6441  1.2974  3.2927
 5669TIP3    H238499   3.704   5.514  11.601  0.7827 -2.0964  2.1310
 5670TIP3   OH238500   5.630   6.532   4.401  0.0743 -0.3755  0.0737
 5670TIP3    H138501   5.713   6.578   4.392  0.0914  0.1575  2.2859
 5670TIP3    H238502   5.645   6.468   4.471 -1.4954  0.1443  0.9424
 5671TIP3   OH238503   6.623   5.839   3.573 -0.7051  0.6190  0.4001
 5671TIP3    H138504   6.582   5.824   3.658 -1.0475 -1.6002 -0.0722
 5671TIP3    H238505   6.703   5.887   3.592 -0.8523  0.2796  1.9700
 5672TIP3   OH238506   4.731   2.452   1.421 -1.0817  0.3563  0.5324
 5672TIP3    H138507   4.785   2.404   1.483 -0.6170 -1.8143 -1.4005
 5672TIP3    H238508   4.784   2.455   1.341 -3.7023 -1.9230 -1.4708
 5673TIP3   OH238509   3.414   1.272   1.054  0.1511  0.3729 -0.6130
 5673TIP3    H138510   3.350   1.238   1.117 -0.9161 -1.2555 -2.4466
 5673TIP3    H238511   3.381   1.359   1.031 -0.6144  0.1282 -0.4616
 5674TIP3   OH238512   3.672   0.500  10.799 -0.0024 -0.3401  0.3442
 5674TIP3    H138513   3.739   0.434  10.815  0.7647  0.3105 -0.1340
 5674TIP3    H238514   3.709   0.556  10.731 -0.8029  0.3527  0.4646
 5675TIP3   OH238515   5.215   1.400  15.137 -0.3268 -0.0126 -0.2256
 5675TIP3    H138516   5.181   1.396  15.226 -0.5845  0.7523 -0.2818
 5675TIP3    H238517   5.144   1.441  15.086 -0.9781 -2.1701 -1.1837
 5676TIP3   OH238518   4.526   4.161   4.947 -0.5077 -0.1531  0.0648
 5676TIP3    H138519   4.448   4.157   4.892 -1.9173 -1.6301  2.0381
 5676TIP3    H238520   4.493   4.188   5.033  0.8625 -2.3677  1.3695
 5677TIP3   OH238521   5.559   3.507   6.061 -0.0594 -0.3981 -0.2030
 5677TIP3    H138522   5.477   3.458   6.066  0.5066 -1.3537  0.2399
 5677TIP3    H238523   5.566   3.550   6.146 -1.1261  1.4540 -1.0125
 5678TIP3   OH238524   2.980   6.452  15.043 -0.3052  0.0086  0.6211
 5678TIP3    H138525   2.895   6.446  14.999 -0.4074 -2.0482  1.0255
 5678TIP3    H238526   3.013   6.362  15.045  1.6246  0.6772  1.0071
 5679TIP3   OH238527   3.137   4.204  14.976  0.1750 -0.4794 -0.4146
 5679TIP3    H138528   3.146   4.113  15.003  0.4564 -1.5893 -3.7580
 5679TIP3    H238529   3.043   4.221  14.980  0.0732 -1.0762 -0.1706
 5680TIP3   OH238530   3.741   4.259   1.989 -0.3932 -0.1179 -0.6122
 5680TIP3    H138531   3.814   4.221   1.939 -0.1189  0.3032 -0.5416
 5680TIP3    H238532   3.784   4.321   2.049 -0.8363  0.3337 -0.7620
 5681TIP3   OH238533   2.338   2.666  14.401  0.1485  0.2551  0.3094
 5681TIP3    H138534   2.246   2.693  14.407  0.1891  1.3237 -2.6470
 5681TIP3    H238535   2.386   2.748  14.389  1.1482 -0.5164 -1.1005
 5682TIP3   OH238536   6.516   0.973   2.999 -0.4589  0.1988 -0.4677
 5682TIP3    H138537   6.478   1.010   2.920 -3.3153 -1.9168 -0.2547
 5682TIP3    H238538   6.543   0.885   2.974 -1.3727 -0.4906  0.8122
 5683TIP3   OH238539   2.546   1.641  12.646  0.6560  0.3457  0.1934
 5683TIP3    H138540   2.553   1.604  12.733  0.1222  1.8501  0.9139
 5683TIP3    H238541   2.554   1.566  12.587 -0.7968 -0.9575  1.5694
 5684TIP3   OH238542   4.070   6.101   2.123 -0.5480  0.0262  0.1765
 5684TIP3    H138543   4.014   6.174   2.152 -0.0713  0.4467  0.0591
 5684TIP3    H238544   4.091   6.054   2.204 -0.8145  0.0494  0.2617
 5685TIP3   OH238545   4.231   4.206   1.641  0.0239  0.3341 -0.1675
 5685TIP3    H138546   4.140   4.231   1.627  0.2363  2.5624  1.8110
 5685TIP3    H238547   4.226   4.120   1.683 -1.0975  0.0118 -0.9143
 5686TIP3   OH238548   5.714   2.605  11.852  0.4685  0.5557  0.2395
 5686TIP3    H138549   5.802   2.639  11.866  0.0275  2.1027 -0.4225
 5686TIP3    H238550   5.676   2.664  11.786 -0.2100 -1.5553 -1.3695
 5687TIP3   OH238551   0.670   1.733  13.412  0.0246  0.1335 -0.0116
 5687TIP3    H138552   0.748   1.789  13.403  0.0251 -0.1991 -2.8912
 5687TIP3    H238553   0.693   1.652  13.366 -1.4596 -0.6153  0.5035
 5688TIP3   OH238554   2.323   2.963   3.897  0.0966  0.3755  0.4068
 5688TIP3    H138555   2.264   3.038   3.892 -1.7561 -1.0126  0.0842
 5688TIP3    H238556   2.294   2.906   3.825  1.0920 -0.8711  0.9544
 5689TIP3   OH238557   3.843   3.261   1.859 -0.1051  0.1420 -0.1157
 5689TIP3    H138558   3.758   3.230   1.890  1.0291 -1.9009  1.1776
 5689TIP3    H238559   3.836   3.357   1.862 -2.4943  0.0362 -0.5534
 5690TIP3   OH238560   0.266   0.940  13.743 -0.0314 -0.0912 -0.3109
 5690TIP3    H138561   0.274   0.882  13.819 -0.0275  1.2050  0.7215
 5690TIP3    H238562   0.356   0.971  13.727 -0.0718 -0.1655 -0.6860
 5691TIP3   OH238563   1.474   3.675   2.349  0.2619 -0.2150 -0.9532
 5691TIP3    H138564   1.383   3.646   2.346  0.2039  0.0018 -1.2752
 5691TIP3    H238565   1.513   3.624   2.420 -0.7691  1.5052  0.9945
 5692TIP3   OH238566   6.529   2.490  14.798 -0.0141  0.3740 -0.4794
 5692TIP3    H138567   6.488   2.409  14.768  0.2269 -0.3780  1.0760
 5692TIP3    H238568   6.470   2.522  14.866  1.2300  0.0025  0.8271
 5693TIP3   OH238569   3.881   5.665  13.881 -0.1906  0.3033  0.1425
 5693TIP3    H138570   3.813   5.677  13.815 -0.1794  1.5219  0.3337
 5693TIP3    H238571   3.951   5.618  13.835 -1.1871 -1.0589 -0.0271
 5694TIP3   OH238572   4.205   4.570   1.442 -0.0316  0.0227  0.3719
 5694TIP3    H138573   4.215   4.537   1.531  0.7496 -0.8223 -0.0148
 5694TIP3    H238574   4.292   4.562   1.403 -0.4597 -0.0167 -0.6030
 5695TIP3   OH238575   4.293   0.715   4.010  0.1218  0.0828 -0.4318
 5695TIP3    H138576   4.286   0.697   4.103 -2.2143  0.2506 -0.4926
 5695TIP3    H238577   4.318   0.632   3.970  0.1863 -0.2343  0.2637
 5696TIP3   OH238578   5.382   1.321   1.904 -0.0653 -0.5505  0.8719
 5696TIP3    H138579   5.394   1.378   1.980  1.3099  1.2296 -0.5773
 5696TIP3    H238580   5.304   1.355   1.860  1.1193  0.7450 -0.3444
 5697TIP3   OH238581   0.231   6.787  14.428  0.3658  0.6051 -0.3674
 5697TIP3    H138582   0.210   6.859  14.369  3.0402  0.9398 -1.0624
 5697TIP3    H238583   0.264   6.718  14.369  3.6693  1.1618  0.6517
 5698TIP3   OH238584   2.969   2.606   0.432 -0.1250  0.2565  0.1780
 5698TIP3    H138585   2.959   2.675   0.367 -2.1715 -1.3718 -1.3470
 5698TIP3    H238586   2.979   2.526   0.381  3.1732 -0.5740  1.8786
 5699TIP3   OH238587   2.746   1.834  15.277  0.0826 -0.3603 -0.2874
 5699TIP3    H138588   2.680   1.765  15.277  1.7633 -2.1142  0.6925
 5699TIP3    H238589   2.829   1.786  15.284  1.6385  1.6072 -3.2947
 5700TIP3   OH238590   5.014   5.994  13.810  0.0077  0.6626 -0.4406
 5700TIP3    H138591   4.966   6.076  13.796  1.9114  1.9243  0.0093
 5700TIP3    H238592   5.104   6.015  13.788  0.2744 -1.8830 -2.1325
 5701TIP3   OH238593   2.027   0.099   5.482  0.3272 -0.2659  0.1558
 5701TIP3    H138594   2.104   0.147   5.514  0.1779 -0.9049  1.5745
 5701TIP3    H238595   1.977   0.080   5.562 -0.5168 -1.2034 -0.5831
 5702TIP3   OH238596   6.504   5.929  11.967  0.7429  0.1688  0.0378
 5702TIP3    H138597   6.418   5.959  11.999  0.8975 -0.8965  1.6113
 5702TIP3    H238598   6.566   5.995  11.999  0.6205  0.4297 -0.2601
 5703TIP3   OH238599   0.876   2.899  12.901  0.5750 -0.0236  0.3337
 5703TIP3    H138600   0.867   2.825  12.841  0.7250 -0.1775  0.5013
 5703TIP3    H238601   0.787   2.936  12.906  0.0433 -1.3782  1.7560
 5704TIP3   OH238602   4.017   0.739   6.025  0.0796  0.1402  0.2477
 5704TIP3    H138603   4.109   0.734   6.051  0.3591 -0.1872 -0.7364
 5704TIP3    H238604   4.020   0.779   5.938 -0.7483  0.5090  0.3832
 5705TIP3   OH238605   4.935   4.075   0.233  0.4880  0.7948  0.6475
 5705TIP3    H138606   4.959   4.086   0.325  0.9838  0.4551  0.5591
 5705TIP3    H238607   5.002   4.018   0.196 -0.7742 -0.7266  0.5571
 5706TIP3   OH238608   1.691   1.823  10.916  0.2768 -0.1310 -0.1150
 5706TIP3    H138609   1.631   1.898  10.923  1.8910  1.3235 -1.1652
 5706TIP3    H238610   1.652   1.769  10.847 -0.2499  0.3972 -0.2481
 5707TIP3   OH238611   4.703   4.811  12.253 -0.1431 -0.1263 -0.2960
 5707TIP3    H138612   4.790   4.775  12.234  0.1402  0.4035 -0.0214
 5707TIP3    H238613   4.679   4.772  12.337 -0.6789 -1.1681 -0.9055
 5708TIP3   OH238614   3.596   6.538  12.950 -0.1746 -0.1852 -0.5597
 5708TIP3    H138615   3.650   6.471  12.990 -1.6283 -0.5875  0.8341
 5708TIP3    H238616   3.617   6.618  12.998  0.2295 -0.0335 -0.9889
 5709TIP3   OH238617   6.088   6.616   3.619  0.1882  0.2887  0.6145
 5709TIP3    H138618   6.134   6.654   3.544  0.0301 -0.3464  0.1879
 5709TIP3    H238619   6.125   6.529   3.629 -0.7599 -0.1563  0.3989
 5710TIP3   OH238620   0.022   0.558  11.146  0.6455  0.1039  0.1551
 5710TIP3    H138621   0.079   0.485  11.123  1.1387  0.3350  0.6077
 5710TIP3    H238622  -0.057   0.545  11.094  1.3105  0.0559 -0.8810
 5711TIP3   OH238623   2.592   3.509  14.180 -0.3686  0.1383  0.5543
 5711TIP3    H138624   2.550   3.593  14.163 -3.6425 -1.2681  0.9561
 5711TIP3    H238625   2.610   3.473  14.093 -4.5711 -1.1896  0.0083
 5712TIP3   OH238626   1.277   0.961  11.650 -0.0249 -0.1767 -0.0033
 5712TIP3    H138627   1.366   0.992  11.666 -0.3987  1.1699 -0.4246
 5712TIP3    H238628   1.272   0.949  11.555 -1.4383  3.7544 -0.6311
 5713TIP3   OH238629   1.594   2.751  16.386  0.8269 -0.7353 -0.2489
 5713TIP3    H138630   1.636   2.729  16.469  0.2642  0.8187  0.4765
 5713TIP3    H238631   1.614   2.843  16.372 -0.9995 -0.3625 -0.6578
 5714TIP3   OH238632   5.209   0.802  16.564 -0.1036  0.7274 -0.0553
 5714TIP3    H138633   5.260   0.779  16.641 -2.7516 -0.4918  1.4798
 5714TIP3    H238634   5.208   0.723  16.510  0.4306  1.0785 -0.6020
 5715TIP3   OH238635   3.977   3.983  15.604 -1.4014  0.2938 -0.0148
 5715TIP3    H138636   3.898   3.976  15.552 -1.1454 -2.5042 -0.1886
 5715TIP3    H238637   3.964   3.922  15.677  0.4593 -0.0581  0.0927
 5716TIP3   OH238638   5.379   1.224   0.176  0.3438  0.9929  0.3519
 5716TIP3    H138639   5.295   1.269   0.166  0.1544  1.5714  3.4732
 5716TIP3    H238640   5.434   1.287   0.223  1.2190 -0.7135  1.7430
 5717TIP3   OH238641   6.358   4.389   1.333 -0.6862  0.1375 -0.1723
 5717TIP3    H138642   6.401   4.312   1.368 -2.0126 -0.6643 -0.2298
 5717TIP3    H238643   6.298   4.417   1.402  1.5417  2.6840  0.8909
 5718TIP3   OH238644   2.018   2.061  14.306  0.6681  0.5500  0.0328
 5718TIP3    H138645   1.959   1.992  14.339 -0.6779  0.6775 -1.9240
 5718TIP3    H238646   2.106   2.027  14.323  0.0509 -0.5745  1.2184
 5719TIP3   OH238647   3.922   3.005   4.131  0.4696 -0.0285 -0.2770
 5719TIP3    H138648   3.963   3.024   4.215 -0.5279 -1.1196  0.4975
 5719TIP3    H238649   3.987   2.951   4.085  1.9648  2.3778 -1.1957
 5720TIP3   OH238650   1.249   3.356  15.260 -0.4722  0.0533  0.9695
 5720TIP3    H138651   1.255   3.266  15.291 -0.9144 -0.8224 -1.3426
 5720TIP3    H238652   1.339   3.382  15.242 -0.4555 -0.3595  0.4665
 5721TIP3   OH238653   0.291   4.787  14.073 -0.2071 -0.0877 -0.7105
 5721TIP3    H138654   0.303   4.801  14.167  3.1906 -0.6883 -0.9110
 5721TIP3    H238655   0.235   4.710  14.068  0.9696 -1.1275  0.9326
 5722TIP3   OH238656   0.881   4.608   0.788 -0.2723  0.2977  0.1369
 5722TIP3    H138657   0.792   4.589   0.757 -0.5183  2.3000 -0.5552
 5722TIP3    H238658   0.929   4.629   0.708  0.3755  0.8725  0.6741
 5723TIP3   OH238659   0.314   3.133   4.753 -0.6309  0.4916  0.4615
 5723TIP3    H138660   0.287   3.109   4.665 -0.6371 -1.8474  1.0149
 5723TIP3    H238661   0.359   3.217   4.744  0.6310 -0.3725 -1.9766
 5724TIP3   OH238662   4.110   2.939  16.615  0.2176  0.4767 -0.4824
 5724TIP3    H138663   4.021   2.956  16.643 -0.6687 -2.8451 -0.7884
 5724TIP3    H238664   4.143   3.024  16.586 -2.2580  2.1130  1.0630
 5725TIP3   OH238665   1.219   4.807  10.370 -0.6136 -0.1026 -0.4812
 5725TIP3    H138666   1.126   4.809  10.349 -0.9052 -0.0352  0.7378
 5725TIP3    H238667   1.245   4.899  10.372 -0.6336 -0.1014 -0.3208
 5726TIP3   OH238668   4.672   0.946  15.133 -0.0123 -0.5579 -0.5201
 5726TIP3    H138669   4.732   0.941  15.207  0.2502 -1.0915 -0.7649
 5726TIP3    H238670   4.588   0.918  15.168  0.2566 -1.4556 -0.5783
 5727TIP3   OH238671   5.527   0.651  12.625  0.3653  0.1979 -0.3832
 5727TIP3    H138672   5.434   0.672  12.613  0.5095  0.3405 -1.3338
 5727TIP3    H238673   5.573   0.732  12.603  0.6641  0.6401  1.6723
 5728TIP3   OH238674   6.289   3.222  16.974 -0.0111  0.1850 -0.4783
 5728TIP3    H138675   6.219   3.254  17.030 -0.4283 -0.6270 -0.5154
 5728TIP3    H238676   6.355   3.291  16.975 -0.2326  0.3944  0.6024
 5729TIP3   OH238677   1.836   6.800   5.976 -0.2603 -0.1275 -0.1776
 5729TIP3    H138678   1.931   6.804   5.963 -0.4707 -0.1648 -1.8588
 5729TIP3    H238679   1.813   6.709   5.956 -0.7946  0.1488 -0.8488
 5730TIP3   OH238680   6.416   4.390  14.707 -0.2038  0.1801  0.2893
 5730TIP3    H138681   6.387   4.379  14.798 -0.8155  1.6922  0.3138
 5730TIP3    H238682   6.510   4.375  14.710 -0.4042 -1.1111  0.9174
 5731TIP3   OH238683   1.890   6.520   2.310 -0.3267 -0.1081  0.9405
 5731TIP3    H138684   1.916   6.434   2.344 -1.2482 -0.3554  1.0381
 5731TIP3    H238685   1.798   6.529   2.334 -0.3123  0.7995  0.7008
 5732TIP3   OH238686   1.548   0.820  15.316 -0.4745  0.1896 -0.3983
 5732TIP3    H138687   1.622   0.813  15.255 -1.3954 -1.5760 -1.4071
 5732TIP3    H238688   1.546   0.912  15.340  1.9412  0.3342 -0.4535
 5733TIP3   OH238689   5.582   5.392   6.541 -0.0003 -0.1624 -0.1569
 5733TIP3    H138690   5.523   5.388   6.616 -1.1800 -0.3664 -1.0650
 5733TIP3    H238691   5.581   5.304   6.505  1.4076 -0.3404  0.2040
 5734TIP3   OH238692   0.880   6.503  13.808  0.1794  0.0553  0.4359
 5734TIP3    H138693   0.935   6.457  13.871 -2.3833 -1.5990  1.6075
 5734TIP3    H238694   0.843   6.434  13.754 -0.3076  1.1806 -0.7010
 5735TIP3   OH238695   1.883   0.987  16.005 -0.1852  0.9213 -0.0908
 5735TIP3    H138696   1.935   0.976  15.925  2.0092 -0.8074  1.4438
 5735TIP3    H238697   1.916   1.067  16.045  0.5400  0.4238  0.3236
 5736TIP3   OH238698   3.985   0.109   4.456 -0.5751 -0.3016  0.2914
 5736TIP3    H138699   4.020   0.147   4.375 -0.1052  0.1387  0.6944
 5736TIP3    H238700   3.911   0.164   4.479 -0.1909  0.0900  0.6117
 5737TIP3   OH238701   4.584   5.074   3.841 -0.1180 -0.1069  0.1926
 5737TIP3    H138702   4.615   5.016   3.910 -0.8279 -2.2834 -1.2276
 5737TIP3    H238703   4.648   5.066   3.771  0.4233  1.8251  0.4060
 5738TIP3   OH238704   0.945   4.288   0.222 -0.2666  0.1932  0.3194
 5738TIP3    H138705   0.919   4.278   0.314  2.1034  0.2441  1.0622
 5738TIP3    H238706   0.874   4.338   0.182 -1.8602 -0.7370  1.8533
 5739TIP3   OH238707   3.503   4.810   3.905 -0.4072 -0.1096 -0.2751
 5739TIP3    H138708   3.482   4.869   3.833  1.5536  0.2493 -0.6163
 5739TIP3    H238709   3.420   4.799   3.952 -1.4027  0.8041 -1.7221
 5740TIP3   OH238710   4.828   4.488   1.477 -0.1426 -0.3307 -0.6703
 5740TIP3    H138711   4.846   4.578   1.504 -1.0862 -0.4862  0.5577
 5740TIP3    H238712   4.734   4.477   1.490 -0.3115 -1.0555 -2.2179
 5741TIP3   OH238713   5.519   2.775   1.937  0.0653 -0.6265  0.0684
 5741TIP3    H138714   5.438   2.733   1.909  0.2373 -1.3289  0.5823
 5741TIP3    H238715   5.587   2.731   1.887  0.1729 -0.3854  0.0040
 5742TIP3   OH238716   6.366   4.633  11.810  0.2256  0.1633  0.2513
 5742TIP3    H138717   6.364   4.657  11.718  0.8481 -0.5642  0.0370
 5742TIP3    H238718   6.324   4.547  11.813  3.2852 -1.4743  0.0849
 5743TIP3   OH238719   5.808   0.337   0.166 -0.0539 -0.2990  0.6526
 5743TIP3    H138720   5.807   0.389   0.246  0.0344  0.4567  0.1768
 5743TIP3    H238721   5.840   0.397   0.099 -1.2629 -0.5552 -0.1919
 5744TIP3   OH238722   3.500   6.075  10.576 -0.2121  0.4186  0.1886
 5744TIP3    H138723   3.496   6.160  10.533 -1.0071  0.3914  0.1960
 5744TIP3    H238724   3.453   6.016  10.518 -0.3433  0.1532  0.5593
 5745TIP3   OH238725   2.462   6.522  13.558  0.1500  0.2179 -1.0843
 5745TIP3    H138726   2.389   6.464  13.575 -0.1094  0.7173 -0.4450
 5745TIP3    H238727   2.536   6.483  13.605  0.1841 -0.0476 -1.3603
 5746TIP3   OH238728   4.943   5.200  14.865  0.7074  0.1893  0.4427
 5746TIP3    H138729   4.884   5.265  14.902 -0.6269 -1.2062  0.8797
 5746TIP3    H238730   5.007   5.182  14.935 -0.7331 -1.1244  1.4950
 5747TIP3   OH238731   5.481   4.583   6.207 -0.6462 -0.4571  0.5000
 5747TIP3    H138732   5.395   4.595   6.167 -0.4417 -0.9206 -0.0991
 5747TIP3    H238733   5.510   4.671   6.230  0.2199  0.1471 -2.4692
 5748TIP3   OH238734   1.600   2.326   0.510  0.0986 -0.2158 -0.1926
 5748TIP3    H138735   1.690   2.359   0.502  0.4596 -0.7672  1.2400
 5748TIP3    H238736   1.609   2.230   0.502 -0.0495 -0.4505  1.9865
 5749TIP3   OH238737   2.472   4.516   5.380  0.7733  0.0955  0.0753
 5749TIP3    H138738   2.481   4.583   5.447 -0.7730  0.6552 -0.2497
 5749TIP3    H238739   2.530   4.445   5.409  0.4483  0.4947  1.7806
 5750TIP3   OH238740   0.818   5.466   0.342 -0.3223  0.2399  0.1642
 5750TIP3    H138741   0.791   5.441   0.430  1.8408 -0.7001  0.6219
 5750TIP3    H238742   0.828   5.383   0.295  2.3077  0.4344  0.2540
 5751TIP3   OH238743   2.806   4.389  12.274 -0.3783 -0.1287  0.4779
 5751TIP3    H138744   2.843   4.435  12.198 -1.2249  1.6377  1.0837
 5751TIP3    H238745   2.720   4.360  12.245 -1.0923  1.3529  0.9724
 5752TIP3   OH238746   4.727   4.655  14.551 -0.4617  0.5156 -0.5965
 5752TIP3    H138747   4.719   4.579  14.610 -0.2898 -0.1861 -1.4483
 5752TIP3    H238748   4.651   4.648  14.493 -0.6611  1.2325 -0.4223
 5753TIP3   OH238749   2.321   2.619  11.441 -0.2791 -0.6308 -0.2390
 5753TIP3    H138750   2.310   2.528  11.412 -2.9729 -0.1769 -0.9062
 5753TIP3    H238751   2.288   2.620  11.530  1.1133 -0.5500  0.2990
 5754TIP3   OH238752   3.628   2.313  12.856  0.0339 -0.1145 -0.1152
 5754TIP3    H138753   3.536   2.311  12.881  0.1996 -1.4076  0.4580
 5754TIP3    H238754   3.646   2.225  12.822  1.2022 -0.0759  0.3619
 5755TIP3   OH238755   4.741   2.875  12.048  0.6331 -0.2873  0.5414
 5755TIP3    H138756   4.800   2.899  12.120 -1.2000 -0.9947  2.3662
 5755TIP3    H238757   4.733   2.780  12.054 -0.5270 -0.2231  0.2166
 5756TIP3   OH238758   1.893   5.243   1.293 -0.1577  0.2383 -0.0144
 5756TIP3    H138759   1.940   5.321   1.321  0.5659 -0.5885  1.1755
 5756TIP3    H238760   1.916   5.232   1.201 -0.2344  1.3772 -0.1868
 5757TIP3   OH238761   5.678   4.903  11.327 -0.1930  0.2029 -0.3849
 5757TIP3    H138762   5.589   4.868  11.323 -0.6340  0.9852  1.6643
 5757TIP3    H238763   5.715   4.884  11.240 -1.5369 -2.2267 -0.5068
 5758TIP3   OH238764   1.076   0.834  13.001 -0.3233 -0.3807  0.0240
 5758TIP3    H138765   1.036   0.834  12.913 -0.4014  0.4552  0.0497
 5758TIP3    H238766   1.157   0.784  12.991 -0.1173  0.0693 -0.6350
 5759TIP3   OH238767   5.455   2.822  12.125 -0.5565  0.5747 -0.6526
 5759TIP3    H138768   5.485   2.845  12.212 -0.9784  0.4907 -0.4821
 5759TIP3    H238769   5.501   2.883  12.066  0.8893 -0.3604 -0.5255
 5760TIP3   OH238770   0.242   3.641   3.990 -0.3974 -0.2742 -0.0133
 5760TIP3    H138771   0.243   3.735   3.974  0.2445 -0.1805  0.5072
 5760TIP3    H238772   0.310   3.606   3.932 -1.3269 -0.5498 -0.9408
 5761TIP3   OH238773   5.842   4.385   3.620  0.4295  0.4193 -0.1438
 5761TIP3    H138774   5.891   4.404   3.539 -0.3346 -2.1594 -1.3090
 5761TIP3    H238775   5.898   4.324   3.668  0.5483  1.3773  0.9766
 5762TIP3   OH238776   3.132   0.689  11.982 -0.0343  0.4797  0.2967
 5762TIP3    H138777   3.157   0.629  12.053 -0.1116 -0.8552 -0.7700
 5762TIP3    H238778   3.190   0.666  11.910 -2.3613 -0.7700 -1.2990
 5763TIP3   OH238779   4.072   6.469  15.527  0.2069 -0.2734 -0.3804
 5763TIP3    H138780   4.141   6.458  15.461  0.1835 -0.2031 -0.4164
 5763TIP3    H238781   4.052   6.380  15.556  1.3291 -0.1987  0.6802
 5764TIP3   OH238782   2.554   3.187   4.400  0.0239 -0.0914  0.1779
 5764TIP3    H138783   2.512   3.255   4.346  0.1795 -2.4096 -3.1924
 5764TIP3    H238784   2.645   3.185   4.370  0.2449 -1.1792  0.8490
 5765TIP3   OH238785   4.723   6.792  14.645  0.1623 -0.4679 -0.0091
 5765TIP3    H138786   4.813   6.817  14.621 -0.0202  0.8531  0.6071
 5765TIP3    H238787   4.680   6.775  14.561  0.1151  2.0702 -0.5865
 5766TIP3   OH238788   5.415   1.442  16.172 -0.0999 -0.3433  0.2134
 5766TIP3    H138789   5.431   1.395  16.090  1.1426  1.1300 -0.4411
 5766TIP3    H238790   5.375   1.524  16.144 -0.9946 -0.4138  1.2235
 5767TIP3   OH238791   0.309   4.603  16.160  0.2398  0.7427 -0.2159
 5767TIP3    H138792   0.389   4.633  16.115  1.7564 -1.0313  1.1252
 5767TIP3    H238793   0.304   4.510  16.138 -0.8655  0.6038  0.6042
 5768TIP3   OH238794   1.798   4.928  12.263 -0.2506 -0.0470 -0.4977
 5768TIP3    H138795   1.788   4.832  12.263  1.2592 -0.2579  1.6194
 5768TIP3    H238796   1.889   4.943  12.285 -0.6295  1.9212 -0.0689
 5769TIP3   OH238797   5.641   3.437   4.799 -0.1265 -0.4674 -0.0690
 5769TIP3    H138798   5.712   3.457   4.861 -0.2887  0.3779 -0.1388
 5769TIP3    H238799   5.583   3.514   4.804  0.4357  0.1513 -2.0918
 5770TIP3   OH238800   6.061   4.527  14.962  0.0650 -0.4470  0.4365
 5770TIP3    H138801   6.033   4.577  14.886  0.6411  0.9491  1.1030
 5770TIP3    H238802   6.153   4.506  14.945 -0.1844 -1.3156  0.1439
 5771TIP3   OH238803   5.366   2.382   3.597 -0.5903  0.1131  0.5362
 5771TIP3    H138804   5.319   2.462   3.575  0.9381  0.8860 -0.0359
 5771TIP3    H238805   5.333   2.358   3.684 -0.8085  1.5808  0.8845
 5772TIP3   OH238806   6.277   3.436  12.836  0.1999 -0.8975 -0.0084
 5772TIP3    H138807   6.268   3.519  12.790  1.3398 -0.6835  0.1305
 5772TIP3    H238808   6.194   3.427  12.884 -0.6536 -0.7226 -1.4069
 5773TIP3   OH238809   4.780   3.990   3.466  0.5354 -0.2844 -0.1878
 5773TIP3    H138810   4.824   3.967   3.384 -0.8162 -0.6435 -0.8402
 5773TIP3    H238811   4.780   3.909   3.516  3.1797  0.4093  1.0986
 5774TIP3   OH238812   1.176   2.140   4.807  0.6382  0.0354  0.2899
 5774TIP3    H138813   1.183   2.159   4.713 -1.2862  1.7181  0.4093
 5774TIP3    H238814   1.243   2.195   4.847 -0.9452  2.2275  0.1227
 5775TIP3   OH238815   1.636   3.723   3.911  0.5172  0.2577 -0.2301
 5775TIP3    H138816   1.650   3.642   3.861  1.5850 -0.0229  0.4758
 5775TIP3    H238817   1.721   3.740   3.952  0.1886  1.5267 -0.0482
 5776TIP3   OH238818   3.064   4.729   4.787  0.0731 -0.2026  0.4142
 5776TIP3    H138819   3.136   4.761   4.842  1.0608 -2.0463  0.2742
 5776TIP3    H238820   3.106   4.703   4.705 -0.9684 -0.0524 -0.1854
 5777TIP3   OH238821   6.299   0.832  15.525 -0.0330  0.0122 -0.1982
 5777TIP3    H138822   6.283   0.738  15.533  1.4077 -0.1090  2.9373
 5777TIP3    H238823   6.231   0.872  15.580  0.9077  0.5782  0.5837
 5778TIP3   OH238824   5.957   4.668  11.169  0.5941  0.2328 -0.4654
 5778TIP3    H138825   5.907   4.738  11.211 -0.1497 -0.8135  0.4544
 5778TIP3    H238826   6.040   4.710  11.144  0.6652  1.1688  1.1614
 5779TIP3   OH238827   0.135   0.688  11.790 -0.5507  0.6175  0.3146
 5779TIP3    H138828   0.065   0.643  11.743 -2.2203  2.7604  0.5782
 5779TIP3    H238829   0.214   0.636  11.772 -2.3827 -2.7614  1.1725
 5780TIP3   OH238830   0.767   6.520  13.384 -0.5483  0.2791  0.1243
 5780TIP3    H138831   0.817   6.489  13.308 -2.3718 -0.7791 -0.7234
 5780TIP3    H238832   0.754   6.441  13.437 -0.9320  0.6157  0.5368
 5781TIP3   OH238833   4.350   5.093   2.061  0.2616  0.2254  0.6241
 5781TIP3    H138834   4.327   5.183   2.038  2.6035  0.2971 -1.9921
 5781TIP3    H238835   4.311   5.040   1.991  0.2328 -0.6458  1.2779
 5782TIP3   OH238836   0.348   5.207   1.505 -0.0389  0.4801  0.6615
 5782TIP3    H138837   0.390   5.290   1.525 -0.2113  0.6088  0.5011
 5782TIP3    H238838   0.417   5.141   1.515  1.7301  1.0805 -4.3465
 5783TIP3   OH238839   4.584   4.455   0.185 -0.2023  0.8270 -0.2623
 5783TIP3    H138840   4.575   4.436   0.278 -0.2647 -0.3381 -0.4901
 5783TIP3    H238841   4.670   4.498   0.178 -0.2215  0.9725  0.3326
 5784TIP3   OH238842   6.188   6.186   0.387  0.6216  0.6080 -0.1853
 5784TIP3    H138843   6.097   6.168   0.410  1.0351 -2.5336 -0.6703
 5784TIP3    H238844   6.238   6.158   0.463  1.4079 -1.7191 -1.4879
 5785TIP3   OH238845   2.067   4.407  12.701 -0.5457 -0.0373 -0.2821
 5785TIP3    H138846   2.047   4.319  12.668  3.3211 -0.8854 -0.8954
 5785TIP3    H238847   2.069   4.397  12.796 -0.2626 -0.6373 -0.3409
 5786TIP3   OH238848   1.210   6.620   4.376 -0.1269  0.0516 -0.2220
 5786TIP3    H138849   1.195   6.700   4.427  0.0177  0.5344 -0.9335
 5786TIP3    H238850   1.290   6.637   4.327 -0.2769 -0.4065 -0.6301
 5787TIP3   OH238851   4.665   4.321  15.661 -0.2220  0.2367  0.1588
 5787TIP3    H138852   4.746   4.291  15.702 -0.3861  1.6806  1.6408
 5787TIP3    H238853   4.628   4.243  15.620  1.3097 -0.6937  0.4796
 5788TIP3   OH238854   0.294   2.566  13.099  0.3940 -0.2542 -0.2155
 5788TIP3    H138855   0.288   2.649  13.051 -1.0014  1.2974  2.4163
 5788TIP3    H238856   0.256   2.501  13.039 -0.0995  1.3190 -1.6872
 5789TIP3   OH238857   6.731   4.675  11.309 -0.2094 -0.1037 -0.3945
 5789TIP3    H138858   6.783   4.681  11.229 -0.2152  0.3653 -0.3611
 5789TIP3    H238859   6.790   4.634  11.373  0.4064  1.1940 -0.1142
 5790TIP3   OH238860   2.327   0.759   2.371 -0.9376  0.3428 -0.2558
 5790TIP3    H138861   2.262   0.768   2.441 -0.9400  1.1085 -0.3475
 5790TIP3    H238862   2.295   0.686   2.318 -1.2052  0.0840  0.2513
 5791TIP3   OH238863   1.083   2.011  16.202 -0.2393 -0.4645 -0.3743
 5791TIP3    H138864   1.101   2.018  16.296  0.2242 -0.7507 -0.4406
 5791TIP3    H238865   1.010   2.072  16.188 -0.2789 -0.3798  0.1614
 5792TIP3   OH238866   3.286   6.507  13.608  0.2421  0.8084  0.3507
 5792TIP3    H138867   3.206   6.505  13.555  1.4709 -1.1346 -1.6169
 5792TIP3    H238868   3.304   6.415  13.627  2.9348  0.9986 -0.8383
 5793TIP3   OH238869   0.234   2.087  14.640 -0.1956 -0.4189  0.6888
 5793TIP3    H138870   0.317   2.069  14.685  0.2672  1.3037  0.5924
 5793TIP3    H238871   0.179   2.126  14.708 -1.2986 -2.3645  0.9907
 5794TIP3   OH238872   6.479   2.460  11.877  0.1109 -0.2481  0.0628
 5794TIP3    H138873   6.436   2.442  11.793  0.7107  0.4750 -0.4036
 5794TIP3    H238874   6.433   2.536  11.912  0.3843 -0.0629  0.0177
 5795TIP3   OH238875   0.017   0.377   4.042 -0.5042 -0.0168  0.1613
 5795TIP3    H138876   0.014   0.290   4.004 -3.9717 -0.6496  1.5033
 5795TIP3    H238877  -0.038   0.430   3.985 -1.4318  0.3268  1.3348
 5796TIP3   OH238878   3.995   2.207  14.633 -0.0193  0.5269  0.1806
 5796TIP3    H138879   4.001   2.276  14.699  1.8664  1.1604 -0.5790
 5796TIP3    H238880   4.071   2.221  14.576 -0.2423 -1.4615 -0.7071
 5797TIP3   OH238881   3.928   0.579  15.538 -0.2293 -0.2559 -0.4612
 5797TIP3    H138882   4.009   0.590  15.488 -0.1032  0.4696 -0.1093
 5797TIP3    H238883   3.883   0.663  15.530 -1.0232 -0.6955 -0.7694
 5798TIP3   OH238884   2.918   4.404  16.028 -0.4771  0.0770 -0.1822
 5798TIP3    H138885   3.001   4.450  16.032 -1.0735  1.3065 -1.2034
 5798TIP3    H238886   2.882   4.411  16.116 -0.5051  1.5126 -0.2871
 5799TIP3   OH238887   3.714   0.657  14.174  0.3227 -0.1842  0.0934
 5799TIP3    H138888   3.689   0.669  14.082  0.1262 -0.6891  0.0816
 5799TIP3    H238889   3.672   0.576  14.200  0.3237 -0.0070  0.6529
 5800TIP3   OH238890   1.878   4.530  11.683  0.4246  0.1875  0.3631
 5800TIP3    H138891   1.886   4.604  11.743  1.9110  1.4256 -1.2639
 5800TIP3    H238892   1.787   4.533  11.653  0.0861  0.4600  1.3752
 5801TIP3   OH238893   2.845   4.807   5.591 -0.5016 -0.1943  0.5200
 5801TIP3    H138894   2.866   4.754   5.514  0.3416 -0.1400  0.7005
 5801TIP3    H238895   2.926   4.808   5.642 -0.5720  1.0286  0.6505
 5802TIP3   OH238896   2.653   6.511   3.824 -0.0427 -0.4038  0.2411
 5802TIP3    H138897   2.668   6.526   3.917  1.1411 -1.9323  0.3356
 5802TIP3    H238898   2.740   6.517   3.785 -0.5592  0.4808 -0.8296
 5803TIP3   OH238899   0.816   1.167   5.912  0.4518  0.2806 -0.2552
 5803TIP3    H138900   0.892   1.167   5.970 -0.8247 -1.7508  1.5837
 5803TIP3    H238901   0.788   1.259   5.909  2.2475  0.8729 -0.0325
 5804TIP3   OH238902   4.800   2.365  16.065  0.0213 -0.1015 -0.1059
 5804TIP3    H138903   4.761   2.443  16.104 -2.0052 -0.6673 -0.8915
 5804TIP3    H238904   4.832   2.395  15.979 -2.4799 -0.4406 -1.2543
 5805TIP3   OH238905   0.738   1.935  13.957  0.0582 -0.4285 -0.2182
 5805TIP3    H138906   0.821   1.936  13.910  0.6729  2.0319  0.7539
 5805TIP3    H238907   0.682   1.995  13.907 -0.9051 -1.4891 -0.4471
 5806TIP3   OH238908   0.730   1.768  15.814 -0.7264  0.3282 -0.3732
 5806TIP3    H138909   0.750   1.857  15.844 -0.7459 -0.3344  1.8239
 5806TIP3    H238910   0.807   1.717  15.840 -1.4997 -0.6256  0.0871
 5807TIP3   OH238911   0.805   1.179   2.156 -0.1971 -0.3239 -0.6937
 5807TIP3    H138912   0.799   1.085   2.171  0.3803 -0.3320 -0.5072
 5807TIP3    H238913   0.847   1.187   2.070 -0.5161 -0.2371 -0.8441
 5808TIP3   OH238914   4.692   4.504  10.694 -0.0931 -0.1653  0.1629
 5808TIP3    H138915   4.649   4.589  10.706 -0.0173 -0.2352  0.9789
 5808TIP3    H238916   4.681   4.485  10.601  0.1528  0.8844 -0.1001
 5809TIP3   OH238917   3.679   5.527   5.201  0.4499 -0.5490 -0.3386
 5809TIP3    H138918   3.596   5.519   5.153 -0.4908 -1.6888  1.3575
 5809TIP3    H238919   3.653   5.526   5.293  2.3283 -0.3387  0.2321
 5810TIP3   OH238920   6.554   1.870   2.448  0.6434  0.5383 -0.2529
 5810TIP3    H138921   6.463   1.896   2.434  0.5690  0.4858  0.1189
 5810TIP3    H238922   6.555   1.834   2.537  1.1811  1.2181  0.0244
 5811TIP3   OH238923   0.432   1.371  12.247 -0.0988  0.2741 -0.2934
 5811TIP3    H138924   0.372   1.314  12.294 -0.0558 -0.3941 -1.0386
 5811TIP3    H238925   0.376   1.425  12.192 -0.0035 -0.8653 -1.5561
 5812TIP3   OH238926   1.746   5.731  14.889  0.2235  0.4529 -0.0950
 5812TIP3    H138927   1.741   5.697  14.978  2.1388 -0.5491 -0.3066
 5812TIP3    H238928   1.831   5.773  14.884 -1.0328  3.1087 -0.6498
 5813TIP3   OH238929   1.383   1.145  12.167  0.1469  0.1542 -0.1276
 5813TIP3    H138930   1.420   1.112  12.249 -0.6853 -2.7416 -0.8207
 5813TIP3    H238931   1.459   1.159  12.111  0.5453 -2.9543 -0.5523
 5814TIP3   OH238932   3.811   0.718  16.098  0.2364  0.5324 -0.1355
 5814TIP3    H138933   3.766   0.642  16.061  0.6474  0.7625 -1.1265
 5814TIP3    H238934   3.741   0.783  16.111 -0.0984  0.0223  0.6282
 5815TIP3   OH238935   5.953   1.900   6.654 -0.0400 -0.4122  0.2812
 5815TIP3    H138936   5.953   1.995   6.658 -0.9992 -0.4240  1.3084
 5815TIP3    H238937   5.871   1.875   6.697  0.3035 -1.7038  0.2241
 5816TIP3   OH238938   0.360   4.469  12.128 -0.6399  0.3566 -0.2072
 5816TIP3    H138939   0.282   4.465  12.072 -0.7808  1.5609 -0.1279
 5816TIP3    H238940   0.389   4.561  12.123 -0.5941  0.4850  1.5890
 5817TIP3   OH238941   3.049   4.518  14.387  0.4958  0.0612  0.5829
 5817TIP3    H138942   3.050   4.612  14.368 -1.2327  0.4605  2.1396
 5817TIP3    H238943   3.140   4.495  14.406  1.0077  1.3054 -0.2685
 5818TIP3   OH238944   0.111   1.622   3.832 -0.0752 -0.6228 -0.2110
 5818TIP3    H138945   0.148   1.647   3.748  1.1435  0.6854  0.6761
 5818TIP3    H238946   0.066   1.539   3.815  0.2914 -0.4627 -2.0957
 5819TIP3   OH238947   2.184   5.084  17.013 -0.3688 -0.1076  0.1475
 5819TIP3    H138948   2.261   5.131  17.045 -0.0012 -0.3768 -0.3537
 5819TIP3    H238949   2.213   5.037  16.935 -0.8144 -0.9290  0.4607
 5820TIP3   OH238950   5.221   5.393   1.154  0.3952 -0.7146 -0.0845
 5820TIP3    H138951   5.210   5.406   1.060  0.8439 -1.3483 -0.2304
 5820TIP3    H238952   5.154   5.329   1.177 -1.5833  1.4740  0.5669
 5821TIP3   OH238953   0.049   6.696   4.936 -0.2998  0.4335 -0.0962
 5821TIP3    H138954   0.112   6.624   4.938 -0.1256  0.5947  0.5381
 5821TIP3    H238955  -0.003   6.685   5.015 -1.3770  0.0468 -0.8379
 5822TIP3   OH238956   4.390   3.343  14.604 -0.3945 -0.1221 -0.6899
 5822TIP3    H138957   4.368   3.389  14.523 -2.0979 -0.7641 -0.6396
 5822TIP3    H238958   4.456   3.398  14.646 -1.9950  2.0594 -0.8561
 5823TIP3   OH238959   0.272   0.491   0.087  0.1209 -0.4754  0.2826
 5823TIP3    H138960   0.245   0.542   0.163  0.3708  0.3663 -0.1786
 5823TIP3    H238961   0.232   0.405   0.100 -1.4096  0.2252  0.4279
 5824TIP3   OH238962   5.463   6.275   0.896  1.0254 -0.2615  0.1323
 5824TIP3    H138963   5.401   6.323   0.840  1.4811  0.3235  0.1174
 5824TIP3    H238964   5.539   6.261   0.840  0.9192 -0.9624  0.1562
 5825TIP3   OH238965   0.859   6.244   1.955 -0.0903  0.6066 -0.5947
 5825TIP3    H138966   0.880   6.320   1.900 -1.4135  1.8096  0.5028
 5825TIP3    H238967   0.847   6.172   1.892  0.0143  1.5716 -1.7555
 5826TIP3   OH238968   5.528   5.586  15.407 -0.1120 -0.1493  0.4769
 5826TIP3    H138969   5.536   5.658  15.345 -1.0020 -0.8961 -0.5354
 5826TIP3    H238970   5.613   5.583  15.452 -0.0874  1.5507  0.5963
 5827TIP3   OH238971   1.241   0.598   1.349  0.1687 -0.4406 -0.0221
 5827TIP3    H138972   1.173   0.660   1.375  1.9498  1.0207  1.4037
 5827TIP3    H238973   1.214   0.515   1.387  0.3888  0.6606  2.7612
 5828TIP3   OH238974   1.755   2.329   4.132  0.3225  0.0551 -0.3246
 5828TIP3    H138975   1.802   2.397   4.084 -0.8524  0.1121 -1.4469
 5828TIP3    H238976   1.708   2.279   4.065 -0.1231 -0.8545  0.6221
 5829TIP3   OH238977   4.113   1.261   1.726 -0.0374 -0.3275  0.4681
 5829TIP3    H138978   4.103   1.254   1.821 -0.2473  0.5764  0.5182
 5829TIP3    H238979   4.201   1.296   1.713  0.2865 -1.1820  0.2914
 5830TIP3   OH238980   3.056   1.249   2.200 -0.4120  0.2225 -0.1903
 5830TIP3    H138981   2.981   1.196   2.227  0.6859 -1.4048 -0.1833
 5830TIP3    H238982   3.093   1.201   2.126 -0.9630  2.4468 -2.0166
 5831TIP3   OH238983   4.621   6.602   1.155 -0.0672  0.3019 -0.0525
 5831TIP3    H138984   4.703   6.641   1.124  0.8370 -0.0991  1.7088
 5831TIP3    H238985   4.631   6.596   1.250 -2.6438  1.3789  0.4004
 5832TIP3   OH238986   1.783   5.353  10.950 -0.1119 -0.1265  0.5248
 5832TIP3    H138987   1.825   5.268  10.966 -1.0652 -1.0158 -1.3865
 5832TIP3    H238988   1.848   5.403  10.901 -0.1346 -0.3490  0.2659
 5833TIP3   OH238989   4.207   4.266  14.483 -0.0880 -0.4099 -0.2176
 5833TIP3    H138990   4.144   4.318  14.532 -0.7035  0.0801 -1.4720
 5833TIP3    H238991   4.291   4.309  14.497 -0.6045  1.0299 -1.3124
 5834TIP3   OH238992   6.662   5.729   0.429 -0.0307 -0.4024  0.1840
 5834TIP3    H138993   6.709   5.647   0.414 -1.0851 -1.3231  1.7171
 5834TIP3    H238994   6.703   5.766   0.508 -0.6144 -0.2485  0.4186
 5835TIP3   OH238995   6.094   1.879  17.154 -0.1683  0.5279 -0.3998
 5835TIP3    H138996   6.112   1.941  17.225 -0.3218 -1.5143  1.5154
 5835TIP3    H238997   6.047   1.807  17.196 -2.7799  0.4318 -3.0945
 5836TIP3   OH238998   0.415   4.308   5.297 -0.0859 -0.1476  0.4157
 5836TIP3    H138999   0.352   4.347   5.236 -0.0508  0.6699  0.8918
 5836TIP3    H239000   0.500   4.338   5.266  0.0567 -0.9690 -0.0208
 5837TIP3   OH239001   1.521   4.360   0.942 -0.9473  0.0468  0.7529
 5837TIP3    H139002   1.482   4.445   0.959  0.6328  0.8314  0.6862
 5837TIP3    H239003   1.559   4.367   0.854  1.4616  0.2462  1.7170
 5838TIP3   OH239004   2.878   4.322  11.559 -0.1658  0.3898  0.3497
 5838TIP3    H139005   2.854   4.235  11.590 -0.0650 -0.1945 -1.1365
 5838TIP3    H239006   2.963   4.311  11.518  0.4769  1.4854  1.3341
 5839TIP3   OH239007   4.754   6.318  16.175 -0.6556 -0.4644  0.1487
 5839TIP3    H139008   4.818   6.379  16.212  1.4976 -2.1706 -0.5193
 5839TIP3    H239009   4.709   6.368  16.107 -0.4176  0.9483  0.9930
 5840TIP3   OH239010   5.922   1.883  15.896  0.0230  0.0044  0.0546
 5840TIP3    H139011   5.938   1.856  15.986  1.1069  1.8587  0.4800
 5840TIP3    H239012   5.856   1.952  15.903 -0.7615 -0.6382 -0.7166
 5841TIP3   OH239013   3.442   6.173  15.012  0.4582 -0.2612  0.2934
 5841TIP3    H139014   3.355   6.150  14.979  1.6572 -2.7020 -1.4273
 5841TIP3    H239015   3.500   6.164  14.937  2.1810  1.9406  1.2287
 5842TIP3   OH239016   0.617   6.486  11.047  0.1725 -0.0221  0.1825
 5842TIP3    H139017   0.551   6.488  10.978  0.4802 -2.2243 -0.2248
 5842TIP3    H239018   0.616   6.575  11.083 -0.5562  0.9817 -2.0971
 5843TIP3   OH239019   0.471   6.290  12.972  0.1888 -0.2239  0.1813
 5843TIP3    H139020   0.564   6.271  12.982  0.3995  1.1866  1.0427
 5843TIP3    H239021   0.452   6.268  12.880  1.4380 -0.1755 -0.1017
 5844TIP3   OH239022   3.421   2.894  14.923  0.0162 -0.5090  1.0183
 5844TIP3    H139023   3.396   2.898  15.016  0.4824 -1.1169  1.1765
 5844TIP3    H239024   3.504   2.846  14.923 -0.1303 -0.7703  0.2551
 5845TIP3   OH239025   6.805   0.174   4.294 -0.0139  0.0174 -0.6206
 5845TIP3    H139026   6.850   0.257   4.281  0.3057 -0.1268 -0.4443
 5845TIP3    H239027   6.827   0.122   4.217  0.5991 -0.2648 -0.2594
 5846TIP3   OH239028   1.581   1.734  12.740  0.9630  0.6959  0.3489
 5846TIP3    H139029   1.669   1.760  12.766  1.3465  1.3318 -1.4550
 5846TIP3    H239030   1.584   1.729  12.644 -0.2449 -1.9256  0.3733
 5847TIP3   OH239031   5.647   4.947   0.633  0.0088 -0.1534 -0.3373
 5847TIP3    H139032   5.677   4.865   0.593 -0.5874 -0.1487 -0.7924
 5847TIP3    H239033   5.631   4.924   0.725 -3.2069 -1.3833 -1.0900
 5848TIP3   OH239034   4.026   3.459   3.337  0.0121  0.2544 -0.1056
 5848TIP3    H139035   3.966   3.404   3.388 -0.4459 -0.0898 -0.9888
 5848TIP3    H239036   4.026   3.419   3.250  1.0290  0.6409 -0.2909
 5849TIP3   OH239037   0.834   3.682   4.496 -0.0229  0.5686 -0.2619
 5849TIP3    H139038   0.841   3.709   4.587  0.3332 -0.2897 -0.0284
 5849TIP3    H239039   0.924   3.670   4.467 -0.1658 -0.3935 -0.3437
 5850TIP3   OH239040   5.266   6.594  13.910 -0.5573 -0.3715 -0.3680
 5850TIP3    H139041   5.253   6.511  13.864  0.6341  0.0294 -1.5087
 5850TIP3    H239042   5.224   6.581  13.995 -1.6484 -1.6287 -1.0510
 5851TIP3   OH239043   2.785   2.168   5.355  0.5986 -0.0244 -0.1207
 5851TIP3    H139044   2.711   2.173   5.416  1.3832 -1.2523  0.9881
 5851TIP3    H239045   2.821   2.256   5.355 -0.3128  0.3608  0.0461
 5852TIP3   OH239046   6.717   0.955   4.916 -0.1600  0.0370 -0.4285
 5852TIP3    H139047   6.757   1.035   4.951  0.9348 -0.5924 -0.1817
 5852TIP3    H239048   6.767   0.936   4.836 -0.6401 -0.2072 -0.6739
 5853TIP3   OH239049   0.009   5.439  16.309 -0.3924  0.5711  0.1322
 5853TIP3    H139050  -0.017   5.525  16.276  0.5284  1.4134  1.4963
 5853TIP3    H239051   0.072   5.407  16.245 -0.1611  1.2564  0.0077
 5854TIP3   OH239052   5.801   5.846  14.758 -0.1520 -0.0908 -0.0436
 5854TIP3    H139053   5.825   5.835  14.666 -1.7404  1.0869 -0.6355
 5854TIP3    H239054   5.756   5.764  14.780 -1.4261  0.3649 -0.8877
 5855TIP3   OH239055   3.939   4.569   5.169  0.0146 -0.2664  0.6978
 5855TIP3    H139056   3.982   4.499   5.219 -0.0293 -0.7375  0.0881
 5855TIP3    H239057   4.011   4.625   5.141  0.6135 -2.2266 -2.1933
 5856TIP3   OH239058   2.980   3.712  16.325 -0.2764 -0.1279  0.0412
 5856TIP3    H139059   2.982   3.723  16.230 -1.5674  1.6939  0.1705
 5856TIP3    H239060   3.047   3.772  16.357  0.0533 -0.6283  0.2997
 5857TIP3   OH239061   6.431   4.651   6.546 -0.3101 -0.2521  0.1049
 5857TIP3    H139062   6.493   4.618   6.612 -0.9435 -1.6800  0.0054
 5857TIP3    H239063   6.387   4.725   6.590  1.3909  0.7741  0.1936
 5858TIP3   OH239064   2.960   3.956  12.882 -0.1621  0.1563 -0.0844
 5858TIP3    H139065   3.032   3.996  12.930 -0.5783  0.6060  0.1716
 5858TIP3    H239066   2.966   3.993  12.794  0.3129 -0.3076 -0.2523
 5859TIP3   OH239067   4.548   1.508   2.075 -0.5396  0.4760 -0.2685
 5859TIP3    H139068   4.575   1.553   2.155 -0.7089  0.4833 -0.2137
 5859TIP3    H239069   4.457   1.482   2.092 -0.0541 -1.0128  0.2117
 5860TIP3   OH239070   5.333   2.553   0.657 -0.1131 -0.2630  0.1942
 5860TIP3    H139071   5.316   2.463   0.631 -2.4518 -0.0623  0.8079
 5860TIP3    H239072   5.341   2.550   0.753  1.3721 -0.0164  0.0986
 5861TIP3   OH239073   2.953   5.941  13.846  0.3892 -0.3720 -0.2836
 5861TIP3    H139074   2.863   5.919  13.870  0.5781  1.7346  3.0878
 5861TIP3    H239075   2.997   5.954  13.930  2.9995  1.7994 -1.8237
 5862TIP3   OH239076   4.641   6.586   5.829 -0.4194  0.2530  0.0503
 5862TIP3    H139077   4.612   6.555   5.914 -0.9925 -1.9427 -0.8824
 5862TIP3    H239078   4.563   6.622   5.788 -0.3339  0.4999  0.0997
 5863TIP3   OH239079   5.291   2.098   0.836  0.0782  0.5601  0.0640
 5863TIP3    H139080   5.284   2.113   0.930 -1.8380  0.4536 -0.0300
 5863TIP3    H239081   5.362   2.035   0.827  1.1828  1.5694  1.3068
 5864TIP3   OH239082   3.170   3.847  14.699 -0.1165 -0.2893  0.3134
 5864TIP3    H139083   3.162   3.855  14.794  0.5328 -2.4071  0.6062
 5864TIP3    H239084   3.098   3.900  14.664 -1.0283 -0.3396  2.0156
 5865TIP3   OH239085   2.871   4.637  11.291 -0.1068 -0.2041 -0.1142
 5865TIP3    H139086   2.894   4.586  11.213  0.6377 -0.4667  0.2682
 5865TIP3    H239087   2.955   4.655  11.333 -0.4861  0.1196  0.5123
 5866TIP3   OH239088   0.306   2.806   1.566  0.0065 -0.5443 -0.1787
 5866TIP3    H139089   0.285   2.822   1.658 -0.9565 -0.1335 -0.4573
 5866TIP3    H239090   0.357   2.725   1.567  1.2424  0.2152  0.8393
 5867TIP3   OH239091   3.570   2.326  16.572  0.1984  0.2702  0.2426
 5867TIP3    H139092   3.642   2.390  16.575 -0.0037  0.4934  0.3303
 5867TIP3    H239093   3.610   2.244  16.604  0.2361  0.5635  0.9573
 5868TIP3   OH239094   6.078   3.538   2.993  0.0922 -0.0417  0.0645
 5868TIP3    H139095   6.003   3.589   2.962 -0.7302 -0.8765  0.6209
 5868TIP3    H239096   6.091   3.566   3.083  1.2433  0.9731 -0.3895
 5869TIP3   OH239097   3.238   2.938  15.164 -0.1106  0.2916 -0.5418
 5869TIP3    H139098   3.180   2.863  15.153 -0.3424  0.5793 -1.3583
 5869TIP3    H239099   3.246   2.949  15.258 -2.2503  0.8998 -0.3748
 5870TIP3   OH239100   3.367   2.859  16.831  0.4658  0.4368 -0.5432
 5870TIP3    H139101   3.300   2.831  16.769 -0.3541  0.4128  0.3182
 5870TIP3    H239102   3.317   2.889  16.907  1.4456 -0.3168  0.4247
 5871TIP3   OH239103   0.720   3.322   1.146 -0.2397  0.2470 -0.1981
 5871TIP3    H139104   0.806   3.282   1.149  1.3849  3.2022 -2.1416
 5871TIP3    H239105   0.726   3.397   1.205 -2.1652 -0.5080  1.0532
 5872TIP3   OH239106   5.425   6.497  16.802 -0.3354  0.1726  0.1590
 5872TIP3    H139107   5.439   6.402  16.807 -1.2967 -0.0114 -0.4155
 5872TIP3    H239108   5.422   6.525  16.893 -0.9651 -0.5037  0.3595
 5873TIP3   OH239109   5.300   5.926   5.563  0.1448 -0.1026 -0.4021
 5873TIP3    H139110   5.310   5.850   5.621  3.9251  0.7550  0.3118
 5873TIP3    H239111   5.249   5.893   5.489 -1.3608 -2.3280  1.4624
 5874TIP3   OH239112   0.595   2.928  11.932  0.0655  0.3212 -0.3423
 5874TIP3    H139113   0.526   2.864  11.916 -0.1805  0.6559 -0.6510
 5874TIP3    H239114   0.616   2.963  11.846 -0.3181  1.1804 -0.0987
 5875TIP3   OH239115   0.280   0.745   2.298  0.2639  0.1491 -0.3500
 5875TIP3    H139116   0.257   0.791   2.378 -0.8853  0.2405 -0.7152
 5875TIP3    H239117   0.299   0.815   2.235 -1.0178  0.1296 -0.7721
 5876TIP3   OH239118   2.928   3.605  13.969 -0.1210 -0.2197 -0.2416
 5876TIP3    H139119   2.842   3.588  13.932 -0.7687 -2.0214  1.8921
 5876TIP3    H239120   2.916   3.684  14.021 -0.3258 -0.1237 -0.4331
 5877TIP3   OH239121   6.383   3.402   5.677 -0.0751  0.0928  0.0303
 5877TIP3    H139122   6.437   3.323   5.687  0.4345  0.6350  2.0309
 5877TIP3    H239123   6.318   3.395   5.747 -0.5847  1.0347 -0.3354
 5878TIP3   OH239124   6.106   2.631   5.044  0.6938 -0.2022  0.7196
 5878TIP3    H139125   6.041   2.595   4.984  0.4110 -0.4120  1.1447
 5878TIP3    H239126   6.130   2.558   5.101  1.5119 -0.1998  0.3995
 5879TIP3   OH239127   4.768   1.352   1.737  0.0265 -0.3040  0.1695
 5879TIP3    H139128   4.841   1.327   1.793  1.2158 -0.4002 -1.3718
 5879TIP3    H239129   4.690   1.332   1.789  1.0756 -0.1196  1.8785
 5880TIP3   OH239130   2.618   1.898   2.485  0.2281  0.2078 -0.2159
 5880TIP3    H139131   2.605   1.942   2.570 -1.9637 -2.0694  0.7522
 5880TIP3    H239132   2.708   1.868   2.487  0.5521  1.1749  0.8153
 5881TIP3   OH239133   3.381   0.322   5.821 -0.3623  0.3323  0.1506
 5881TIP3    H139134   3.470   0.306   5.792  0.0640  3.7283 -0.8517
 5881TIP3    H239135   3.381   0.297   5.914  1.4620 -0.2447  0.0218
 5882TIP3   OH239136   3.779   1.648   5.966  0.4368  0.3719 -0.2937
 5882TIP3    H139137   3.684   1.657   5.969 -0.0012 -1.7975 -3.2552
 5882TIP3    H239138   3.800   1.592   6.041 -0.2594  2.4048  1.5301
 5883TIP3   OH239139   5.827   2.895  16.869 -0.0516 -0.0052  0.2249
 5883TIP3    H139140   5.825   2.942  16.786  0.9476  0.5309  0.4988
 5883TIP3    H239141   5.918   2.897  16.896  0.2190 -2.7914 -0.1268
 5884TIP3   OH239142   2.380   5.368   0.954  0.4293  0.0054  0.2256
 5884TIP3    H139143   2.373   5.289   1.007  1.6483 -0.6238 -0.4941
 5884TIP3    H239144   2.303   5.420   0.977  0.2593 -0.8289  1.6230
 5885TIP3   OH239145   4.989   6.456  11.215  0.1894  0.3094  0.0390
 5885TIP3    H139146   5.052   6.385  11.203  0.1060  0.3749 -0.7791
 5885TIP3    H239147   4.966   6.484  11.127 -1.8129 -0.4319  0.2723
 5886TIP3   OH239148   5.280   6.061   0.970  0.7195 -0.2955 -0.3950
 5886TIP3    H139149   5.204   6.078   0.913 -0.7728  0.3775  1.6933
 5886TIP3    H239150   5.335   6.139   0.961  0.0191  0.2286 -0.2048
 5887TIP3   OH239151   1.696   1.403  14.275 -0.3084 -0.0373 -0.8815
 5887TIP3    H139152   1.723   1.461  14.345 -1.5156 -0.5785  0.0764
 5887TIP3    H239153   1.755   1.423  14.203  1.2599  0.2144  0.4233
 5888TIP3   OH239154   3.729   2.655   4.965  0.2338 -0.8069  0.5467
 5888TIP3    H139155   3.808   2.638   4.914  0.1647 -0.0014  0.1502
 5888TIP3    H239156   3.658   2.647   4.901  0.0880 -0.5098  0.6707
 5889TIP3   OH239157   2.181   4.547   0.815 -0.0318 -0.5074  0.1490
 5889TIP3    H139158   2.086   4.558   0.808 -0.1359 -1.2494  0.2408
 5889TIP3    H239159   2.210   4.617   0.872 -0.7987 -1.4165  1.7144
 5890TIP3   OH239160   0.471   0.814   5.799 -0.5489 -0.1306  0.2111
 5890TIP3    H139161   0.565   0.819   5.814 -0.5755 -0.1433  0.3827
 5890TIP3    H239162   0.435   0.892   5.841 -0.4897  0.5186 -0.8940
 5891TIP3   OH239163   6.435   3.590  12.195 -0.1993 -0.2050 -0.1477
 5891TIP3    H139164   6.497   3.524  12.164 -0.6097  0.1745 -1.9318
 5891TIP3    H239165   6.355   3.572  12.144 -1.6518 -0.7772  2.1711
 5892TIP3   OH239166   2.957   6.636   1.088 -0.1559  0.1618 -0.3528
 5892TIP3    H139167   3.007   6.665   1.012  0.1850 -0.7595 -0.4900
 5892TIP3    H239168   2.894   6.573   1.054 -0.4415  0.2306  0.0338
 5893TIP3   OH239169   4.254   4.325  12.843  0.3488  0.2255 -0.2426
 5893TIP3    H139170   4.265   4.244  12.892 -2.2531  0.4678  0.9070
 5893TIP3    H239171   4.220   4.298  12.758  2.0938 -0.0055 -0.9066
 5894TIP3   OH239172   6.074   5.773   2.161 -0.2781  0.1901  0.2397
 5894TIP3    H139173   5.991   5.733   2.136 -0.2039 -0.5303  1.1296
 5894TIP3    H239174   6.062   5.866   2.142 -1.0002 -0.0136 -0.3762
 5895TIP3   OH239175   6.077   6.799   3.914 -0.8200 -0.1255  0.1712
 5895TIP3    H139176   6.103   6.867   3.976  3.3495 -0.7055 -0.6082
 5895TIP3    H239177   6.116   6.719   3.949  0.0269 -0.8287 -2.1701
 5896TIP3   OH239178   5.723   4.933   4.036 -0.0420 -0.0501 -0.7103
 5896TIP3    H139179   5.779   4.951   4.112 -0.9126  0.1125 -0.0976
 5896TIP3    H239180   5.704   5.019   3.999 -0.8611 -0.0049 -0.2026
 5897TIP3   OH239181   3.154   3.723  12.954 -0.7469  0.7837  0.1150
 5897TIP3    H139182   3.205   3.739  13.033 -0.1731 -2.3016  0.4812
 5897TIP3    H239183   3.172   3.799  12.899  0.2371  2.1812  2.2152
 5898TIP3   OH239184   0.216   3.376  16.619 -0.6993 -0.0398  0.3804
 5898TIP3    H139185   0.144   3.313  16.613 -0.1851 -0.7481  1.3500
 5898TIP3    H239186   0.287   3.336  16.570 -0.4776 -0.0749  0.7228
 5899TIP3   OH239187   0.633   1.665  14.389 -0.2856  0.3002 -0.3369
 5899TIP3    H139188   0.661   1.694  14.303 -0.0345  2.2787  0.3567
 5899TIP3    H239189   0.644   1.570  14.388  1.6425  0.4961 -1.7789
 5900TIP3   OH239190   0.854   1.640   2.513 -0.1307  0.2267  0.0289
 5900TIP3    H139191   0.933   1.692   2.501 -0.3596  0.2496 -1.5882
 5900TIP3    H239192   0.876   1.553   2.480 -0.1046 -0.4384  1.6786
 5901TIP3   OH239193   6.599   2.090   3.242 -0.3429 -0.3008  0.5140
 5901TIP3    H139194   6.516   2.136   3.228  0.6149  2.7264  3.2007
 5901TIP3    H239195   6.665   2.160   3.243  1.9230 -2.2971  0.7939
 5902TIP3   OH239196   4.817   3.767   1.833 -0.6999  0.2037  0.5933
 5902TIP3    H139197   4.734   3.784   1.877 -1.3582 -0.1747 -0.4624
 5902TIP3    H239198   4.856   3.853   1.821 -1.8178  0.5766 -0.5544
 5903TIP3   OH239199   2.414   3.955  12.852  0.2046 -0.1276 -0.7280
 5903TIP3    H139200   2.396   3.881  12.794 -0.6291 -0.2929 -0.2807
 5903TIP3    H239201   2.506   3.975  12.839 -0.1366  0.3303 -2.6877
 5904TIP3   OH239202   6.497   2.963  11.364 -0.2207 -0.3622  0.0489
 5904TIP3    H139203   6.551   3.035  11.396 -2.5590  1.7275 -0.3686
 5904TIP3    H239204   6.457   2.997  11.283 -0.6529 -2.5244 -0.7199
 5905TIP3   OH239205   4.478   1.914   3.693 -0.0267  0.7029 -0.4772
 5905TIP3    H139206   4.496   1.848   3.760  1.0835  0.2874 -1.1526
 5905TIP3    H239207   4.404   1.878   3.644  0.5289 -0.0394 -0.8023
 5906TIP3   OH239208   5.301   2.722  16.130 -0.6112 -0.6265  0.2785
 5906TIP3    H139209   5.340   2.638  16.108 -1.0477 -0.3962 -1.5130
 5906TIP3    H239210   5.369   2.786  16.109 -0.0311 -0.5020  2.2521
 5907TIP3   OH239211   5.512   3.878   0.777  0.1115  0.3187  0.0503
 5907TIP3    H139212   5.485   3.970   0.773 -0.1189  0.3285  1.2479
 5907TIP3    H239213   5.606   3.880   0.761  0.5217  1.0508  2.2111
 5908TIP3   OH239214   3.090   5.528  16.250  0.6494  0.0511 -0.5671
 5908TIP3    H139215   3.136   5.543  16.333  2.7679 -0.0923 -1.6592
 5908TIP3    H239216   3.062   5.436  16.254  1.4885 -0.1998 -0.3651
 5909TIP3   OH239217   5.393   3.320  13.003  0.3027 -0.2703  0.1764
 5909TIP3    H139218   5.400   3.365  12.919  1.3654 -1.0216 -0.1752
 5909TIP3    H239219   5.354   3.235  12.982  2.4695 -1.3105  0.0464
 5910TIP3   OH239220   0.874   0.229  11.735  0.6178  0.2386 -0.4070
 5910TIP3    H139221   0.823   0.154  11.704  1.0912  0.1666 -1.0279
 5910TIP3    H239222   0.890   0.281  11.656 -1.1717  1.9030  0.2353
 5911TIP3   OH239223   4.527   4.595   0.992  0.0457  0.0061 -0.2682
 5911TIP3    H139224   4.546   4.632   1.078 -0.4068 -0.6900  0.1382
 5911TIP3    H239225   4.479   4.514   1.010 -1.1444  0.4674 -1.2011
 5912TIP3   OH239226   3.977   0.627  14.733  0.0317 -0.2560 -0.3524
 5912TIP3    H139227   4.058   0.657  14.774 -0.6049  0.9101  0.0996
 5912TIP3    H239228   3.911   0.692  14.759 -0.4962  0.3412 -2.8935
 5913TIP3   OH239229   6.563   5.403   1.012  0.0694 -0.7297 -0.4776
 5913TIP3    H139230   6.529   5.473   0.955 -0.1461  0.0285  0.5431
 5913TIP3    H239231   6.500   5.400   1.084  0.1255 -1.9454 -0.4694
 5914TIP3   OH239232   5.161   3.004   3.085  0.0071  0.8090 -1.2027
 5914TIP3    H139233   5.076   2.994   3.041 -1.1298  1.5154  0.6773
 5914TIP3    H239234   5.157   3.092   3.124  1.4868  0.7379 -0.8501
 5915TIP3   OH239235   2.297   0.360   1.106  0.0762  0.4466  0.1068
 5915TIP3    H139236   2.213   0.343   1.149  0.1899  0.4414  0.3289
 5915TIP3    H239237   2.327   0.274   1.078 -0.6746  0.5899 -1.2745
 5916TIP3   OH239238   5.713   2.751  15.082  0.1097  0.5344 -0.8196
 5916TIP3    H139239   5.693   2.839  15.116 -1.1852 -0.0371 -0.0179
 5916TIP3    H239240   5.798   2.730  15.121  0.3973  1.3894 -0.9480
 5917TIP3   OH239241   6.530   3.380  11.569 -0.2378  0.6852  0.5697
 5917TIP3    H139242   6.448   3.392  11.618 -0.1986 -2.3397  1.5782
 5917TIP3    H239243   6.504   3.389  11.477 -1.6402  0.2430  0.8913
 5918TIP3   OH239244   3.578   2.821   1.752  0.3602 -0.9075  0.2954
 5918TIP3    H139245   3.636   2.777   1.814  1.2282  0.9219  0.8333
 5918TIP3    H239246   3.580   2.913   1.778 -0.1773 -0.2739 -1.7205
 5919TIP3   OH239247   1.796   1.239  12.973 -0.6623 -0.0898  0.4546
 5919TIP3    H139248   1.798   1.204  13.062  0.7494  0.4165  0.6376
 5919TIP3    H239249   1.816   1.332  12.982 -1.1490  0.1120 -0.3435
 5920TIP3   OH239250   3.734   3.496  12.240 -0.2711 -0.4895  0.7629
 5920TIP3    H139251   3.665   3.528  12.182 -1.3132 -1.4698  1.4121
 5920TIP3    H239252   3.758   3.573  12.293 -0.0460  0.1413 -0.2234
 5921TIP3   OH239253   3.782   0.697  12.424 -0.2235  0.5882 -0.1720
 5921TIP3    H139254   3.702   0.646  12.436 -0.1231  0.5469  0.3525
 5921TIP3    H239255   3.852   0.638  12.451 -0.0270  0.6829 -0.4683
 5922TIP3   OH239256   3.810   0.548  16.412 -0.1873  0.3912  0.1049
 5922TIP3    H139257   3.899   0.519  16.388 -0.3839  0.5210 -0.8322
 5922TIP3    H239258   3.755   0.471  16.396 -0.1938  0.1696  1.1166
 5923TIP3   OH239259   5.239   5.423   3.934 -0.2637 -0.3416  0.9182
 5923TIP3    H139260   5.213   5.509   3.968 -0.6353  0.0958 -0.4345
 5923TIP3    H239261   5.275   5.441   3.847  0.1275 -1.5070  0.8257
 5924TIP3   OH239262   2.930   2.236  12.870  0.3014  0.2609  0.4345
 5924TIP3    H139263   2.979   2.212  12.792 -0.7264 -0.1707 -0.0916
 5924TIP3    H239264   2.855   2.285  12.838 -0.1236  0.0943  1.1467
 5925TIP3   OH239265   6.280   6.435  11.278  0.0162 -0.4135  0.1680
 5925TIP3    H139266   6.269   6.349  11.318 -1.0751 -0.5081 -0.2940
 5925TIP3    H239267   6.192   6.459  11.250  0.5810  0.1388 -1.1814
 5926TIP3   OH239268   2.648   2.985  14.313 -0.3562  0.5135  0.0074
 5926TIP3    H139269   2.672   3.065  14.360  3.3249  1.2320 -2.6538
 5926TIP3    H239270   2.631   3.014  14.224  0.7516 -1.5750 -0.9515
 5927TIP3   OH239271   0.531   6.645   1.666  0.3545  0.0529  0.2092
 5927TIP3    H139272   0.583   6.612   1.593  0.4225 -0.1254  0.3382
 5927TIP3    H239273   0.448   6.671   1.626  0.1180 -0.7185  0.1810
 5928TIP3   OH239274   1.826   2.864  13.674 -0.0818  0.6823  0.2714
 5928TIP3    H139275   1.768   2.821  13.737  1.4809 -1.5059  0.3619
 5928TIP3    H239276   1.914   2.842  13.705  0.7795  2.4238 -0.8164
 5929TIP3   OH239277   3.044   1.473  16.586 -0.0411  0.1875  0.6248
 5929TIP3    H139278   2.955   1.461  16.620  0.6915 -1.1920  2.2002
 5929TIP3    H239279   3.082   1.541  16.641 -0.0547  0.6675  0.0515
 5930TIP3   OH239280   5.723   1.295   4.288  0.0350 -0.5297  0.4685
 5930TIP3    H139281   5.764   1.369   4.333  0.7866 -0.2222 -0.6851
 5930TIP3    H239282   5.635   1.290   4.325  0.3867  0.1668  1.4348
 5931TIP3   OH239283   3.362   5.570   3.889 -0.0244 -0.4596 -0.3093
 5931TIP3    H139284   3.299   5.613   3.830 -1.3153 -0.7157  0.8402
 5931TIP3    H239285   3.443   5.620   3.878 -0.7081  0.5145 -1.0717
 5932TIP3   OH239286   4.992   4.720  15.707  0.4447  0.4565  0.2475
 5932TIP3    H139287   5.009   4.802  15.661 -0.3201  1.7320  2.1395
 5932TIP3    H239288   4.944   4.666  15.644 -1.8134  2.6610 -0.0655
 5933TIP3   OH239289   0.274   2.368  16.910  0.1598 -0.4376  0.1929
 5933TIP3    H139290   0.353   2.416  16.886 -0.1887 -0.1127 -0.3254
 5933TIP3    H239291   0.256   2.312  16.834 -1.3241  1.0714 -0.6288
 5934TIP3   OH239292   2.911   5.596   3.022 -0.0464  0.2369  0.4164
 5934TIP3    H139293   2.977   5.590   3.091 -0.6554 -0.3074  0.9715
 5934TIP3    H239294   2.859   5.673   3.044  0.4853  0.7552 -0.1065
 5935TIP3   OH239295   1.350   5.793   3.010  0.0365  0.7813  0.0095
 5935TIP3    H139296   1.302   5.725   2.963  1.1076  0.8328 -1.1807
 5935TIP3    H239297   1.310   5.875   2.981  0.4989  0.7964 -0.5929
 5936TIP3   OH239298   1.972   3.489  16.931 -0.2395  0.1654 -0.2321
 5936TIP3    H139299   1.998   3.415  16.985 -0.3198  0.2754 -0.0406
 5936TIP3    H239300   1.876   3.490  16.937 -0.2783 -0.0966 -0.7402
 5937TIP3   OH239301   4.729   6.680   3.760  0.0094 -0.0609  0.1116
 5937TIP3    H139302   4.823   6.690   3.743  0.0668  1.3680  1.1043
 5937TIP3    H239303   4.694   6.645   3.679  1.2369  0.4387 -0.6665
 5938TIP3   OH239304   3.018   2.045  16.823 -0.1514  0.7510 -0.0830
 5938TIP3    H139305   2.955   1.985  16.862  0.5080 -0.0368 -0.2073
 5938TIP3    H239306   3.028   2.013  16.733 -0.5009  1.6245 -0.4468
 5939TIP3   OH239307   3.144   0.317  14.644 -0.0841 -0.4294  0.0722
 5939TIP3    H139308   3.144   0.368  14.564 -2.0645  1.2177  1.0347
 5939TIP3    H239309   3.075   0.252  14.631  0.3895 -0.9210 -0.0010
 5940TIP3   OH239310   2.841   0.410  12.268 -0.3005 -0.4104 -0.3379
 5940TIP3    H139311   2.931   0.389  12.295 -0.1732  0.5257  0.0123
 5940TIP3    H239312   2.787   0.379  12.340 -0.3413 -1.7198 -0.9160
 5941TIP3   OH239313   5.169   5.626  12.163  0.3507 -0.1208 -0.4565
 5941TIP3    H139314   5.123   5.581  12.234 -2.9300  1.5771 -1.3198
 5941TIP3    H239315   5.141   5.580  12.083 -1.3222  1.9452 -1.1451
 5942TIP3   OH239316   6.461   6.634   5.333  0.2638  0.0133  0.3990
 5942TIP3    H139317   6.415   6.700   5.281 -0.4778  0.9006  2.1078
 5942TIP3    H239318   6.392   6.574   5.361  0.4032  0.3517  1.5180
 5943TIP3   OH239319   4.287   1.300  15.451 -0.1589 -0.0217 -0.0626
 5943TIP3    H139320   4.297   1.224  15.508 -0.7023  0.7333  1.0635
 5943TIP3    H239321   4.196   1.296  15.421  0.4576 -1.1248 -1.9585
 5944TIP3   OH239322   4.711   0.380   4.095  0.0276  0.2059 -0.6120
 5944TIP3    H139323   4.645   0.394   4.163  1.8339  0.0616  1.2679
 5944TIP3    H239324   4.703   0.287   4.074  1.1266 -0.4012  1.3519
 5945TIP3   OH239325   6.023   5.897  16.125 -0.1772  0.2295 -0.2364
 5945TIP3    H139326   6.107   5.925  16.161  1.0487 -2.8717 -0.3909
 5945TIP3    H239327   6.045   5.844  16.049 -2.2113 -1.2659  0.1112
 5946TIP3   OH239328   1.067   0.026  16.800  0.2597 -0.3713  0.0056
 5946TIP3    H139329   0.978   0.025  16.766 -0.7318 -0.3154  2.4238
 5946TIP3    H239330   1.122   0.014  16.723 -1.8446 -1.0306 -1.4784
 5947TIP3   OH239331   5.181   6.447   5.917 -0.3742 -0.5103 -0.5980
 5947TIP3    H139332   5.185   6.367   5.969  0.7577 -0.3067 -0.3368
 5947TIP3    H239333   5.109   6.498   5.955 -0.1013 -0.7325  0.2305
 5948TIP3   OH239334   2.915   0.283  13.792  0.2391 -0.2223  0.8491
 5948TIP3    H139335   2.971   0.214  13.759 -1.6591 -0.6084 -1.8937
 5948TIP3    H239336   2.873   0.245  13.870 -1.4655 -2.6449 -1.1027
 5949TIP3   OH239337   2.537   3.986  14.289 -0.1302 -0.6231 -0.3463
 5949TIP3    H139338   2.491   4.061  14.327 -0.3291 -1.2788  0.7590
 5949TIP3    H239339   2.623   4.020  14.265 -0.4078  0.0808 -0.3560
 5950TIP3   OH239340   3.625   4.520  13.648  0.0895  0.0533  0.4802
 5950TIP3    H139341   3.658   4.556  13.566  0.0459  0.6116  0.7020
 5950TIP3    H239342   3.575   4.443  13.622  0.6214 -0.1473  0.0421
 5951TIP3   OH239343   0.761   1.504  13.295 -0.3777  0.5119  0.7047
 5951TIP3    H139344   0.814   1.429  13.320 -0.7827  0.1180  0.3951
 5951TIP3    H239345   0.673   1.468  13.280 -0.0108  0.5485 -2.1188
 5952TIP3   OH239346   2.073   0.499  13.697  0.1275  0.5193  0.1032
 5952TIP3    H139347   2.113   0.552  13.628 -0.1189 -0.0026 -0.4586
 5952TIP3    H239348   2.109   0.411  13.684 -0.0781  0.3708  0.5166
 5953TIP3   OH239349   2.203   3.053  16.995  0.8446  0.3230 -0.3609
 5953TIP3    H139350   2.280   2.997  17.005  1.3885  1.2412  0.8242
 5953TIP3    H239351   2.180   3.045  16.902  0.3027 -2.5746 -0.0440
 5954TIP3   OH239352   1.485   4.401   4.972 -0.5915  0.3472 -0.6516
 5954TIP3    H139353   1.508   4.308   4.968 -0.5658  0.2518  1.0640
 5954TIP3    H239354   1.557   4.445   4.926  1.6748 -0.1946  2.0533
 5955TIP3   OH239355   0.801   0.757   2.501  0.7880  0.5757  0.5909
 5955TIP3    H139356   0.870   0.728   2.442 -0.2150 -0.5771 -0.0670
 5955TIP3    H239357   0.781   0.846   2.473  0.0401 -0.0876 -1.1503
 5956TIP3   OH239358   0.375   4.484   1.413 -0.2140 -0.0117  0.3541
 5956TIP3    H139359   0.311   4.523   1.354 -0.9396 -3.5907 -1.4855
 5956TIP3    H239360   0.431   4.557   1.439 -1.5869  2.2621 -2.5007
 5957TIP3   OH239361   3.611   0.467  13.187 -0.3455  0.1835 -0.0440
 5957TIP3    H139362   3.569   0.527  13.125 -1.6504  0.7244  1.2883
 5957TIP3    H239363   3.599   0.509  13.272  3.6837  0.7785  0.4090
 5958TIP3   OH239364   0.077   3.860  11.561  0.2517  0.9905  0.0719
 5958TIP3    H139365   0.104   3.884  11.650  1.1306  1.3198 -0.2790
 5958TIP3    H239366   0.094   3.938  11.509  1.2413  0.2842 -0.6882
 5959TIP3   OH239367   3.309   4.617   4.669 -0.0710  0.2886 -0.7281
 5959TIP3    H139368   3.378   4.675   4.700  0.3323  0.6515 -2.2331
 5959TIP3    H239369   3.355   4.536   4.646 -0.0538  0.6339 -2.0209
 5960TIP3   OH239370   6.729   1.499  15.361  0.3117 -0.2052 -0.1731
 5960TIP3    H139371   6.717   1.468  15.451 -0.6173 -0.2567 -0.3099
 5960TIP3    H239372   6.764   1.587  15.371 -1.0388  0.2991  0.2669
 5961TIP3   OH239373   6.377   3.704  16.097  0.5698 -0.3449  0.4402
 5961TIP3    H139374   6.325   3.771  16.053 -0.8036 -1.1941  0.7170
 5961TIP3    H239375   6.431   3.666  16.027 -1.5766 -1.6716 -0.5990
 5962TIP3   OH239376   3.695   0.205   5.533  0.0110  0.1277 -0.1364
 5962TIP3    H139377   3.610   0.172   5.503 -0.1866  0.2044  0.3317
 5962TIP3    H239378   3.735   0.132   5.579 -0.4589  0.5364  0.9638
 5963TIP3   OH239379   6.620   2.118   5.147  0.1496 -0.1929  0.3839
 5963TIP3    H139380   6.589   2.043   5.097  0.5103  0.8733 -1.5634
 5963TIP3    H239381   6.707   2.136   5.112 -0.0054  1.2334  0.6464
 5964TIP3   OH239382   5.970   2.073  12.963  0.3308 -0.4621 -0.0727
 5964TIP3    H139383   5.955   2.155  12.917  3.7212 -0.7065 -1.9170
 5964TIP3    H239384   5.999   2.099  13.051 -0.5229  0.2046  0.0221
 5965TIP3   OH239385   3.431   4.402   4.547  0.3808  0.3773  0.6942
 5965TIP3    H139386   3.488   4.336   4.507 -1.0226  0.2317 -1.2016
 5965TIP3    H239387   3.347   4.357   4.560 -0.3684  1.5394  0.0930
 5966TIP3   OH239388   1.460   2.924   5.162  0.6122  0.3469 -0.3945
 5966TIP3    H139389   1.506   2.906   5.244  1.0212 -0.2910 -0.7586
 5966TIP3    H239390   1.416   3.008   5.178 -2.1275 -1.3239  1.6813
 5967TIP3   OH239391   4.440   4.640  15.153  0.2778  0.3269 -0.3397
 5967TIP3    H139392   4.462   4.670  15.065 -0.0007 -0.1629 -0.5761
 5967TIP3    H239393   4.453   4.718  15.208  1.5855  0.3323 -0.6220
 5968TIP3   OH239394   2.950   5.238  17.020  0.3550  0.0423 -0.4321
 5968TIP3    H139395   2.896   5.203  17.090 -0.3484  0.7059 -0.6220
 5968TIP3    H239396   3.023   5.280  17.064 -0.1619  0.5844 -0.0824
 5969TIP3   OH239397   2.388   2.130   5.503  0.0163  0.4004 -0.0747
 5969TIP3    H139398   2.442   2.209   5.499  0.6251  0.1274  1.8559
 5969TIP3    H239399   2.303   2.161   5.534 -0.0088  0.4119 -0.1544
 5970TIP3   OH239400   0.439   3.942  16.861  0.0396 -0.1569 -0.5739
 5970TIP3    H139401   0.415   3.849  16.856  0.9412 -0.4268 -0.1786
 5970TIP3    H239402   0.503   3.953  16.790  0.1705  0.0837 -0.4173
 5971TIP3   OH239403   5.425   3.714  11.753  0.2253  0.2031  0.3551
 5971TIP3    H139404   5.413   3.797  11.707  0.9046  0.6753  1.0017
 5971TIP3    H239405   5.436   3.739  11.845 -2.5972 -0.8043  1.0664
 5972TIP3   OH239406   3.012   2.821  15.075  0.1653  0.0043  0.0877
 5972TIP3    H139407   2.993   2.743  15.022  0.3023 -1.3589  1.9740
 5972TIP3    H239408   2.988   2.894  15.018 -0.5558 -1.4076 -1.5218
 5973TIP3   OH239409   2.143   1.947  12.661  0.0031  0.4172  0.5097
 5973TIP3    H139410   2.174   2.035  12.635  0.4509 -0.0139 -0.4749
 5973TIP3    H239411   2.098   1.961  12.744  2.0982  1.2383  1.5914
 5974TIP3   OH239412   3.682   3.022  13.063  0.8310 -0.6999  0.0345
 5974TIP3    H139413   3.665   2.971  13.142  0.8391 -0.6040  0.0986
 5974TIP3    H239414   3.714   2.958  12.999 -2.7377 -1.5410 -1.1437
 5975TIP3   OH239415   3.500   3.787   4.361  0.2737 -0.1821  0.4146
 5975TIP3    H139416   3.428   3.849   4.373  0.1470 -0.1331 -0.5579
 5975TIP3    H239417   3.470   3.707   4.404 -0.7739 -0.4585 -0.7593
 5976TIP3   OH239418   5.294   3.569  11.055 -0.2957  0.0332  0.1349
 5976TIP3    H139419   5.213   3.518  11.051 -0.6141  0.3980  1.3362
 5976TIP3    H239420   5.325   3.557  11.145  1.1369 -0.3179 -0.3766
 5977TIP3   OH239421   6.640   3.460   6.307  0.6206  0.2781 -0.2031
 5977TIP3    H139422   6.621   3.376   6.264 -0.2996  0.5935 -0.4346
 5977TIP3    H239423   6.732   3.453   6.334  1.0416 -0.1797 -1.6529
 5978TIP3   OH239424   0.523   4.487  15.069 -0.6520 -0.2099  0.4786
 5978TIP3    H139425   0.522   4.437  15.150 -1.2954 -0.0036  0.6056
 5978TIP3    H239426   0.531   4.421  15.000  0.9369 -0.3168  0.7428
 5979TIP3   OH239427   3.446   1.222  14.831 -0.0367  0.0852  0.2454
 5979TIP3    H139428   3.531   1.209  14.874  0.1976  1.5011  0.2735
 5979TIP3    H239429   3.444   1.156  14.762  0.8499 -0.3282  0.5920
 5980TIP3   OH239430   1.764   2.727  12.912 -0.0284 -0.0809 -0.5505
 5980TIP3    H139431   1.803   2.685  12.835 -1.3404 -1.5126 -0.4883
 5980TIP3    H239432   1.673   2.743  12.887 -0.0237  1.0827  0.0967
 5981TIP3   OH239433   6.600   4.317  16.844  0.1026 -0.6537 -0.5342
 5981TIP3    H139434   6.575   4.369  16.768  1.0348  2.1539  0.9132
 5981TIP3    H239435   6.667   4.257  16.812  1.2632  1.2040 -1.7949
 5982TIP3   OH239436   6.074   2.336  16.654  0.0955 -0.2672 -0.2279
 5982TIP3    H139437   6.110   2.364  16.570  1.5935  1.2228  0.8504
 5982TIP3    H239438   6.103   2.245  16.663  1.6922  0.1829 -0.4467
 5983TIP3   OH239439   2.806   1.691   3.851  0.1468  0.5636  0.3707
 5983TIP3    H139440   2.830   1.606   3.889  1.0491  1.5953  2.3046
 5983TIP3    H239441   2.844   1.690   3.763  0.2256 -0.9898  0.3964
 5984TIP3   OH239442   4.012   3.271   3.989 -0.5237 -0.1528  0.4961
 5984TIP3    H139443   3.935   3.271   4.045 -0.4717 -2.6036  0.6756
 5984TIP3    H239444   4.083   3.303   4.046 -1.2805  1.8661  0.3949
 5985TIP3   OH239445   4.010   3.184  11.970 -0.5550  0.6959 -0.0977
 5985TIP3    H139446   4.053   3.103  11.998 -0.1778  0.9139 -0.0408
 5985TIP3    H239447   4.005   3.177  11.875 -0.3551  0.6908 -0.1072
 5986TIP3   OH239448   3.021   1.247   0.488 -0.3306  0.0828  0.7477
 5986TIP3    H139449   3.030   1.275   0.397  0.9821 -1.1904  0.4640
 5986TIP3    H239450   3.103   1.273   0.530 -0.3048 -0.6714  1.1921
 5987TIP3   OH239451   6.008   4.723  15.154  0.0972  0.2651  0.5137
 5987TIP3    H139452   5.998   4.639  15.110  1.3882  0.6667 -0.6250
 5987TIP3    H239453   5.963   4.712  15.238 -1.8417 -0.7487 -0.5954
 5988TIP3   OH239454   5.774   1.905  16.296  0.4958  0.7813 -0.0894
 5988TIP3    H139455   5.844   1.864  16.246  2.6666  0.8006  2.6917
 5988TIP3    H239456   5.771   1.995  16.263  0.3225  0.2565 -1.6085
 5989TIP3   OH239457   6.181   2.989  11.840  0.3361  0.0082 -0.1628
 5989TIP3    H139458   6.266   3.034  11.835 -0.5197  1.7717  0.4869
 5989TIP3    H239459   6.144   2.996  11.752  0.7820 -0.6395 -0.4108
 5990TIP3   OH239460   5.836   5.762   6.165 -0.2098 -0.1339  0.1779
 5990TIP3    H139461   5.786   5.700   6.218  1.2192 -0.5309  1.1183
 5990TIP3    H239462   5.864   5.829   6.226 -1.2814  1.1902 -0.7341
 5991TIP3   OH239463   0.753   6.222  14.755 -0.5979 -0.2338  0.4651
 5991TIP3    H139464   0.691   6.178  14.696  1.8702 -0.6064 -2.0869
 5991TIP3    H239465   0.701   6.290  14.797 -2.5961  0.1290 -2.2697
 5992TIP3   OH239466   1.088   5.286   0.462 -0.6656 -0.2093  0.6174
 5992TIP3    H139467   1.168   5.323   0.500 -0.9063  1.9077 -0.7652
 5992TIP3    H239468   1.093   5.309   0.369 -2.1703 -1.3816  0.2018
 5993TIP3   OH239469   5.126   2.677   5.760 -0.0515  0.2556  0.5794
 5993TIP3    H139470   5.129   2.711   5.850  1.1223 -0.9282  1.0294
 5993TIP3    H239471   5.171   2.592   5.766 -0.1591  0.0615 -1.0924
 5994TIP3   OH239472   0.458   5.118   3.399 -0.0556  0.0136  0.4557
 5994TIP3    H139473   0.523   5.139   3.332  0.7626  0.0972  1.2623
 5994TIP3    H239474   0.446   5.200   3.447 -2.1829  0.5462 -0.8410
 5995TIP3   OH239475   2.086   6.638  15.672  0.3714  0.0778 -0.0554
 5995TIP3    H139476   2.077   6.544  15.657 -0.1416  0.0270  0.5112
 5995TIP3    H239477   2.001   6.665  15.707  0.1674  0.9545 -1.1601
 5996TIP3   OH239478   6.802   0.795  15.181  0.1239 -0.6233 -0.2769
 5996TIP3    H139479   6.832   0.705  15.173  1.5968 -0.1182 -0.7438
 5996TIP3    H239480   6.777   0.820  15.092  1.6815  0.0623 -0.5453
 5997TIP3   OH239481   5.582   2.913  14.509  0.8657 -0.1227  0.0867
 5997TIP3    H139482   5.511   2.884  14.566 -0.6398 -0.0927 -1.6698
 5997TIP3    H239483   5.657   2.859  14.534 -0.1849 -1.2261  0.9750
 5998TIP3   OH239484   4.857   1.561  14.301  0.3580 -0.3094 -0.0847
 5998TIP3    H139485   4.857   1.632  14.238 -1.3422 -0.3722 -0.1836
 5998TIP3    H239486   4.774   1.569  14.348  0.3371 -1.9221  0.2297
 5999TIP3   OH239487   2.840   6.399   4.465 -0.0162 -0.5387  0.8035
 5999TIP3    H139488   2.883   6.483   4.483  1.7877 -1.6500  1.9885
 5999TIP3    H239489   2.885   6.366   4.387 -0.8775 -0.3527  0.2048
 6000TIP3   OH239490   6.394   4.151  12.299  0.0220  1.2633  0.2667
 6000TIP3    H139491   6.418   4.089  12.231 -1.1884 -0.5758  1.4053
 6000TIP3    H239492   6.331   4.210  12.258 -1.6085 -0.5452 -0.0049
 6001TIP3   OH239493   0.640   4.688  15.749  0.1091 -0.2019  0.3738
 6001TIP3    H139494   0.721   4.706  15.701  0.0495  0.5330  0.5460
 6001TIP3    H239495   0.578   4.661  15.681  0.7459 -1.7042  0.3407
 6002TIP3   OH239496   5.566   4.466   3.078  0.3810  0.1136 -0.6418
 6002TIP3    H139497   5.471   4.460   3.094  0.6673 -1.2299  0.8791
 6002TIP3    H239498   5.575   4.534   3.012 -1.7059 -0.2059 -1.3446
 6003TIP3   OH239499   2.762   0.568  14.879 -0.0691 -0.1652  0.1758
 6003TIP3    H139500   2.818   0.630  14.926  0.6981 -0.5934 -0.1480
 6003TIP3    H239501   2.685   0.558  14.936 -0.5287  1.5735 -0.0869
 6004TIP3   OH239502   1.506   0.501   5.718  0.4563 -0.7690  0.3160
 6004TIP3    H139503   1.583   0.472   5.768 -0.5083  1.4449  3.3539
 6004TIP3    H239504   1.431   0.479   5.773 -1.1304 -1.9726 -2.1269
 6005TIP3   OH239505   1.480   0.508  14.080  0.9362 -0.1857 -0.2866
 6005TIP3    H139506   1.542   0.574  14.050 -0.6321  1.9719  0.9531
 6005TIP3    H239507   1.407   0.558  14.118 -0.7923 -2.6167 -0.1432
 6006TIP3   OH239508   0.867   3.144   4.108  0.1999  0.3370  0.4278
 6006TIP3    H139509   0.959   3.118   4.104  0.5831  1.6663 -0.1376
 6006TIP3    H239510   0.824   3.074   4.157  1.4419 -0.4887  0.3828
 6007TIP3   OH239511   2.278   5.010  14.020 -0.5866  0.1654  0.1149
 6007TIP3    H139512   2.198   4.992  13.970  0.5154  0.1118 -1.7175
 6007TIP3    H239513   2.347   4.962  13.973  0.6053  0.5365  1.4166
 6008TIP3   OH239514   0.678   0.715  13.562 -0.1754 -0.2790  0.7636
 6008TIP3    H139515   0.732   0.791  13.584  1.3216 -0.5008 -1.6673
 6008TIP3    H239516   0.707   0.646  13.621  1.2197  0.0290  0.4752
 6009TIP3   OH239517   5.815   2.199   3.466 -0.5202  0.1022  0.1324
 6009TIP3    H139518   5.828   2.128   3.529  0.9148  0.8409  0.6959
 6009TIP3    H239519   5.769   2.157   3.393  0.2702 -1.4044  0.4594
 6010TIP3   OH239520   2.043   1.073   1.967  0.3471  0.5950 -0.8659
 6010TIP3    H139521   1.985   1.014   2.016  0.2341  0.7662 -0.7934
 6010TIP3    H239522   2.068   1.140   2.030  2.1583 -0.4979 -0.3273
 6011TIP3   OH239523   1.168   0.696   5.573  0.4770 -0.2149  0.2986
 6011TIP3    H139524   1.261   0.691   5.595  0.4594 -1.2457  0.1910
 6011TIP3    H239525   1.144   0.606   5.548 -1.0026 -0.4094  2.1877
 6012TIP3   OH239526   6.112   0.600  12.222 -0.1406 -0.3326  0.3466
 6012TIP3    H139527   6.089   0.540  12.293  0.0326 -0.0312  0.6620
 6012TIP3    H239528   6.167   0.666  12.264 -0.6553  0.2724  0.0803
 6013TIP3   OH239529   4.112   2.471  16.931  0.3467  0.4492 -0.6410
 6013TIP3    H139530   4.154   2.479  16.846  2.1052 -1.0411  0.0096
 6013TIP3    H239531   4.167   2.409  16.979 -3.1840 -2.5442 -0.0616
 6014TIP3   OH239532   2.557   4.567   1.610  0.4949  0.1400  0.1814
 6014TIP3    H139533   2.545   4.509   1.536  2.3136  0.4552 -0.4171
 6014TIP3    H239534   2.589   4.649   1.572 -0.0631  0.8518  1.1815
 6015TIP3   OH239535   4.893   3.644  11.245  0.5581 -0.2196 -0.0251
 6015TIP3    H139536   4.957   3.708  11.276 -1.0760  0.5214  2.1267
 6015TIP3    H239537   4.944   3.566  11.224  2.1462  0.2246  1.8909
 6016TIP3   OH239538   2.096   5.162   4.429  0.2088  0.1269  0.2387
 6016TIP3    H139539   2.177   5.210   4.449 -0.6888  2.2459 -0.8924
 6016TIP3    H239540   2.121   5.103   4.358  1.2911 -1.0389  1.5279
 6017TIP3   OH239541   3.864   1.031  16.080  0.2179 -0.7606 -0.2989
 6017TIP3    H139542   3.914   1.046  16.000  0.0609  2.0136  0.0119
 6017TIP3    H239543   3.921   1.063  16.150 -0.1680 -1.9372  0.5860
 6018TIP3   OH239544   3.833   2.923  16.718  0.2056  1.0623  0.2138
 6018TIP3    H139545   3.757   2.882  16.760 -0.3643  2.5290  0.6715
 6018TIP3    H239546   3.868   2.982  16.784  2.0177  0.1305  0.1360
 6019TIP3   OH239547   0.976   0.511  12.204  0.5200 -0.1434  0.1803
 6019TIP3    H139548   1.000   0.599  12.174 -0.6564 -0.0271 -0.4691
 6019TIP3    H239549   1.030   0.452  12.151  0.0841  0.1435 -0.6038
 6020TIP3   OH239550   4.334   4.128  14.068 -0.5491  0.6568  0.1609
 6020TIP3    H139551   4.296   4.094  13.987  1.2900  2.7148 -1.7250
 6020TIP3    H239552   4.415   4.170  14.040 -0.1293  1.9884  3.0189
 6021TIP3   OH239553   4.652   1.665   4.938  0.5744 -0.5303 -0.7685
 6021TIP3    H139554   4.599   1.637   5.013 -0.2366 -2.2070 -1.9118
 6021TIP3    H239555   4.678   1.583   4.895  2.7089  0.3133 -1.2045
 6022TIP3   OH239556   4.188   6.257   3.854 -0.0130 -0.5184  0.2739
 6022TIP3    H139557   4.250   6.308   3.802 -2.2516  1.5823 -0.4890
 6022TIP3    H239558   4.186   6.302   3.939 -1.7547  0.5453 -0.2927
 6023TIP3   OH239559   0.033   3.086  15.287 -0.1621  0.8122 -0.0460
 6023TIP3    H139560   0.124   3.069  15.262 -0.1051  2.5174 -1.1569
 6023TIP3    H239561  -0.018   3.020  15.239  0.4287  0.3445 -0.0334
 6024TIP3   OH239562   3.210   1.257  15.473  0.0295  0.0869 -0.3127
 6024TIP3    H139563   3.192   1.305  15.392 -1.4086  0.1457  0.0012
 6024TIP3    H239564   3.210   1.165  15.446  0.9578  0.1645 -0.6039
 6025TIP3   OH239565   2.240   6.003  13.857 -0.7449 -0.0880  0.6640
 6025TIP3    H139566   2.253   6.078  13.798 -1.1450 -0.6531 -0.1726
 6025TIP3    H239567   2.177   6.034  13.921 -3.2731 -0.5707 -1.4132
 6026TIP3   OH239568   0.912   5.793  10.290  0.4067 -0.0995  0.1315
 6026TIP3    H139569   0.956   5.712  10.264 -1.3248 -0.1905 -3.1768
 6026TIP3    H239570   0.843   5.765  10.350 -0.2645 -1.1777 -1.0833
 6027TIP3   OH239571   1.085   3.776  11.739  0.3049 -0.6052  0.0049
 6027TIP3    H139572   1.096   3.845  11.674 -0.4630 -0.3863  0.0904
 6027TIP3    H239573   1.168   3.729  11.740  0.6233 -0.0570 -0.4915
 6028TIP3   OH239574   5.268   0.107   2.650  0.4525 -0.0519 -0.2166
 6028TIP3    H139575   5.275   0.024   2.602  0.3022  0.2238 -0.7180
 6028TIP3    H239576   5.321   0.093   2.728  0.8151 -0.4571 -0.5281
 6029TIP3   OH239577   4.904   6.389   0.021  0.0640 -0.3478 -0.1686
 6029TIP3    H139578   4.919   6.360  -0.069 -1.0326  0.2691 -0.5779
 6029TIP3    H239579   4.951   6.326   0.075  1.4657 -0.2350 -1.1942
 6030TIP3   OH239580   6.495   1.593  15.254  0.0614 -0.0431 -0.7337
 6030TIP3    H139581   6.579   1.573  15.296 -0.2254 -0.8226 -0.5197
 6030TIP3    H239582   6.498   1.545  15.171 -0.2009 -0.1363 -0.6899
 6031TIP3   OH239583   3.269   4.760  14.650  0.0467  0.2437  0.3343
 6031TIP3    H139584   3.208   4.687  14.664  0.2662  0.3014  1.6887
 6031TIP3    H239585   3.214   4.833  14.622 -0.1163 -0.5672 -1.6365
 6032TIP3   OH239586   5.304   5.563   5.051  0.7049  0.2866 -0.4672
 6032TIP3    H139587   5.245   5.584   4.978  0.2557 -0.3565 -0.2997
 6032TIP3    H239588   5.346   5.646   5.072  0.2613  0.6441 -0.9478
 6033TIP3   OH239589   1.559   0.049   5.011 -0.1968  0.3003  0.1277
 6033TIP3    H139590   1.523   0.032   5.098  0.9745  0.6755  0.7098
 6033TIP3    H239591   1.489   0.097   4.966 -0.7756  0.2159  0.9033
 6034TIP3   OH239592   0.292   6.494  12.741  0.3892  0.7265 -0.0299
 6034TIP3    H139593   0.333   6.425  12.689  0.0984  0.5510 -0.0225
 6034TIP3    H239594   0.212   6.456  12.775 -0.3734  1.4258 -0.9846
 6035TIP3   OH239595   3.008   3.567  14.479  0.6345  0.0393 -0.0893
 6035TIP3    H139596   2.930   3.547  14.530  0.0765  0.3278 -0.8120
 6035TIP3    H239597   3.006   3.662  14.468  1.4798  0.1410  0.4921
 6036TIP3   OH239598   5.396   3.220  14.792  0.8635 -0.1775  0.0549
 6036TIP3    H139599   5.354   3.287  14.846 -0.7728 -0.9803 -0.1698
 6036TIP3    H239600   5.433   3.158  14.854  2.0748  0.7031  0.2597
 6037TIP3   OH239601   2.862   3.990   3.750  0.0728 -0.2445 -0.3584
 6037TIP3    H139602   2.949   3.949   3.745  0.0791 -0.1091 -2.6245
 6037TIP3    H239603   2.805   3.921   3.783  0.2226 -2.0312 -3.4142
 6038TIP3   OH239604   1.922   6.466   3.805 -0.0742 -0.4510 -0.1394
 6038TIP3    H139605   1.846   6.476   3.861  0.1391  0.3825  0.0190
 6038TIP3    H239606   1.962   6.384   3.832 -1.5283 -1.4663 -0.9879
 6039TIP3   OH239607   1.242   6.637   2.878 -0.2848 -0.4633 -0.5539
 6039TIP3    H139608   1.323   6.688   2.870 -0.6860  0.4845  0.9886
 6039TIP3    H239609   1.175   6.701   2.899 -1.0797 -1.4532  0.0458
 6040TIP3   OH239610   1.635   4.374   3.523 -0.4214 -0.0700 -0.6574
 6040TIP3    H139611   1.692   4.329   3.460  1.8772  0.8192  0.7047
 6040TIP3    H239612   1.605   4.452   3.477  1.5743  0.7900 -0.5677
 6041TIP3   OH239613   0.624   4.525   4.373  0.8142 -0.0193 -0.0514
 6041TIP3    H139614   0.573   4.517   4.454  1.5793  1.4944  0.6202
 6041TIP3    H239615   0.702   4.472   4.388  0.3576 -0.7809 -0.3220
 6042TIP3   OH239616   2.784   0.218  16.274 -0.4533  0.6888 -0.5330
 6042TIP3    H139617   2.809   0.262  16.193  1.3965  1.1199  0.2166
 6042TIP3    H239618   2.767   0.289  16.335 -2.9082  0.3956 -0.7651
 6043TIP3   OH239619   4.421   0.228  15.004 -0.6405  0.1644 -0.1419
 6043TIP3    H139620   4.459   0.233  15.091 -0.1819  0.4745 -0.3548
 6043TIP3    H239621   4.327   0.237  15.019 -0.7693 -1.9182  0.5008
 6044TIP3   OH239622   0.528   6.459  14.672  0.5991 -0.0832  0.3451
 6044TIP3    H139623   0.523   6.459  14.577  0.2747 -0.2219  0.3635
 6044TIP3    H239624   0.525   6.552  14.696  1.6803  0.0159  0.1715
 6045TIP3   OH239625   2.844   6.213  14.368 -1.1681  0.1946 -0.1021
 6045TIP3    H139626   2.756   6.175  14.366 -0.9772 -0.3968  1.1938
 6045TIP3    H239627   2.903   6.137  14.374 -0.7090  0.6189  1.2868
 6046TIP3   OH239628   4.366   3.805   1.505 -0.5370  0.0470 -0.0722
 6046TIP3    H139629   4.371   3.879   1.565 -0.5668 -0.7718  0.9644
 6046TIP3    H239630   4.457   3.781   1.488 -0.5453 -0.4152  0.5283
 6047TIP3   OH239631   1.308   2.098  12.982  0.2869  0.4645 -0.2152
 6047TIP3    H139632   1.291   2.112  13.075 -0.1576 -0.9999 -0.0506
 6047TIP3    H239633   1.360   2.018  12.979  0.2600  0.4741 -1.2310
 6048TIP3   OH239634   2.613   0.971   1.729 -0.3037  0.4964 -0.3844
 6048TIP3    H139635   2.619   0.913   1.652 -0.5410 -0.0613  0.0066
 6048TIP3    H239636   2.531   0.944   1.771  1.2167 -1.2340  1.6712
 6049TIP3   OH239637   5.498   0.564  15.835  0.1281 -0.1459 -0.1993
 6049TIP3    H139638   5.468   0.480  15.867  2.7635 -1.4362 -0.8165
 6049TIP3    H239639   5.549   0.601  15.907 -0.3681  0.5552 -0.2034
 6050TIP3   OH239640   4.156   4.593  12.385  0.0238  0.1071  0.2874
 6050TIP3    H139641   4.071   4.589  12.340 -0.6620 -1.3903  1.5996
 6050TIP3    H239642   4.163   4.683  12.415 -0.7323  0.4500 -0.5049
 6051TIP3   OH239643   5.403   5.441  11.583 -0.1760 -0.7022 -0.1275
 6051TIP3    H139644   5.345   5.405  11.649  0.3942  0.9156  1.3304
 6051TIP3    H239645   5.486   5.396  11.595  0.2731  0.3963  1.0942
 6052TIP3   OH239646   3.124   5.822  16.408 -0.0611 -0.0753 -0.5080
 6052TIP3    H139647   3.127   5.821  16.312  0.9989  0.1856 -0.4891
 6052TIP3    H239648   3.044   5.775  16.430 -1.5633  1.8379 -1.5710
 6053TIP3   OH239649   4.044   3.374   0.804  0.7859 -0.6491  0.3660
 6053TIP3    H139650   4.082   3.460   0.786 -1.1672  0.0156 -0.9105
 6053TIP3    H239651   3.951   3.383   0.781  0.4011 -2.9470  0.7264
 6054TIP3   OH239652   5.245   1.404   0.931  0.1648  0.4935 -0.0124
 6054TIP3    H139653   5.334   1.378   0.954  0.6501  1.3518 -0.8371
 6054TIP3    H239654   5.223   1.472   0.995  0.8950  1.7282 -1.0382
 6055TIP3   OH239655   6.629   4.971  11.242  0.2420 -0.6977 -0.0765
 6055TIP3    H139656   6.538   4.970  11.211  0.2354 -0.5886 -0.0645
 6055TIP3    H239657   6.659   4.881  11.231  0.3483 -0.5854 -0.7134
 6056TIP3   OH239658   2.115   1.556   1.648  0.6608  0.0737 -0.6947
 6056TIP3    H139659   2.087   1.507   1.571 -0.0397 -0.7850  0.0997
 6056TIP3    H239660   2.034   1.580   1.693  0.7956  3.5531 -1.9529
 6057TIP3   OH239661   2.595   2.831   4.500 -0.5207 -0.4291 -0.2227
 6057TIP3    H139662   2.686   2.814   4.475 -1.3140 -1.9477 -2.3862
 6057TIP3    H239663   2.567   2.901   4.442 -0.8547 -0.2249  0.1782
 6058TIP3   OH239664   1.299   3.477  14.863  0.4130  0.0257 -0.1630
 6058TIP3    H139665   1.257   3.561  14.844 -1.2173 -0.7259 -0.0490
 6058TIP3    H239666   1.377   3.477  14.807  0.6155  1.7236  0.0549
 6059TIP3   OH239667   0.102   2.415  14.024  0.4545 -0.0960  0.0108
 6059TIP3    H139668   0.012   2.416  14.056  0.4886  2.0296  0.1393
 6059TIP3    H239669   0.138   2.333  14.059 -1.6632 -1.4861 -0.8713
 6060TIP3   OH239670   3.090   2.993   5.669  0.2527  0.0865 -0.0255
 6060TIP3    H139671   3.166   3.049   5.680 -0.2862  1.2198 -1.7635
 6060TIP3    H239672   3.113   2.935   5.596 -0.4951  0.3744 -0.5026
 6061TIP3   OH239673   3.307   3.946  15.563  0.4801 -0.2954 -0.1175
 6061TIP3    H139674   3.344   3.865  15.527  0.4538  0.4205 -1.9037
 6061TIP3    H239675   3.335   4.014  15.501 -2.1336  0.5914 -0.4373
 6062TIP3   OH239676   6.751   6.510   1.604  0.5464 -0.1987  0.3227
 6062TIP3    H139677   6.745   6.572   1.532 -0.2534 -0.1278  0.4387
 6062TIP3    H239678   6.834   6.529   1.646 -0.2168  1.6143  1.1003
 6063TIP3   OH239679   0.761   3.565  14.713 -0.0438  0.3473 -0.5325
 6063TIP3    H139680   0.819   3.489  14.723 -0.2774  0.1463 -0.6958
 6063TIP3    H239681   0.772   3.614  14.794 -0.8550 -0.5370  0.1444
 6064TIP3   OH239682   1.062   6.812   1.415 -0.0612 -0.1841 -0.3877
 6064TIP3    H139683   1.076   6.762   1.495 -0.8381 -0.2963 -0.3094
 6064TIP3    H239684   1.145   6.856   1.399 -0.0169  0.1590  0.6962
 6065TIP3   OH239685   6.401   3.338   0.230  0.1098  0.1414  0.2222
 6065TIP3    H139686   6.305   3.335   0.230  0.1004 -1.5068 -1.2283
 6065TIP3    H239687   6.422   3.426   0.199 -0.9147  0.6229  0.8298
 6066TIP3   OH239688   1.137   2.897  12.044  0.0408  0.2536 -0.0464
 6066TIP3    H139689   1.212   2.839  12.056  1.6030  2.2730  0.5510
 6066TIP3    H239690   1.119   2.932  12.132 -0.9040  0.6158 -0.3691
 6067TIP3   OH239691   6.247   0.255  12.180 -0.0951 -0.7700  0.1570
 6067TIP3    H139692   6.156   0.270  12.208  0.0976 -2.5879  2.0454
 6067TIP3    H239693   6.299   0.278  12.258  1.3239  2.0236 -1.4516
 6068TIP3   OH239694   2.084   5.933   0.308  1.0105 -0.2414  0.5967
 6068TIP3    H139695   2.056   5.988   0.381 -0.1943 -0.6748  0.4694
 6068TIP3    H239696   2.074   5.844   0.339  0.4555 -0.4325 -0.0961
 6069TIP3   OH239697   4.917   1.374   5.753 -0.4888 -0.4322 -0.2148
 6069TIP3    H139698   4.896   1.301   5.695 -0.7799  0.1096 -0.7943
 6069TIP3    H239699   4.866   1.447   5.720 -0.5183 -0.0665  0.6201
 6070TIP3   OH239700   3.261   4.370  11.711 -0.3207  0.4194 -0.5120
 6070TIP3    H139701   3.297   4.444  11.760 -0.1401 -0.7246  1.1633
 6070TIP3    H239702   3.327   4.353  11.644  0.0060  1.2816 -0.4320
 6071TIP3   OH239703   2.519   6.048  14.856  0.0608  0.4332  0.0929
 6071TIP3    H139704   2.564   6.087  14.931 -1.6174  2.5800  0.0722
 6071TIP3    H239705   2.586   6.042  14.788  1.1209  0.3196  1.1213
 6072TIP3   OH239706   2.009   1.989  16.158 -0.2896 -0.3081  0.4696
 6072TIP3    H139707   2.077   2.007  16.094 -0.6995 -0.1319  0.0841
 6072TIP3    H239708   1.927   2.009  16.113 -0.5133  1.6555  1.6211
 6073TIP3   OH239709   3.136   3.724   1.286 -0.2636  0.1402  0.1428
 6073TIP3    H139710   3.231   3.715   1.282 -0.0199  2.4096 -0.9568
 6073TIP3    H239711   3.118   3.760   1.373  0.0067  0.6753 -0.0192
 6074TIP3   OH239712   4.979   5.781   5.535 -0.0430  0.0440  0.1209
 6074TIP3    H139713   4.986   5.747   5.624  0.3992  0.2285  0.1629
 6074TIP3    H239714   5.057   5.747   5.490  0.1734  0.6222  0.0430
 6075TIP3   OH239715   4.632   2.805   0.989 -0.2805  0.2182  0.1815
 6075TIP3    H139716   4.634   2.861   0.912 -1.6166 -1.8169 -1.4355
 6075TIP3    H239717   4.547   2.822   1.029 -0.8243 -0.8485 -0.4964
 6076TIP3   OH239718   1.962   5.610  14.067 -0.1468 -0.2279 -0.0517
 6076TIP3    H139719   1.943   5.571  13.982 -0.7027 -1.0320  0.4262
 6076TIP3    H239720   1.887   5.586  14.121  0.8906 -1.0302  1.0863
 6077TIP3   OH239721   2.233   4.258  13.308 -0.1487 -0.0796 -0.3536
 6077TIP3    H139722   2.246   4.346  13.273 -2.2331  1.2957  1.9925
 6077TIP3    H239723   2.176   4.215  13.244 -0.7216  0.9912 -0.5864
 6078TIP3   OH239724   2.268   5.946  11.308 -0.3340  0.4430  0.0667
 6078TIP3    H139725   2.286   5.914  11.397  0.6202 -0.6155 -0.4736
 6078TIP3    H239726   2.200   5.888  11.275  0.8148 -0.5536 -0.6239
 6079TIP3   OH239727   5.609   6.208  15.838 -0.6852 -0.5892 -0.1064
 6079TIP3    H139728   5.638   6.118  15.856  0.2957 -0.5214 -1.2767
 6079TIP3    H239729   5.514   6.199  15.826 -1.0089 -1.0508  2.2285
 6080TIP3   OH239730   5.721   3.128   4.815  0.1888  0.4651 -0.0575
 6080TIP3    H139731   5.712   3.032   4.815  0.1703  0.3722 -3.2564
 6080TIP3    H239732   5.647   3.158   4.869  0.1587 -1.2748  0.9618
 6081TIP3   OH239733   2.701   5.846   2.597  0.5712  0.3223 -0.1320
 6081TIP3    H139734   2.685   5.811   2.684  1.1804 -0.4503 -0.3203
 6081TIP3    H239735   2.755   5.924   2.611 -1.1891  1.5156  0.3239
 6082TIP3   OH239736   5.526   5.598  12.353  0.5314  0.2155  0.2832
 6082TIP3    H139737   5.493   5.664  12.292 -1.6893  1.0125  2.1595
 6082TIP3    H239738   5.581   5.648  12.414  0.1876  0.0478  0.7389
 6083TIP3   OH239739   2.370   3.004  16.608  0.2782 -0.7863 -0.6387
 6083TIP3    H139740   2.436   2.939  16.630  0.7228 -0.2314 -0.2844
 6083TIP3    H239741   2.419   3.086  16.598 -0.2437 -0.5362 -1.2476
 6084TIP3   OH239742   4.531   3.111   1.910 -0.0006  0.8089  0.1085
 6084TIP3    H139743   4.472   3.142   1.979  1.7104 -0.9354  2.5067
 6084TIP3    H239744   4.514   3.017   1.904  1.0715  0.6431 -0.6065
 6085TIP3   OH239745   1.865   2.858  17.136  0.1366 -0.3205  0.0193
 6085TIP3    H139746   1.838   2.868  17.045 -0.0710  2.5334  0.2913
 6085TIP3    H239747   1.852   2.766  17.155  0.3058 -1.0374 -2.8560
 6086TIP3   OH239748   4.367   4.887   4.160 -0.3217 -0.0616  0.1058
 6086TIP3    H139749   4.344   4.876   4.068 -1.9500  0.9448  0.3526
 6086TIP3    H239750   4.342   4.804   4.201  1.5878 -1.0057 -0.5172
 6087TIP3   OH239751   0.708   4.566  16.499  0.3119  0.6200 -0.3113
 6087TIP3    H139752   0.795   4.593  16.531 -0.3027  1.1340  0.9998
 6087TIP3    H239753   0.647   4.610  16.558 -0.8135 -0.7366 -0.4355
 6088TIP3   OH239754   3.304   5.784   5.310  0.3993  0.3438 -0.0865
 6088TIP3    H139755   3.221   5.808   5.351  1.4848  1.2030  1.6888
 6088TIP3    H239756   3.327   5.700   5.350  0.1165 -0.1919 -1.0212
 6089TIP3   OH239757   2.198   3.340  10.738 -0.2143 -0.6557 -0.4001
 6089TIP3    H139758   2.253   3.334  10.660 -0.8640 -2.2739 -0.7936
 6089TIP3    H239759   2.124   3.282  10.718 -0.9666 -0.1941  0.9647
 6090TIP3   OH239760   3.667   2.978  11.154 -0.6225  0.0427 -0.1410
 6090TIP3    H139761   3.637   2.944  11.239  0.0487  1.3417  0.6444
 6090TIP3    H239762   3.616   2.928  11.090 -3.2163  0.9308  1.0680
 6091TIP3   OH239763   6.761   6.657  16.611  0.3959 -0.0477 -0.1539
 6091TIP3    H139764   6.692   6.683  16.550  0.1856 -0.6286 -0.1678
 6091TIP3    H239765   6.755   6.722  16.682 -1.5674 -1.2723  0.9026
 6092TIP3   OH239766   3.081   4.982  14.603 -0.0804 -0.5144  0.4881
 6092TIP3    H139767   3.113   5.053  14.659 -0.5771 -1.5597  2.2022
 6092TIP3    H239768   3.034   5.026  14.532 -0.3391  0.8831  1.4858
 6093TIP3   OH239769   0.019   1.611   5.506 -0.5348  0.3054 -0.1460
 6093TIP3    H139770   0.079   1.674   5.467 -0.3466  0.5254  0.5015
 6093TIP3    H239771  -0.012   1.558   5.431 -0.0039  0.5742 -0.5586
 6094TIP3   OH239772   5.951   2.822   0.031  0.2738  0.8380 -0.6643
 6094TIP3    H139773   6.015   2.840  -0.038  3.2325 -0.9828  1.3505
 6094TIP3    H239774   5.981   2.875   0.105 -0.9798  0.4469  0.1501
 6095TIP3   OH239775   2.327   1.362   1.673  0.6050 -0.3851  0.9556
 6095TIP3    H139776   2.296   1.452   1.682 -0.1294 -0.5021 -0.2818
 6095TIP3    H239777   2.395   1.366   1.606  1.2105 -0.6272  1.5339
 6096TIP3   OH239778   0.912   0.002   3.800 -0.2116 -0.4783  0.4392
 6096TIP3    H139779   0.857   0.079   3.782  0.6649  0.3772  1.3653
 6096TIP3    H239780   0.870  -0.040   3.875 -0.6464 -0.8777 -0.0187
 6097TIP3   OH239781   5.788   3.925   3.295 -0.5589 -0.3063 -0.2010
 6097TIP3    H139782   5.849   3.983   3.340  1.0286 -2.3218  0.4092
 6097TIP3    H239783   5.713   3.981   3.272  1.3574  2.1962 -0.7186
 6098TIP3   OH239784   4.899   3.579   0.479 -0.0623  0.2061  0.6763
 6098TIP3    H139785   4.864   3.493   0.501  0.1473  0.2278  1.1139
 6098TIP3    H239786   4.827   3.640   0.495 -0.1915  0.1160  0.4253
 6099TIP3   OH239787   4.541   4.857   1.447 -0.6223  0.2132 -0.0995
 6099TIP3    H139788   4.507   4.918   1.512 -0.5030  0.1110  0.0596
 6099TIP3    H239789   4.584   4.789   1.499 -0.7941 -0.0280 -0.2733
 6100TIP3   OH239790   6.408   1.444   1.658 -0.4056 -0.3406 -0.3474
 6100TIP3    H139791   6.330   1.496   1.678  0.0512 -0.7079  2.7711
 6100TIP3    H239792   6.449   1.491   1.584 -1.5954  1.9974  0.3614
 6101TIP3   OH239793   5.201   0.721   3.214  0.9432  0.2093  0.0992
 6101TIP3    H139794   5.219   0.735   3.121  0.3401  0.3156 -0.0058
 6101TIP3    H239795   5.174   0.630   3.220 -0.0412  0.4832 -0.0002
 6102TIP3   OH239796   2.349   5.230   4.211 -0.7505  0.4192  0.4574
 6102TIP3    H139797   2.352   5.289   4.136  0.0043 -0.4410 -0.2161
 6102TIP3    H239798   2.276   5.171   4.192 -0.9437  0.5840  0.6931
 6103TIP3   OH239799   1.503   1.787  16.896  0.1410 -0.2373  0.3106
 6103TIP3    H139800   1.545   1.750  16.974  1.7103  0.2198 -0.2765
 6103TIP3    H239801   1.491   1.880  16.918 -1.4302 -0.5258  0.8030
 6104TIP3   OH239802   4.553   2.363   5.248 -0.0691 -0.0676 -0.0271
 6104TIP3    H139803   4.467   2.386   5.212  0.1273 -0.5828 -0.8595
 6104TIP3    H239804   4.592   2.306   5.181  0.7131 -0.2492  0.5738
 6105TIP3   OH239805   1.566   0.954  11.432  0.1724  0.0926 -0.9287
 6105TIP3    H139806   1.568   0.988  11.522  1.6380  0.5657 -1.1033
 6105TIP3    H239807   1.473   0.952  11.409 -0.1783  0.7048  0.3156
 6106TIP3   OH239808   5.498   2.454   1.792 -0.5968 -0.4741 -0.2581
 6106TIP3    H139809   5.482   2.412   1.876 -0.7437 -0.3421 -0.2200
 6106TIP3    H239810   5.500   2.382   1.729 -1.6053 -0.4714 -0.3010
 6107TIP3   OH239811   0.423   2.214   1.705  0.0368  0.2767  0.2842
 6107TIP3    H139812   0.465   2.242   1.624 -0.3607  0.3922  0.1126
 6107TIP3    H239813   0.422   2.118   1.699  1.2451  0.2186  0.7937
 6108TIP3   OH239814   6.747   3.555  17.066 -0.1230 -0.0726  0.2051
 6108TIP3    H139815   6.735   3.617  16.994 -1.2243  0.1399  0.5474
 6108TIP3    H239816   6.796   3.483  17.027 -1.6011 -0.4484 -1.0493
 6109TIP3   OH239817   5.409   6.749   0.419 -0.0406  0.0171 -0.3968
 6109TIP3    H139818   5.388   6.671   0.368 -1.9641  0.1715  0.1043
 6109TIP3    H239819   5.336   6.808   0.405 -0.7906 -0.0027  2.6585
 6110TIP3   OH239820   3.501   0.900  10.886 -0.0288 -0.4921 -0.4023
 6110TIP3    H139821   3.498   0.809  10.917  0.5790 -0.7175 -0.9919
 6110TIP3    H239822   3.435   0.903  10.816 -1.0768 -0.0986  0.5714
 6111TIP3   OH239823   3.845   2.287   0.936  0.0666  0.2270 -0.1719
 6111TIP3    H139824   3.926   2.297   0.886 -0.8068 -1.0563 -1.9711
 6111TIP3    H239825   3.791   2.361   0.909  0.5941  1.0616  0.9991
 6112TIP3   OH239826   4.391   5.599  16.041 -0.0093 -0.1678  0.1098
 6112TIP3    H139827   4.451   5.551  15.983 -0.2823  0.1401 -0.4424
 6112TIP3    H239828   4.311   5.547  16.040 -0.3910  0.4063 -0.6897
 6113TIP3   OH239829   6.456   5.381   4.048  0.3442  0.1018  0.3712
 6113TIP3    H139830   6.507   5.454   4.011  1.4467  0.6528  2.8014
 6113TIP3    H239831   6.380   5.423   4.087 -0.6214 -0.4390 -0.8516
 6114TIP3   OH239832   6.166   0.798  13.310 -0.3980  0.3705 -0.2428
 6114TIP3    H139833   6.168   0.892  13.326  1.8866  0.5742 -1.2740
 6114TIP3    H239834   6.254   0.767  13.334  0.3968 -0.6822 -3.8493
 6115TIP3   OH239835   6.359   0.400  16.000  0.0023 -0.2576  0.0787
 6115TIP3    H139836   6.337   0.384  15.908  1.7760 -0.4444 -0.3548
 6115TIP3    H239837   6.369   0.495  16.006  1.4329 -0.3460 -0.3545
 6116TIP3   OH239838   2.388   3.454  16.639  0.2050  0.6489 -0.6614
 6116TIP3    H139839   2.296   3.461  16.662  0.4793 -0.8361  1.0629
 6116TIP3    H239840   2.391   3.474  16.545 -2.4206 -2.7302 -1.6624
 6117TIP3   OH239841   3.349   4.125  16.349  0.2251  0.8447  0.0502
 6117TIP3    H139842   3.318   4.146  16.261 -0.1793  2.6354  0.5917
 6117TIP3    H239843   3.444   4.116  16.339  0.0704 -0.1358 -0.7592
 6118TIP3   OH239844   3.764   6.601  16.810  0.3821  0.4030  0.8893
 6118TIP3    H139845   3.818   6.563  16.740 -0.3852  0.0857  0.4559
 6118TIP3    H239846   3.685   6.547  16.811 -0.5598  1.7165  0.5451
 6119TIP3   OH239847   1.194   4.749  14.027  0.4521 -0.1539  0.0296
 6119TIP3    H139848   1.190   4.844  14.030 -0.3051 -0.1997  1.1791
 6119TIP3    H239849   1.139   4.725  13.953 -0.3204  0.2659  0.4596
 6120TIP3   OH239850   5.904   0.295   1.393  0.0714 -0.2845  0.1282
 6120TIP3    H139851   5.845   0.331   1.459 -1.7103 -2.2564 -0.2627
 6120TIP3    H239852   5.943   0.218   1.434 -0.8051 -1.3460 -0.9309
 6121TIP3   OH239853   4.209   2.777   0.102  0.4652 -0.0898 -0.6525
 6121TIP3    H139854   4.186   2.745   0.015  0.7593  1.2944 -1.2689
 6121TIP3    H239855   4.276   2.716   0.133 -0.4021 -1.2146 -0.9355
 6122TIP3   OH239856   2.671   3.585  13.912  0.0221  0.8156 -0.2694
 6122TIP3    H139857   2.655   3.559  13.821  2.5682  2.1838 -1.2068
 6122TIP3    H239858   2.605   3.652  13.930 -1.7272 -0.7831 -0.3865
 6123TIP3   OH239859   0.228   6.407   3.996  0.1600 -0.5485 -0.1676
 6123TIP3    H139860   0.295   6.391   3.929 -0.1040  0.8031 -0.7907
 6123TIP3    H239861   0.274   6.393   4.079  0.5716 -1.9568 -0.6089
 6124TIP3   OH239862   0.915   4.459   3.094 -0.2515 -0.2300 -0.3227
 6124TIP3    H139863   0.893   4.505   3.175 -0.2078 -2.1272  0.8360
 6124TIP3    H239864   0.985   4.399   3.118  0.0111 -0.5949 -1.8653
 6125TIP3   OH239865   6.220   0.131   3.480  0.3972 -0.3553  0.4601
 6125TIP3    H139866   6.294   0.165   3.430 -0.0945 -0.8761 -0.6684
 6125TIP3    H239867   6.218   0.038   3.458  0.5276 -0.7369  1.9483
 6126TIP3   OH239868   4.487   3.867   4.397 -0.3609 -0.3433  0.4085
 6126TIP3    H139869   4.473   3.779   4.434  0.1640 -0.3057  0.7050
 6126TIP3    H239870   4.550   3.853   4.327  0.9675  0.0212  1.4991
 6127TIP3   OH239871   5.905   5.638  15.820 -0.4183  0.4203 -0.6763
 6127TIP3    H139872   5.929   5.582  15.746  0.9074  0.1344 -0.0631
 6127TIP3    H239873   5.859   5.579  15.880 -0.7513  0.4577 -0.8901
 6128TIP3   OH239874   4.485   1.322   3.934 -0.5702  0.3789 -1.2036
 6128TIP3    H139875   4.506   1.239   3.977 -2.0519 -0.3777 -1.8494
 6128TIP3    H239876   4.550   1.329   3.864  0.3736  0.4276 -0.3365
 6129TIP3   OH239877   0.678   6.381  16.701  0.9388  0.0210  0.1926
 6129TIP3    H139878   0.682   6.367  16.796  2.0149 -1.1870 -0.0071
 6129TIP3    H239879   0.623   6.458  16.691  1.4130  0.6242  1.8459
 6130TIP3   OH239880   0.861   6.600  13.019 -0.6337 -0.1773 -0.1568
 6130TIP3    H139881   0.898   6.528  13.070 -0.2335  0.2275  0.1317
 6130TIP3    H239882   0.880   6.678  13.070  2.0797  0.5759 -2.0446
 6131TIP3   OH239883   0.999   4.178  13.979  0.1050  0.3193  0.0652
 6131TIP3    H139884   0.983   4.110  13.914 -2.5671  0.4632  0.4205
 6131TIP3    H239885   0.951   4.255  13.946  0.2117  0.9518  1.3059
 6132TIP3   OH239886   3.127   0.945   0.124  0.1344 -0.5299 -0.9798
 6132TIP3    H139887   3.154   0.854   0.115  0.1045 -0.5342 -1.0237
 6132TIP3    H239888   3.053   0.942   0.185  1.4163 -0.3220  0.6568
 6133TIP3   OH239889   0.333   6.200   5.796  0.2090  0.6372  0.5451
 6133TIP3    H139890   0.409   6.177   5.743 -0.1474 -0.1921  0.3712
 6133TIP3    H239891   0.271   6.237   5.733  0.3050  0.9091  0.6115
 6134TIP3   OH239892   2.174   6.539  13.726  0.7862  0.0813  0.5396
 6134TIP3    H139893   2.250   6.515  13.780 -0.6082  0.3214  2.7750
 6134TIP3    H239894   2.113   6.466  13.737  0.1909  0.4580 -0.2045
 6135TIP3   OH239895   5.355   3.524   3.667 -0.4069 -0.2752 -0.5281
 6135TIP3    H139896   5.268   3.505   3.704  0.2531  1.6910  2.3267
 6135TIP3    H239897   5.354   3.618   3.649  1.2720 -0.1459 -0.0719
 6136TIP3   OH239898   2.074   1.459   2.786 -0.4737  0.7761 -0.3385
 6136TIP3    H139899   1.984   1.432   2.805 -0.9040  1.3048 -1.5419
 6136TIP3    H239900   2.099   1.405   2.710  0.0521  0.9754 -0.3083
 6137TIP3   OH239901   6.254   4.818   5.835  0.1060 -0.5504 -0.2401
 6137TIP3    H139902   6.203   4.797   5.914 -1.7659  1.4389 -0.8253
 6137TIP3    H239903   6.281   4.909   5.848 -1.7882  0.4403 -2.6140
 6138TIP3   OH239904   0.214   5.054  13.428  0.4813 -0.0359 -0.2721
 6138TIP3    H139905   0.238   5.001  13.352  1.2820  0.1172 -0.1330
 6138TIP3    H239906   0.202   4.990  13.498 -3.8924 -0.6493 -1.2572
 6139TIP3   OH239907   6.774   6.383  13.663 -0.6266 -0.7684 -0.0945
 6139TIP3    H139908   6.692   6.395  13.614 -1.3482  0.1890  1.2708
 6139TIP3    H239909   6.843   6.388  13.596 -1.5876  0.0053 -1.0677
 6140TIP3   OH239910   1.337   4.395  14.945  0.1166  0.6561  0.1128
 6140TIP3    H139911   1.270   4.330  14.969  0.7804 -0.1624 -0.1689
 6140TIP3    H239912   1.418   4.359  14.981  0.4642  1.4365  0.1151
 6141TIP3   OH239913   0.378   3.433  13.565 -0.6497 -0.0888 -0.2348
 6141TIP3    H139914   0.404   3.395  13.649 -0.0465 -0.6044 -0.6415
 6141TIP3    H239915   0.419   3.376  13.499 -0.6613  0.6266 -0.8744
 6142TIP3   OH239916   4.077   3.059  15.118 -0.2296 -0.0210  0.1055
 6142TIP3    H139917   4.022   2.990  15.155 -0.2107 -0.1629 -0.1285
 6142TIP3    H239918   4.149   3.013  15.075 -0.1332  0.1486  0.0815
 6143TIP3   OH239919   1.828   3.091   1.726 -0.2904 -0.2264 -0.1079
 6143TIP3    H139920   1.799   3.017   1.672  0.6999  1.1203 -2.6497
 6143TIP3    H239921   1.808   3.168   1.674  0.8307  1.1851  1.4367
 6144TIP3   OH239922   4.352   3.298   3.669 -0.1655  0.3035  0.9468
 6144TIP3    H139923   4.364   3.366   3.735 -0.3376 -0.2901  1.6005
 6144TIP3    H239924   4.313   3.224   3.717 -0.9643  0.1213  0.0370
 6145TIP3   OH239925   0.959   5.400   5.055  0.2342 -0.0534 -0.6287
 6145TIP3    H139926   0.939   5.448   5.135  1.3383 -0.9474  0.2113
 6145TIP3    H239927   1.054   5.407   5.046  0.0145  1.4972 -2.8400
 6146TIP3   OH239928   0.632   1.533  15.926  0.2870 -0.0978 -0.7874
 6146TIP3    H139929   0.667   1.619  15.906  0.3722  0.1956  0.5332
 6146TIP3    H239930   0.605   1.498  15.841 -0.7675  1.6697 -1.2443
 6147TIP3   OH239931   2.633   5.225  14.028  0.2955  1.0617 -0.0726
 6147TIP3    H139932   2.603   5.259  13.944 -2.3466 -0.3335  0.2297
 6147TIP3    H239933   2.580   5.271  14.093  0.7122  0.4809  0.6956
 6148TIP3   OH239934   1.585   4.628  14.154 -0.2089  0.3846 -0.5246
 6148TIP3    H139935   1.678   4.614  14.171  0.0224  1.6930 -0.6035
 6148TIP3    H239936   1.575   4.723  14.150 -1.6915  0.2971  0.2424
 6149TIP3   OH239937   4.735   0.710   3.386 -0.1587 -0.1151  0.0144
 6149TIP3    H139938   4.704   0.796   3.357 -0.0099  0.3422  1.1916
 6149TIP3    H239939   4.655   0.662   3.407 -0.2706 -0.4482 -1.0662
 6150TIP3   OH239940   3.582   0.933  15.568 -0.2244 -0.6608  0.2270
 6150TIP3    H139941   3.606   0.983  15.646  0.5627 -0.1891 -0.3039
 6150TIP3    H239942   3.494   0.900  15.587 -1.3549  2.0359  0.0388
 6151TIP3   OH239943   5.181   0.944  13.232 -0.1130  0.1337  0.3390
 6151TIP3    H139944   5.159   0.956  13.324 -1.7647  2.2219 -0.2511
 6151TIP3    H239945   5.221   1.027  13.206  0.6315 -0.5429 -0.7707
 6152TIP3   OH239946   3.383   5.370  13.794  0.1580  0.1657  0.6375
 6152TIP3    H139947   3.363   5.449  13.845  1.7655  0.0305  1.5432
 6152TIP3    H239948   3.358   5.392  13.704  1.9033  2.2561  0.6012
 6153TIP3   OH239949   5.039   2.661  16.098 -0.1528 -0.4176 -0.1639
 6153TIP3    H139950   5.131   2.668  16.123 -0.6236  0.4723  1.4968
 6153TIP3    H239951   5.012   2.574  16.126  0.5395 -1.2970 -2.0834
 6154TIP3   OH239952   1.162   0.795  12.605  0.0466  0.1283 -0.3362
 6154TIP3    H139953   1.233   0.753  12.555  0.0754  1.0991 -1.1350
 6154TIP3    H239954   1.099   0.725  12.619  0.7086 -0.5135 -0.4780
 6155TIP3   OH239955   5.667   5.348   0.091 -0.3244 -0.4372 -0.0320
 6155TIP3    H139956   5.715   5.412   0.039 -1.0647 -0.3288 -0.5870
 6155TIP3    H239957   5.653   5.274   0.032 -0.9108 -0.4385  0.1021
 6156TIP3   OH239958   1.438   4.132   4.925  0.3297  0.0996 -0.0352
 6156TIP3    H139959   1.377   4.105   4.993  1.3427 -0.5381  0.6497
 6156TIP3    H239960   1.410   4.082   4.848  0.9517 -1.4771  0.7035
 6157TIP3   OH239961   5.790   2.328   1.079 -0.1760 -0.1466 -0.0746
 6157TIP3    H139962   5.750   2.414   1.094  1.2965  0.7233 -0.8765
 6157TIP3    H239963   5.881   2.339   1.107 -0.0706 -1.5806  0.1976
 6158TIP3   OH239964   5.398   5.683  14.765  0.8586 -0.1598  0.1954
 6158TIP3    H139965   5.408   5.708  14.673 -2.6328  0.0942 -0.2601
 6158TIP3    H239966   5.378   5.765  14.810 -1.0104 -0.7003  0.4510
 6159TIP3   OH239967   3.886   1.256  13.902  0.3635 -0.8734  0.2454
 6159TIP3    H139968   3.930   1.244  13.817 -1.6540 -1.2581 -0.7923
 6159TIP3    H239969   3.937   1.202  13.963 -0.2681 -3.6278 -1.4915
 6160TIP3   OH239970   5.972   0.763  16.628 -0.5366 -0.0590  0.0272
 6160TIP3    H139971   6.003   0.853  16.631  1.5872 -0.7793  0.9262
 6160TIP3    H239972   5.932   0.755  16.541  1.2834  1.1332 -0.9848
 6161TIP3   OH239973   0.667   4.345  16.866 -0.7206  0.3510  0.4527
 6161TIP3    H139974   0.727   4.311  16.932  1.1300  2.8718  0.1870
 6161TIP3    H239975   0.654   4.271  16.806  0.7622 -0.7777  1.4390
 6162TIP3   OH239976   4.179   4.813   6.194 -0.5708  0.2824 -0.4356
 6162TIP3    H139977   4.215   4.902   6.201 -0.8596  0.4778 -1.3295
 6162TIP3    H239978   4.116   4.807   6.265 -0.1085  0.5764  0.0084
 6163TIP3   OH239979   6.081   0.218  11.935 -0.1519 -0.0767 -0.2520
 6163TIP3    H139980   6.104   0.128  11.914 -0.1055 -0.2069  0.3380
 6163TIP3    H239981   6.160   0.255  11.974  0.4310  0.7800 -2.1167
 6164TIP3   OH239982   4.927   3.311  15.105 -0.0618  0.5965  0.5623
 6164TIP3    H139983   4.961   3.245  15.166 -0.8439  2.2586  2.9052
 6164TIP3    H239984   4.998   3.375  15.097  0.4326 -0.0917 -1.1747
 6165TIP3   OH239985   5.663   3.610  14.070  0.3352  0.0782  0.6204
 6165TIP3    H139986   5.740   3.564  14.103 -0.4283 -1.8550 -0.1554
 6165TIP3    H239987   5.667   3.597  13.975 -0.6304  0.4756  0.5176
 6166TIP3   OH239988   2.927   6.162  16.025 -0.1119  0.5772  0.2098
 6166TIP3    H139989   2.888   6.227  16.083 -1.8095 -1.1224  1.1042
 6166TIP3    H239990   2.914   6.079  16.072  2.3181 -0.3871 -0.6807
 6167TIP3   OH239991   0.568   0.781  12.020  0.2343  0.0641 -0.2178
 6167TIP3    H139992   0.623   0.704  12.008 -2.2018 -1.8506 -0.0879
 6167TIP3    H239993   0.588   0.812  12.109  0.4350 -1.1721  0.1873
 6168TIP3   OH239994   5.947   2.663   2.008  0.0773 -0.1037 -0.0539
 6168TIP3    H139995   5.890   2.648   1.933 -0.2386 -0.0782  0.1812
 6168TIP3    H239996   6.013   2.725   1.975 -0.7087  0.7802  0.0072
 6169TIP3   OH239997   5.005   3.796  15.917  0.4103 -0.2491  0.2950
 6169TIP3    H139998   4.920   3.835  15.900  0.8683 -0.0526 -1.7715
 6169TIP3    H239999   5.065   3.870  15.921  1.0376 -0.5562 -2.0763
 6170TIP3   OH240000   0.889   5.444   0.696  0.0483  0.1129  0.5882
 6170TIP3    H140001   0.943   5.375   0.735  0.0076  0.2348  0.8622
 6170TIP3    H240002   0.806   5.401   0.676  0.0207  0.0819  0.7654
 6171TIP3   OH240003   3.459   6.779   3.364  0.4935  0.1149 -0.3245
 6171TIP3    H140004   3.546   6.816   3.382  0.1038  0.2652  1.4932
 6171TIP3    H240005   3.449   6.709   3.429 -0.6066 -0.1519 -0.7581
 6172TIP3   OH240006   0.353   6.101   4.283  0.4344  0.1978  0.1315
 6172TIP3    H140007   0.418   6.072   4.346  0.8140  0.6354 -0.0511
 6172TIP3    H240008   0.280   6.133   4.337  0.9124  0.9280  0.3690
 6173TIP3   OH240009   4.536   3.726  13.302 -0.5896 -0.1391  0.1023
 6173TIP3    H140010   4.613   3.679  13.332 -0.1853 -0.4686 -1.3881
 6173TIP3    H240011   4.470   3.710  13.370  0.3417 -0.6483  0.9068
 6174TIP3   OH240012   6.779   0.518  15.197  0.1055 -0.3285 -0.3581
 6174TIP3    H140013   6.769   0.523  15.292 -0.6056 -0.8779 -0.3968
 6174TIP3    H240014   6.699   0.475  15.167  0.4803 -0.4686 -1.1756
 6175TIP3   OH240015   1.873   6.303   2.900  0.2491 -0.0461  0.0572
 6175TIP3    H140016   1.948   6.361   2.895 -1.2968  1.9749 -2.1678
 6175TIP3    H240017   1.888   6.237   2.832 -0.2018  0.7489 -0.8525
 6176TIP3   OH240018   1.409   4.285  15.433  0.8118 -0.2387  0.1245
 6176TIP3    H140019   1.385   4.218  15.368 -1.4396  1.3471 -0.8252
 6176TIP3    H240020   1.360   4.260  15.511  0.9426 -0.3878  0.1573
 6177TIP3   OH240021   0.547   4.269   1.994 -0.3686 -0.2120  0.3218
 6177TIP3    H140022   0.485   4.227   1.934 -1.5430  0.4750  1.0030
 6177TIP3    H240023   0.509   4.254   2.081  0.2208  0.5727  0.7246
 6178TIP3   OH240024   4.266   2.831   2.343  0.1049 -0.3823 -0.5687
 6178TIP3    H140025   4.209   2.763   2.306 -0.6989 -0.2785  0.4412
 6178TIP3    H240026   4.355   2.802   2.321 -0.2797 -1.1166 -1.2164
 6179TIP3   OH240027   4.543   5.816   5.154  0.4430  0.1820  0.3776
 6179TIP3    H140028   4.460   5.840   5.196 -0.5470 -2.8900  0.4353
 6179TIP3    H240029   4.593   5.772   5.224  0.6439 -1.0285 -0.5005
 6180TIP3   OH240030   0.528   5.874   0.654  0.2547  0.1190 -0.1147
 6180TIP3    H140031   0.575   5.886   0.737  0.8891 -0.8656 -0.3190
 6180TIP3    H240032   0.436   5.869   0.680  0.3743  0.6865  0.4373
 6181TIP3   OH240033   6.224   3.025   0.653 -0.8356  0.1591  0.4177
 6181TIP3    H140034   6.266   3.110   0.640  0.2586 -0.4472 -0.1638
 6181TIP3    H240035   6.266   2.989   0.731  0.2550 -0.7361 -0.5467
 6182TIP3   OH240036   3.726   6.345   4.037 -0.2029  0.0772 -0.2124
 6182TIP3    H140037   3.780   6.387   3.970  0.0710  0.4591  0.2430
 6182TIP3    H240038   3.725   6.252   4.013 -0.6347  0.3086 -1.1042
 6183TIP3   OH240039   4.792   5.139   4.804 -0.5188  0.6021 -0.2327
 6183TIP3    H140040   4.756   5.061   4.763  0.7321 -0.1030 -0.0343
 6183TIP3    H240041   4.726   5.165   4.869 -0.1323 -1.3946  1.0300
 6184TIP3   OH240042   1.843   4.381   5.539 -0.2470 -0.6401  0.0129
 6184TIP3    H140043   1.783   4.360   5.467  0.4040  0.7004 -0.9625
 6184TIP3    H240044   1.877   4.468   5.518  1.9431 -1.2884  0.6098
 6185TIP3   OH240045   0.070   5.961  11.897 -0.3220 -0.3573  0.0748
 6185TIP3    H140046   0.081   6.024  11.968 -0.5404  1.8765 -1.7524
 6185TIP3    H240047   0.003   5.901  11.930 -1.4869  1.4503  1.2552
 6186TIP3   OH240048   0.394   1.224  12.814  0.3718 -0.3790 -0.4762
 6186TIP3    H140049   0.317   1.280  12.803 -0.1817 -1.5086 -2.8948
 6186TIP3    H240050   0.469   1.283  12.805 -0.1531  0.6161  1.2128
 6187TIP3   OH240051   4.764   1.702  13.807 -0.4176  1.0080 -0.0194
 6187TIP3    H140052   4.727   1.747  13.731  0.0401 -2.0561 -2.2387
 6187TIP3    H240053   4.831   1.645  13.771  0.9624  0.5816  2.9392
 6188TIP3   OH240054   3.355   2.607  15.283  0.9171 -0.6138  0.0532
 6188TIP3    H140055   3.345   2.618  15.189  0.3748  1.4173  0.2963
 6188TIP3    H240056   3.407   2.527  15.293  1.1114 -0.7824 -1.9505
 6189TIP3   OH240057   3.970   2.701  14.892  0.7716 -0.5961  0.0202
 6189TIP3    H140058   3.936   2.659  14.971 -1.6520 -1.3556 -1.3475
 6189TIP3    H240059   3.940   2.792  14.898  0.4777 -0.6864 -0.0980
 6190TIP3   OH240060   0.937   1.520   2.856  0.2991  0.1774  0.2484
 6190TIP3    H140061   0.907   1.471   2.932  1.0408 -0.6345  0.0358
 6190TIP3    H240062   1.008   1.467   2.820 -1.0990 -0.3092 -1.9748
 6191TIP3   OH240063   4.215   6.577  15.801 -0.1412 -0.1388  0.1300
 6191TIP3    H140064   4.280   6.647  15.808  0.2874 -0.4634 -0.5036
 6191TIP3    H240065   4.228   6.524  15.880  1.5349 -1.1645 -0.7755
 6192TIP3   OH240066   0.116   1.666  12.267  0.2414  0.0358  0.4705
 6192TIP3    H140067   0.029   1.674  12.307 -0.6375  0.2425 -1.3636
 6192TIP3    H240068   0.177   1.678  12.340 -1.2452 -1.8950  2.1638
 6193TIP3   OH240069   5.981   0.004  11.247 -0.3563  0.5321  0.6963
 6193TIP3    H140070   5.892  -0.007  11.214 -0.2796  0.3822  0.5357
 6193TIP3    H240071   6.028  -0.072  11.213 -0.3177  0.2840  1.2865
 6194TIP3   OH240072   1.342   0.978  17.036  0.4705  0.6476  0.5780
 6194TIP3    H140073   1.261   0.944  17.072 -1.0589  0.3547 -2.7606
 6194TIP3    H240074   1.327   1.072  17.026 -0.4238  0.3275 -1.9432
 6195TIP3   OH240075   3.814   3.254  13.177 -0.9799 -1.1109  0.7293
 6195TIP3    H140076   3.891   3.218  13.220 -0.4129 -1.2881 -0.4016
 6195TIP3    H240077   3.771   3.178  13.138  0.0151 -0.6688 -1.3463
 6196TIP3   OH240078   3.212   3.186   4.348 -0.2624  0.4099  0.9093
 6196TIP3    H140079   3.219   3.228   4.263 -1.8998  2.3034  1.6320
 6196TIP3    H240080   3.274   3.113   4.344  1.3426  1.7655 -1.0791
 6197TIP3   OH240081   1.509   6.555   2.431  0.1755 -0.1935  0.1755
 6197TIP3    H140082   1.554   6.616   2.490  1.2063 -0.8587  0.1023
 6197TIP3    H240083   1.526   6.468   2.468 -1.9832 -0.4294  0.7635
 6198TIP3   OH240084   1.841   0.244   1.411  0.0199  0.3170  0.0331
 6198TIP3    H140085   1.819   0.328   1.452 -0.0127  0.4710 -0.2930
 6198TIP3    H240086   1.762   0.218   1.364  0.5667  0.9800 -1.3187
 6199TIP3   OH240087   2.553   1.890  13.048 -0.3373  0.6478  0.1978
 6199TIP3    H140088   2.522   1.868  13.136 -2.7522  5.0655  0.7443
 6199TIP3    H240089   2.474   1.905  12.997  0.9663  1.5177 -1.7129
 6200TIP3   OH240090   2.271   5.955  17.071  0.0620 -0.2074  0.2003
 6200TIP3    H140091   2.273   5.932  17.164 -1.1610 -0.9237  0.0759
 6200TIP3    H240092   2.330   5.891  17.030 -2.5357 -2.6868 -0.0037
 6201TIP3   OH240093   5.747   2.566  12.126  0.1927 -0.2186  0.3715
 6201TIP3    H140094   5.833   2.526  12.109 -0.6154 -2.1733  0.6177
 6201TIP3    H240095   5.721   2.603  12.041 -0.3365 -2.9514 -0.7697
 6202TIP3   OH240096   5.683   0.373  16.480 -0.0058 -0.1736  0.0140
 6202TIP3    H140097   5.724   0.315  16.416 -1.6450 -1.2978 -0.0920
 6202TIP3    H240098   5.696   0.461  16.445  0.0740 -0.6937 -1.3028
 6203TIP3   OH240099   6.236   6.792   0.665  0.7021 -0.8918 -0.8555
 6203TIP3    H140100   6.190   6.817   0.585  1.1152  0.9931 -0.5467
 6203TIP3    H240101   6.329   6.807   0.645  1.1226 -3.2260 -0.9695
 6204TIP3   OH240102   2.967   4.882  12.315 -0.4345  0.1439 -0.1483
 6204TIP3    H140103   2.944   4.958  12.262 -1.4831  0.7554  1.1156
 6204TIP3    H240104   2.950   4.910  12.405  3.2426 -0.1126  0.7877
 6205TIP3   OH240105   3.884   3.714   0.170 -0.2168 -1.3502 -0.5751
 6205TIP3    H140106   3.912   3.781   0.107  1.7546 -1.1106  0.4600
 6205TIP3    H240107   3.811   3.754   0.216  1.0891  0.2889  0.2017
 6206TIP3   OH240108   1.188   0.232  13.820  0.4862 -0.8949 -0.2631
 6206TIP3    H140109   1.226   0.242  13.907 -0.9828 -0.3056  0.3366
 6206TIP3    H240110   1.183   0.320  13.784 -0.6390 -0.8978 -0.1665
 6207TIP3   OH240111   4.368   2.636  15.514  0.6610  0.2080 -0.4083
 6207TIP3    H140112   4.436   2.654  15.449  0.2691  1.3159 -0.5431
 6207TIP3    H240113   4.288   2.625  15.462  0.2528  1.5686 -0.1230
 6208TIP3   OH240114   5.245   4.693   2.905 -0.5697  0.0440  0.5251
 6208TIP3    H140115   5.199   4.751   2.966 -3.2483 -2.3220  0.9579
 6208TIP3    H240116   5.201   4.609   2.913  1.6014 -1.4821 -1.7840
 6209TIP3   OH240117   2.219   0.826  11.781  0.1301  0.2490 -0.4577
 6209TIP3    H140118   2.155   0.805  11.712  0.5393  1.1537 -1.1299
 6209TIP3    H240119   2.265   0.744  11.797 -0.8945 -0.3078 -0.2739
 6210TIP3   OH240120   4.433   2.965  15.901  0.2396  0.1619  0.5020
 6210TIP3    H140121   4.422   3.052  15.864  0.5810  0.0539  0.1357
 6210TIP3    H240122   4.353   2.950  15.951 -0.6355 -0.0133 -0.8894
 6211TIP3   OH240123   1.254   3.423   1.025  0.4053  0.4566 -0.9315
 6211TIP3    H140124   1.224   3.355   0.965  0.3244 -2.0155  1.6850
 6211TIP3    H240125   1.175   3.473   1.046  0.1047  0.2458 -1.5366
 6212TIP3   OH240126   5.118   2.274   5.523  0.0808  0.1240  0.2685
 6212TIP3    H140127   5.082   2.264   5.611  2.5211  0.4438  1.3753
 6212TIP3    H240128   5.116   2.368   5.507 -1.6357 -0.0215 -0.6595
 6213TIP3   OH240129   1.199   4.950  13.130  0.1139  0.5693  0.0330
 6213TIP3    H140130   1.115   4.985  13.159 -1.3393 -1.4797 -1.4003
 6213TIP3    H240131   1.211   4.987  13.042 -0.5740 -1.0290 -0.7739
 6214TIP3   OH240132   3.337   5.055  12.014 -0.8372 -0.2966  0.3208
 6214TIP3    H140133   3.280   5.105  11.955  2.0148  1.7208 -0.9478
 6214TIP3    H240134   3.335   5.104  12.096 -0.8267 -0.1531  0.2353
 6215TIP3   OH240135   4.872   2.086  15.559  0.3160 -0.4727 -0.1968
 6215TIP3    H140136   4.787   2.127  15.567  0.4490 -0.1746 -0.2969
 6215TIP3    H240137   4.854   2.000  15.522  0.1071 -0.2065 -0.7252
 6216TIP3   OH240138   1.636   0.893  14.759 -0.1965  0.1530 -0.8705
 6216TIP3    H140139   1.563   0.919  14.815 -0.6296  0.4872 -1.5873
 6216TIP3    H240140   1.713   0.904  14.815 -0.6840 -0.3218 -0.0654
 6217TIP3   OH240141   1.242   3.550  16.669  0.1119  0.2742 -0.5513
 6217TIP3    H140142   1.313   3.489  16.651  0.1636  0.0727  0.2929
 6217TIP3    H240143   1.222   3.537  16.762  0.1037  1.5217 -0.3673
 6218TIP3   OH240144   3.417   6.650   5.454 -0.1917  0.2388  0.4179
 6218TIP3    H140145   3.505   6.611   5.453 -0.0854  0.4844  0.2887
 6218TIP3    H240146   3.368   6.594   5.514  0.1290  0.2659  0.7085
 6219TIP3   OH240147   3.130   6.826   1.899  0.1186 -0.1580  0.2179
 6219TIP3    H140148   3.108   6.733   1.907 -0.5584  0.0277  0.5162
 6219TIP3    H240149   3.123   6.843   1.805 -0.0443 -0.3363  0.1960
 6220TIP3   OH240150   3.745   4.547   2.919  0.5075  0.1831 -0.4040
 6220TIP3    H140151   3.806   4.619   2.903  0.6893 -0.1911 -1.4820
 6220TIP3    H240152   3.664   4.574   2.875  0.4940 -0.1502 -0.5850
 6221TIP3   OH240153   5.447   1.568  10.766 -0.4969  0.5405  0.2884
 6221TIP3    H140154   5.511   1.620  10.718  1.7466 -0.0330  2.4116
 6221TIP3    H240155   5.444   1.484  10.720  0.3039  0.5923  0.1221
 6222TIP3   OH240156   5.581   5.516   2.357  0.4635  0.0658 -0.7259
 6222TIP3    H140157   5.559   5.423   2.350  0.0848  0.1202 -0.3468
 6222TIP3    H240158   5.515   5.560   2.303  0.0530  0.1771 -0.1535
 6223TIP3   OH240159   2.592   5.392   5.798 -0.1349  0.3704 -0.0875
 6223TIP3    H140160   2.587   5.446   5.878  2.5370 -0.1729  0.5274
 6223TIP3    H240161   2.682   5.359   5.797 -1.0340 -2.2918 -1.6301
 6224TIP3   OH240162   2.663   3.759   1.871 -0.5850 -0.3384  0.7329
 6224TIP3    H140163   2.743   3.812   1.868 -0.3397 -0.6864  1.0667
 6224TIP3    H240164   2.592   3.822   1.855 -0.1434 -0.3155 -1.3678
 6225TIP3   OH240165   3.129   4.368   0.547 -0.3539  0.5343  0.6606
 6225TIP3    H140166   3.080   4.296   0.507 -0.1551 -0.1309  1.5860
 6225TIP3    H240167   3.071   4.401   0.616  0.8098 -0.8876  2.4187
 6226TIP3   OH240168   5.603   0.712   5.308  0.0638 -0.4545 -0.2869
 6226TIP3    H140169   5.628   0.804   5.317  2.1325 -1.1327  2.2151
 6226TIP3    H240170   5.514   0.708   5.344  0.1090  0.5089 -0.0204
 6227TIP3   OH240171   2.871   0.003  12.069 -0.0273  0.0108  0.0150
 6227TIP3    H140172   2.820  -0.016  11.990  1.2229  0.8767 -1.0529
 6227TIP3    H240173   2.841   0.090  12.096 -0.0888 -0.0634  0.1836
 6228TIP3   OH240174   0.487   5.939   4.481  0.2307 -0.0858  0.2909
 6228TIP3    H140175   0.457   5.874   4.545 -1.0484  1.6007  1.5073
 6228TIP3    H240176   0.563   5.980   4.522 -0.5984  1.0070  0.7810
 6229TIP3   OH240177   6.737   1.978  13.179 -0.6059 -0.3201  0.0097
 6229TIP3    H140178   6.665   1.919  13.160  0.4572 -1.9746  0.8694
 6229TIP3    H240179   6.755   1.965  13.272  0.9376 -0.1285 -0.2306
 6230TIP3   OH240180   1.225   1.281   5.682 -1.1320  0.0079 -0.6176
 6230TIP3    H140181   1.252   1.280   5.774 -0.6281 -1.6339 -0.7381
 6230TIP3    H240182   1.274   1.352   5.643  1.4481 -1.4974 -0.3440
 6231TIP3   OH240183   0.363   3.645  14.031 -0.1566  0.4265  0.8550
 6231TIP3    H140184   0.395   3.719  14.082 -0.7603 -0.4161  2.5026
 6231TIP3    H240185   0.403   3.568  14.071 -0.6822 -0.2685  0.0865
 6232TIP3   OH240186   6.150   3.171   2.291 -0.1438  0.3481  0.5457
 6232TIP3    H140187   6.082   3.221   2.246 -0.6796 -1.3847 -0.6605
 6232TIP3    H240188   6.224   3.172   2.231 -0.2192 -0.4399  0.4360
 6233TIP3   OH240189   2.964   2.128   2.374 -0.4890  0.3953  0.6703
 6233TIP3    H140190   2.902   2.157   2.308 -0.5999  0.5513  0.8411
 6233TIP3    H240191   2.923   2.151   2.458  0.5623  2.0893  0.7706
 6234TIP3   OH240192   6.006   0.253   5.447  0.0168 -0.2578  0.2671
 6234TIP3    H140193   6.046   0.204   5.375 -0.9477  1.9450 -1.9346
 6234TIP3    H240194   5.915   0.224   5.448 -0.3562  0.8262 -0.4979
 6235TIP3   OH240195   3.030   0.328   0.013 -0.8169  0.2731 -0.0599
 6235TIP3    H140196   3.123   0.348   0.019 -0.8583  0.5152 -0.2135
 6235TIP3    H240197   3.026   0.233   0.001 -0.5615  0.3495 -0.7964
 6236TIP3   OH240198   1.490   2.899  12.224  0.2972  0.2213  0.0190
 6236TIP3    H140199   1.481   2.982  12.178 -1.0724  0.5960  0.8886
 6236TIP3    H240200   1.401   2.873  12.245  0.6403 -1.8438 -0.8162
 6237TIP3   OH240201   0.816   3.434  15.102  0.0852 -0.0621 -0.3800
 6237TIP3    H140202   0.723   3.415  15.109  0.2694 -0.6433  0.7991
 6237TIP3    H240203   0.824   3.528  15.114 -0.3989  0.0716 -1.0929
 6238TIP3   OH240204   5.133   5.822   0.934 -0.5640  0.3086 -0.4110
 6238TIP3    H140205   5.213   5.866   0.962 -0.2813 -0.6465  0.3060
 6238TIP3    H240206   5.062   5.878   0.966 -0.2011  0.5300  0.0034
 6239TIP3   OH240207   2.790   3.954   0.512  0.1151 -0.5068 -0.1594
 6239TIP3    H140208   2.726   3.950   0.441 -0.2122  0.8596  0.0368
 6239TIP3    H240209   2.820   3.863   0.523 -0.8518 -0.9531 -1.0968
 6240TIP3   OH240210   0.095   0.129  14.261  0.1495  0.1078 -0.1310
 6240TIP3    H140211   0.083   0.199  14.198 -1.6694 -0.1556 -0.1372
 6240TIP3    H240212   0.051   0.053  14.221 -0.3450 -0.2722  1.0805
 6241TIP3   OH240213   0.086   1.130  16.888 -0.3510  0.0137 -0.1321
 6241TIP3    H140214  -0.003   1.099  16.901 -0.9923  1.8247  0.0048
 6241TIP3    H240215   0.084   1.223  16.912  1.5103  0.1663 -0.3685
 6242TIP3   OH240216   2.484   6.463  15.304  0.1467  0.1761  0.1189
 6242TIP3    H140217   2.400   6.456  15.259 -0.6107  1.5286  1.2346
 6242TIP3    H240218   2.480   6.398  15.374 -0.9722  1.7207  1.5857
 6243TIP3   OH240219   6.457   2.518  15.435  0.1055  0.1211  0.4268
 6243TIP3    H140220   6.469   2.435  15.480  0.6222  0.2297  0.4910
 6243TIP3    H240221   6.470   2.585  15.502  3.2059  0.3723 -0.2902
 6244TIP3   OH240222   4.722   6.347   3.687 -0.3632  0.2147  0.2600
 6244TIP3    H140223   4.812   6.341   3.657 -0.4423 -2.0176  0.3108
 6244TIP3    H240224   4.696   6.437   3.668  1.2590  0.3742 -1.4786
 6245TIP3   OH240225   0.766   4.032   1.061 -0.0916  0.2171  0.1377
 6245TIP3    H140226   0.783   4.114   1.016 -0.8338  0.6166  0.5631
 6245TIP3    H240227   0.830   3.971   1.025  0.8012  1.1043  0.1836
 6246TIP3   OH240228   2.086   4.727  14.322  0.3068 -0.3907 -0.4759
 6246TIP3    H140229   2.141   4.802  14.302 -0.1235  1.0268  2.8749
 6246TIP3    H240230   2.141   4.670  14.376 -0.5985 -0.4022  0.4656
 6247TIP3   OH240231   6.172   6.722  13.515  0.3375  0.5413  0.0570
 6247TIP3    H140232   6.245   6.752  13.462  1.5286  2.4070  2.5464
 6247TIP3    H240233   6.102   6.784  13.496 -0.2214 -0.4356 -1.2913
 6248TIP3   OH240234   2.664   4.629  16.657  0.0833  1.0086  0.3929
 6248TIP3    H140235   2.600   4.572  16.699 -0.5149  1.9616  0.8150
 6248TIP3    H240236   2.719   4.570  16.605 -1.6257  0.2504 -0.6223
 6249TIP3   OH240237   6.212   1.011   6.252 -0.0920 -0.0433 -0.4127
 6249TIP3    H140238   6.252   1.097   6.235  1.2682 -0.5904 -0.1387
 6249TIP3    H240239   6.152   1.027   6.325 -0.7730  0.9020 -1.1374
 6250TIP3   OH240240   0.547   0.723   6.174 -0.1190 -0.5122  0.3688
 6250TIP3    H140241   0.600   0.652   6.137  1.1700  1.6583 -2.3195
 6250TIP3    H240242   0.577   0.801   6.128 -1.2665  1.8843  3.3837
 6251TIP3   OH240243   6.262   4.247  13.854 -0.2200 -0.7379 -0.4990
 6251TIP3    H140244   6.184   4.267  13.905 -0.8022 -1.4570 -1.0841
 6251TIP3    H240245   6.247   4.289  13.769 -0.3660 -1.5626 -0.9002
 6252TIP3   OH240246   2.465   3.958   1.902 -0.3628 -0.0010 -0.8200
 6252TIP3    H140247   2.465   3.990   1.812  0.0991 -0.9653 -1.1709
 6252TIP3    H240248   2.502   4.031   1.953 -0.7068  0.5788 -1.3891
 6253TIP3   OH240249   3.090   0.984   0.806 -0.0673 -0.4103  0.2158
 6253TIP3    H140250   3.144   0.905   0.809 -0.6506 -0.8005  1.4558
 6253TIP3    H240251   3.037   0.979   0.886 -1.0477  0.5766 -0.3438
 6254TIP3   OH240252   4.248   3.654   3.117 -0.7340 -0.4549  0.2299
 6254TIP3    H140253   4.251   3.650   3.022  0.7722 -0.2858  0.2380
 6254TIP3    H240254   4.249   3.562   3.145  0.5716 -0.5020  0.0836
 6255TIP3   OH240255   2.075   0.562   5.992  0.7993 -0.6607 -0.9509
 6255TIP3    H140256   2.106   0.509   5.919 -1.2487 -0.7052 -1.8491
 6255TIP3    H240257   2.152   0.610   6.021  1.8107 -1.1310 -2.7139
 6256TIP3   OH240258   4.589   0.912  13.166 -0.3274  0.2490 -0.1501
 6256TIP3    H140259   4.568   0.967  13.090 -0.5392  0.8046  0.3085
 6256TIP3    H240260   4.564   0.824  13.138  1.1008  0.1762 -1.3227
 6257TIP3   OH240261   3.271   3.605  16.144 -0.4803 -0.0310  0.6726
 6257TIP3    H140262   3.180   3.620  16.121 -0.4852  0.5295  1.0403
 6257TIP3    H240263   3.318   3.678  16.104 -0.3756  0.4470  1.6388
 6258TIP3   OH240264   6.515   1.446  16.666  0.3557 -0.8604  0.1444
 6258TIP3    H140265   6.514   1.523  16.724 -0.8555 -0.6883 -0.0824
 6258TIP3    H240266   6.604   1.410  16.676  0.8958  0.4658  0.3768
 6259TIP3   OH240267   2.366   0.778   4.845 -0.0318  0.4736  0.6486
 6259TIP3    H140268   2.397   0.828   4.921 -2.2236 -0.0120  1.9367
 6259TIP3    H240269   2.274   0.801   4.836  0.0269  0.0694 -1.5518
 6260TIP3   OH240270   0.291   6.720  12.061 -0.0571 -0.1806 -0.2177
 6260TIP3    H140271   0.224   6.770  12.108  0.1470  0.3478 -0.4717
 6260TIP3    H240272   0.305   6.769  11.980 -0.7135 -1.3166 -1.0459
 6261TIP3   OH240273   2.750   3.350  15.728  0.5879  0.0176 -0.6874
 6261TIP3    H140274   2.737   3.280  15.792  0.4161  1.6570  1.1652
 6261TIP3    H240275   2.713   3.315  15.647 -0.8425 -1.4689  0.5235
 6262TIP3   OH240276   1.948   1.118  14.205 -0.3608 -0.5639 -0.2435
 6262TIP3    H140277   2.018   1.180  14.183 -1.3037  0.2281 -1.1451
 6262TIP3    H240278   1.938   1.126  14.300  2.1337 -2.2200  0.2487
 6263TIP3   OH240279   2.453   1.784   4.648  0.5119 -0.2571 -0.5148
 6263TIP3    H140280   2.479   1.696   4.623  0.0849 -0.4861 -0.1514
 6263TIP3    H240281   2.369   1.799   4.604  0.4523 -0.1340 -0.3631
 6264TIP3   OH240282   1.214   2.294   0.776 -0.1005 -0.2966 -0.3425
 6264TIP3    H140283   1.174   2.305   0.863  0.6214  1.2332 -0.1751
 6264TIP3    H240284   1.149   2.328   0.715  0.3243  0.8086 -0.1931
 6265TIP3   OH240285   3.747   3.370  15.301  0.4799 -0.3492  0.2284
 6265TIP3    H140286   3.652   3.372  15.284  0.8159  0.0630 -1.9616
 6265TIP3    H240287   3.756   3.405  15.390 -1.4685 -1.2123  0.8252
 6266TIP3   OH240288   1.260   1.798  15.938 -0.1252 -0.5503 -0.2927
 6266TIP3    H140289   1.275   1.708  15.910  0.5575 -1.1255  1.7842
 6266TIP3    H240290   1.255   1.794  16.033  0.0982  1.6374 -0.1303
 6267TIP3   OH240291   6.505   4.858   5.375 -0.1756  0.0913 -0.6048
 6267TIP3    H140292   6.455   4.777   5.365  1.3320 -0.5932 -4.1221
 6267TIP3    H240293   6.583   4.833   5.424 -0.2482 -0.3308 -0.7072
 6268TIP3   OH240294   5.322   5.996  12.001  0.1836  0.4197  0.0907
 6268TIP3    H140295   5.363   6.078  12.028 -0.4671  1.0411 -0.7713
 6268TIP3    H240296   5.351   5.982  11.911 -0.7760  0.4121 -0.2281
 6269TIP3   OH240297   2.660   5.125  15.256  0.7207  0.5059 -0.5669
 6269TIP3    H140298   2.594   5.085  15.313 -0.1265  0.6321 -1.4250
 6269TIP3    H240299   2.732   5.063  15.255  0.1999 -0.1114 -0.4119
 6270TIP3   OH240300   5.819   0.298   3.166 -0.3298 -0.6240  0.4570
 6270TIP3    H140301   5.826   0.391   3.187 -0.8025 -0.6182  0.5978
 6270TIP3    H240302   5.846   0.252   3.245  1.1967 -0.6189 -0.0385
 6271TIP3   OH240303   4.715   1.107  13.618 -0.0113  0.2838  0.3258
 6271TIP3    H140304   4.718   1.021  13.575  0.5688 -0.3849  1.6365
 6271TIP3    H240305   4.688   1.167  13.549  1.1403 -0.6979 -1.0511
 6272TIP3   OH240306   4.458   5.800  12.952  0.1853 -0.6655 -0.2972
 6272TIP3    H140307   4.551   5.793  12.972  0.3491  1.4843 -0.0658
 6272TIP3    H240308   4.455   5.845  12.867 -0.6210  0.5648  0.3562
 6273TIP3   OH240309   1.827   3.100  15.909  0.5557  0.3799  0.5210
 6273TIP3    H140310   1.732   3.087  15.906  0.6117  0.1151 -0.1869
 6273TIP3    H240311   1.862   3.030  15.855  1.2355 -0.2735  1.7610
 6274TIP3   OH240312   1.907   3.863   1.359 -0.1247 -0.7356 -0.0531
 6274TIP3    H140313   1.870   3.881   1.272  0.1147 -0.4750 -0.1038
 6274TIP3    H240314   1.966   3.789   1.345 -1.0847 -1.5571  0.1483
 6275TIP3   OH240315   1.930   4.002  12.172 -0.4703  0.0818  0.2415
 6275TIP3    H140316   1.939   4.041  12.085  1.3909  0.3463  0.5137
 6275TIP3    H240317   1.942   4.075  12.233 -0.2836 -0.3397  0.7202
 6276TIP3   OH240318   5.589   5.309   1.949 -0.2144  0.5128  0.4313
 6276TIP3    H140319   5.549   5.288   2.033 -1.4467  2.6025  0.4294
 6276TIP3    H240320   5.604   5.403   1.952 -2.8096  1.2036 -2.6439
 6277TIP3   OH240321   1.780   3.974   3.783  0.7079  0.1023  0.2048
 6277TIP3    H140322   1.785   3.986   3.688  0.0118 -1.2145 -0.0174
 6277TIP3    H240323   1.687   3.962   3.801  1.0959 -4.0138  0.4204
 6278TIP3   OH240324   1.024   0.041  12.344 -0.1847 -0.2227  0.0285
 6278TIP3    H140325   1.074   0.108  12.391 -0.6633 -0.4845  0.9286
 6278TIP3    H240326   0.934   0.052  12.374 -0.3986 -0.7802 -0.3927
 6279TIP3   OH240327   5.124   3.143  10.899 -0.4272  0.2290 -0.5498
 6279TIP3    H140328   5.109   3.139  10.994 -1.4199  0.7641 -0.6701
 6279TIP3    H240329   5.156   3.056  10.876 -0.1038  0.1178  0.2852
 6280TIP3   OH240330   2.845   3.389  16.961  0.1198 -0.5003  0.0922
 6280TIP3    H140331   2.908   3.461  16.958  0.2243 -0.6158 -1.0413
 6280TIP3    H240332   2.768   3.422  16.915 -0.4790 -0.5315  1.0441
 6281TIP3   OH240333   4.074   1.293   0.059 -0.5721 -0.2139  0.1491
 6281TIP3    H140334   4.044   1.336   0.139 -0.8029  2.8477 -1.4642
 6281TIP3    H240335   4.031   1.340  -0.012  1.9789 -0.7925 -1.9307
 6282TIP3   OH240336   1.462   0.424  11.052  0.3439  0.4323  0.1441
 6282TIP3    H140337   1.398   0.463  10.993 -0.8640 -1.4119  0.1469
 6282TIP3    H240338   1.420   0.424  11.138  1.0725  0.7903  0.5112
 6283TIP3   OH240339   4.264   2.846   5.333 -0.1054 -0.3073 -0.3294
 6283TIP3    H140340   4.258   2.903   5.410  1.6983  0.4783 -0.7058
 6283TIP3    H240341   4.347   2.800   5.344 -1.7477 -3.4141  0.2352
 6284TIP3   OH240342   0.726   5.815  11.626 -0.7869  0.3055 -0.1193
 6284TIP3    H140343   0.820   5.824  11.610 -0.1828 -2.4843  1.1598
 6284TIP3    H240344   0.717   5.827  11.721 -1.8419  1.0305 -0.2914
 6285TIP3   OH240345   6.691   4.614   0.326 -0.1794  0.7873 -0.0832
 6285TIP3    H140346   6.710   4.642   0.415  0.7289  0.1048 -0.0533
 6285TIP3    H240347   6.726   4.525   0.320 -1.4315  0.3000 -0.7163
 6286TIP3   OH240348   1.260   0.351   3.135  0.1059 -0.1210  0.0147
 6286TIP3    H140349   1.340   0.392   3.169  0.6152 -1.4530  0.4872
 6286TIP3    H240350   1.193   0.420   3.141  0.6850  0.3391  1.7029
 6287TIP3   OH240351   1.612   4.909   2.941 -0.0580 -0.2469 -0.2905
 6287TIP3    H140352   1.615   4.818   2.915 -0.9138 -0.3313 -0.1099
 6287TIP3    H240353   1.533   4.944   2.900 -0.6544 -0.0275  0.9906
 6288TIP3   OH240354   1.410   6.521   3.973  0.1615  1.0086 -0.0342
 6288TIP3    H140355   1.348   6.594   3.977  0.9667  1.6334  2.1842
 6288TIP3    H240356   1.368   6.451   4.022 -0.2150  0.2387 -1.4001
 6289TIP3   OH240357   5.262   0.761   5.285 -0.1229  0.1597 -0.3393
 6289TIP3    H140358   5.257   0.764   5.381  2.1289 -1.5308 -0.0896
 6289TIP3    H240359   5.235   0.672   5.263  0.6430  0.1247 -1.1618
 6290TIP3   OH240360   1.000   6.311   4.085  0.7612 -0.0350  0.4035
 6290TIP3    H140361   0.965   6.319   4.173 -1.9145  1.4586 -0.6887
 6290TIP3    H240362   1.005   6.400   4.052  4.5491 -0.2487 -0.0668
 6291TIP3   OH240363   6.034   6.070  13.385 -0.3897  0.7045 -0.3384
 6291TIP3    H140364   6.009   6.029  13.467  1.4340 -0.7996 -0.4888
 6291TIP3    H240365   6.125   6.045  13.371 -0.8990  0.1192 -3.2911
 6292TIP3   OH240366   0.476   4.039   2.849  0.4263 -0.0341 -0.1700
 6292TIP3    H140367   0.516   4.088   2.777 -0.8416 -0.9198 -1.5490
 6292TIP3    H240368   0.454   4.105   2.914  0.9069  0.9164 -0.9436
 6293TIP3   OH240369   3.674   4.780  10.925  0.4665 -0.6596 -0.2921
 6293TIP3    H140370   3.634   4.764  11.011 -0.5629  3.6271  0.2896
 6293TIP3    H240371   3.761   4.813  10.946 -0.5030  2.3857 -0.5783
 6294TIP3   OH240372   6.221   4.144   0.537 -0.3851  0.2234  0.2471
 6294TIP3    H140373   6.169   4.094   0.600 -0.2844  1.6640  1.5353
 6294TIP3    H240374   6.304   4.161   0.582 -0.5169  1.7438 -0.0225
 6295TIP3   OH240375   5.964   2.904  14.223 -0.2593  0.2070  0.2332
 6295TIP3    H140376   6.034   2.838  14.229  0.3970  0.8241 -0.5202
 6295TIP3    H240377   5.939   2.904  14.131 -1.2867 -0.0229  0.5006
 6296TIP3   OH240378   3.467   5.741   0.437  0.4693 -0.0852  0.1807
 6296TIP3    H140379   3.496   5.831   0.453  0.2120 -0.3864  2.8074
 6296TIP3    H240380   3.371   5.747   0.438  0.4455 -0.2777 -0.4843
 6297TIP3   OH240381   0.239   1.449   4.102  0.2812  0.1249  0.1924
 6297TIP3    H140382   0.206   1.538   4.092  1.9170  1.0257  2.0958
 6297TIP3    H240383   0.200   1.417   4.183  0.0918 -0.7149 -0.2177
 6298TIP3   OH240384   2.768   2.418   1.391 -0.6190 -0.4334 -0.5065
 6298TIP3    H140385   2.696   2.365   1.426 -0.7859  0.6349  0.8320
 6298TIP3    H240386   2.725   2.496   1.354 -0.2357 -0.3345 -0.7562
 6299TIP3   OH240387   5.276   4.243   0.299 -0.7163  0.0141 -0.5411
 6299TIP3    H140388   5.329   4.320   0.320 -0.6224 -0.1110 -0.3164
 6299TIP3    H240389   5.308   4.175   0.359 -2.1726  0.3489  0.6607
 6300TIP3   OH240390   0.942   1.067  13.851  0.3164 -0.2871 -0.4840
 6300TIP3    H140391   1.037   1.077  13.848  0.3628  2.4192  3.1941
 6300TIP3    H240392   0.928   0.984  13.896  1.0188 -0.0389  0.2169
 6301TIP3   OH240393   1.591   3.506  16.402  0.0053  0.0232  0.7715
 6301TIP3    H140394   1.646   3.429  16.386 -0.9203 -0.4571 -0.2315
 6301TIP3    H240395   1.548   3.523  16.318 -2.1786 -0.2669  1.7570
 6302TIP3   OH240396   2.237   6.534  15.197  0.6779  0.1156  0.0787
 6302TIP3    H140397   2.273   6.518  15.110  0.6804 -1.9427  0.4203
 6302TIP3    H240398   2.143   6.522  15.186  0.4217  1.9058 -0.0343
 6303TIP3   OH240399   0.687   3.726  15.422 -0.6305 -0.5627 -0.0048
 6303TIP3    H140400   0.736   3.649  15.452 -0.6473 -0.9951 -1.0676
 6303TIP3    H240401   0.721   3.798  15.477 -0.7546 -1.3367  1.1279
 6304TIP3   OH240402   0.219   0.683  15.093  0.4776 -0.1428 -0.0173
 6304TIP3    H140403   0.198   0.769  15.127 -0.3871  0.9102 -2.8658
 6304TIP3    H240404   0.312   0.671  15.111  0.5964  1.3605  0.4640
 6305TIP3   OH240405   0.391   4.451  11.092  0.2459 -0.0016 -0.4442
 6305TIP3    H140406   0.342   4.525  11.128 -1.6014 -0.0754 -2.5377
 6305TIP3    H240407   0.437   4.488  11.016  0.2938 -0.7330 -0.7821
 6306TIP3   OH240408   6.091   5.113  15.477 -0.1747  0.0495 -0.0514
 6306TIP3    H140409   6.076   5.206  15.463 -0.3156  0.1719  0.8831
 6306TIP3    H240410   6.025   5.070  15.422  0.5807  0.4608 -1.3253
 6307TIP3   OH240411   4.115   3.081   3.283 -0.5068  0.3962 -0.4052
 6307TIP3    H140412   4.077   3.107   3.367  1.0972  2.5194 -0.2288
 6307TIP3    H240413   4.041   3.049   3.232 -1.5658 -0.7638  1.7197
 6308TIP3   OH240414   2.273   5.355  12.839 -0.5644 -0.4967 -0.5861
 6308TIP3    H140415   2.216   5.432  12.839 -0.7725 -0.6488 -0.1477
 6308TIP3    H240416   2.305   5.349  12.749 -0.3773  0.2308 -0.5740
 6309TIP3   OH240417   3.211   0.221  16.411  0.6685  0.1534 -0.2103
 6309TIP3    H140418   3.223   0.257  16.499  1.3282 -0.2982 -0.1003
 6309TIP3    H240419   3.286   0.162  16.400  0.0931 -0.4982 -0.7170
 6310TIP3   OH240420   3.427   5.466  12.190  0.3677  0.2437 -0.2134
 6310TIP3    H140421   3.478   5.393  12.154 -0.2914  0.2670 -1.2236
 6310TIP3    H240422   3.357   5.424  12.239  2.0878  0.1845  2.4202
 6311TIP3   OH240423   5.239   4.089   5.881  0.0573  0.7210  0.0099
 6311TIP3    H140424   5.316   4.088   5.936 -0.0869  0.9392  0.2188
 6311TIP3    H240425   5.167   4.110   5.940 -0.1634  0.5158 -0.1818
 6312TIP3   OH240426   2.567   6.049   0.764  0.2417  0.8809 -0.1173
 6312TIP3    H140427   2.495   6.048   0.826 -0.0954 -0.0574 -0.5012
 6312TIP3    H240428   2.534   6.099   0.689 -0.2558 -0.0603 -0.5492
 6313TIP3   OH240429   6.822   2.042  14.469 -0.1252  0.4795  0.6192
 6313TIP3    H140430   6.763   2.114  14.490  0.5988  1.3819 -0.3863
 6313TIP3    H240431   6.903   2.062  14.517 -0.0147  0.1870  0.5577
 6314TIP3   OH240432   3.807   4.341  16.463 -0.6133 -0.2899 -0.1034
 6314TIP3    H140433   3.774   4.299  16.383 -0.5099 -2.4752  0.9182
 6314TIP3    H240434   3.865   4.276  16.502 -0.3528  0.8763  1.5559
 6315TIP3   OH240435   2.829   6.621  13.678 -0.0172 -0.1982  0.2658
 6315TIP3    H140436   2.917   6.587  13.663 -0.2431 -0.0922 -1.5271
 6315TIP3    H240437   2.835   6.714  13.658 -0.0007  0.3358  2.5684
 6316TIP3   OH240438   4.327   6.628   0.096  0.0233 -0.4334 -0.1604
 6316TIP3    H140439   4.300   6.688   0.026  0.6535  1.9672  1.4932
 6316TIP3    H240440   4.422   6.640   0.101  0.3827 -2.6750 -0.6495
 6317TIP3   OH240441   5.251   0.559  12.853  0.7023 -0.2555  0.3172
 6317TIP3    H140442   5.269   0.602  12.770  0.8963  0.0876  0.5352
 6317TIP3    H240443   5.247   0.630  12.917 -0.6539 -0.3895  0.4133
 6318TIP3   OH240444   2.899   5.813   0.164  0.1407  0.0442  0.1215
 6318TIP3    H140445   2.970   5.831   0.103  1.6847 -2.1140  1.1506
 6318TIP3    H240446   2.908   5.880   0.232  0.9887  0.0053  0.0545
 6319TIP3   OH240447   2.536   3.275  11.895  0.7418 -0.9707  0.0667
 6319TIP3    H140448   2.629   3.299  11.896  0.4523  0.2758 -1.0670
 6319TIP3    H240449   2.502   3.308  11.978  0.8348  0.6692 -0.5136
 6320TIP3   OH240450   2.746   4.553  14.577  0.4651  0.4002  0.5567
 6320TIP3    H140451   2.679   4.543  14.645 -0.1969  1.5516  0.1198
 6320TIP3    H240452   2.772   4.464  14.555 -0.6540 -0.0628  1.0212
 6321TIP3   OH240453   3.282   2.440  16.517  0.2270  0.0677 -0.5789
 6321TIP3    H140454   3.365   2.393  16.518  0.5546  0.6335  0.7856
 6321TIP3    H240455   3.243   2.421  16.602 -0.0616  1.4969 -0.3747
 6322TIP3   OH240456   6.445   5.265   5.943 -0.2277 -0.3451  0.6191
 6322TIP3    H140457   6.445   5.337   5.881  0.1864 -0.2097  0.7707
 6322TIP3    H240458   6.361   5.222   5.930 -0.5074  0.2081  0.5805
 6323TIP3   OH240459   0.673   1.191   3.326  1.0928  0.2987 -0.2472
 6323TIP3    H140460   0.617   1.265   3.303 -1.0338 -0.9699  0.5550
 6323TIP3    H240461   0.761   1.218   3.301  0.2697  2.7718 -0.6789
 6324TIP3   OH240462   4.199   3.941  16.150  0.4803 -0.0597  0.1710
 6324TIP3    H140463   4.187   3.978  16.238  0.6587  0.1339  0.1151
 6324TIP3    H240464   4.171   4.011  16.091  1.9525  0.4507  0.0356
 6325TIP3   OH240465   1.550   1.952  15.844  0.3709  0.3203 -0.1267
 6325TIP3    H140466   1.559   2.046  15.858 -1.4641  0.3857  0.8885
 6325TIP3    H240467   1.480   1.944  15.779 -1.2774 -0.3503  1.6337
 6326TIP3   OH240468   5.616   6.439  15.299  0.0560 -0.0325 -0.1373
 6326TIP3    H140469   5.639   6.411  15.387 -0.1432 -2.6420 -0.8366
 6326TIP3    H240470   5.588   6.359  15.254 -1.0906  1.4164 -2.1970
 6327TIP3   OH240471   2.072   3.440  15.707  0.6031  0.3475  0.4849
 6327TIP3    H140472   2.128   3.364  15.723 -0.7382 -0.5570  1.0262
 6327TIP3    H240473   2.124   3.495  15.649  2.0772 -0.4247  1.0078
 6328TIP3   OH240474   6.250   0.202   1.381 -0.0971  0.3743 -0.2375
 6328TIP3    H140475   6.259   0.147   1.303  1.7694  1.2885 -0.7171
 6328TIP3    H240476   6.183   0.158   1.433  0.4032 -1.6452 -1.1929
 6329TIP3   OH240477   3.521   4.602   2.769 -0.2579  0.8251 -0.6842
 6329TIP3    H140478   3.486   4.692   2.764 -0.9231  0.6736  0.6838
 6329TIP3    H240479   3.532   4.576   2.677  0.0912  2.3513 -1.1101
 6330TIP3   OH240480   4.453   6.352   1.847  0.3257  0.7993 -0.3559
 6330TIP3    H140481   4.481   6.337   1.756 -0.3835  1.7289 -0.7498
 6330TIP3    H240482   4.360   6.375   1.840 -0.2222 -0.9175  0.7937
 6331TIP3   OH240483   1.707   6.636   2.666  0.3868  0.5861  0.1876
 6331TIP3    H140484   1.658   6.618   2.747  0.5016  0.1367  0.1620
 6331TIP3    H240485   1.708   6.731   2.659  0.6990  0.6372  0.9170
 6332TIP3   OH240486   1.583   2.815  12.716  0.0444 -0.7461 -0.2642
 6332TIP3    H140487   1.507   2.868  12.693  0.3435 -0.1307  0.1272
 6332TIP3    H240488   1.582   2.742  12.654  0.1791  0.2386 -1.4464
 6333TIP3   OH240489   1.385   3.433   2.999  0.3601 -0.4926 -0.0262
 6333TIP3    H140490   1.341   3.391   2.926  0.0645  1.0698 -0.7836
 6333TIP3    H240491   1.315   3.460   3.058  0.6079 -1.9901  1.0230
 6334TIP3   OH240492   3.491   1.866   2.480  0.2421 -0.4155 -0.0954
 6334TIP3    H140493   3.578   1.827   2.479 -0.0558 -1.1124  0.0153
 6334TIP3    H240494   3.450   1.831   2.559  0.9196  2.3557  1.6083
 6335TIP3   OH240495   6.790   0.946   2.729  0.2233 -0.2425 -0.1843
 6335TIP3    H140496   6.711   0.910   2.769  1.1290  1.1845  3.2969
 6335TIP3    H240497   6.762   1.031   2.695  0.1054  0.0399  0.5886
 6336TIP3   OH240498   1.220   4.178  13.606  0.6685 -0.9012 -0.4689
 6336TIP3    H140499   1.255   4.209  13.689 -1.9879 -2.7879  1.5126
 6336TIP3    H240500   1.274   4.102  13.584 -0.0626 -1.8443  0.8578
 6337TIP3   OH240501   2.318   5.283   1.803 -0.7102 -0.3397  0.5349
 6337TIP3    H140502   2.282   5.362   1.764 -2.5481 -2.3027 -2.1775
 6337TIP3    H240503   2.279   5.278   1.890 -2.0159  0.8372  0.0478
 6338TIP3   OH240504   5.755   2.818  11.602  0.5726  0.2072  0.3601
 6338TIP3    H140505   5.829   2.858  11.648  0.4774  0.3629  0.3793
 6338TIP3    H240506   5.767   2.846  11.511  0.6494  0.0641  0.3253
 6339TIP3   OH240507   0.813   5.270   2.668  0.1003  0.1799 -0.4476
 6339TIP3    H140508   0.870   5.308   2.735 -1.2461  1.4399  0.0200
 6339TIP3    H240509   0.757   5.342   2.640 -1.5872 -1.1121 -0.5589
 6340TIP3   OH240510   6.263   0.786  13.730  0.1025  0.0054  0.4036
 6340TIP3    H140511   6.189   0.833  13.691 -1.1614 -0.4801  2.1149
 6340TIP3    H240512   6.334   0.850  13.731 -0.7012  0.9322  0.0040
 6341TIP3   OH240513   5.515   5.142   6.469  0.2555 -0.2277 -0.5871
 6341TIP3    H140514   5.430   5.100   6.452  0.2509 -0.6896  0.4915
 6341TIP3    H240515   5.569   5.073   6.508  0.8023  0.3185 -0.3538
 6342TIP3   OH240516   4.994   2.837  11.842 -0.0269  0.2228  0.3429
 6342TIP3    H140517   5.083   2.871  11.838 -0.1537  0.4962 -0.2048
 6342TIP3    H240518   4.966   2.852  11.933 -0.1180  1.6852  0.1004
 6343TIP3   OH240519   2.886   4.524   4.054 -0.1399  0.0723 -0.3017
 6343TIP3    H140520   2.830   4.456   4.092  0.9008 -0.0266  1.1205
 6343TIP3    H240521   2.848   4.540   3.967 -3.0491  0.8076  0.9550
 6344TIP3   OH240522   3.949   4.583  12.206  0.3126  0.4403  0.1968
 6344TIP3    H140523   3.946   4.659  12.147  1.4762  0.7733  0.5343
 6344TIP3    H240524   3.859   4.553  12.211 -0.0132  1.2015 -0.7291
 6345TIP3   OH240525   4.393   2.140   5.424 -0.2502 -0.5696 -0.0666
 6345TIP3    H140526   4.478   2.114   5.390 -1.0717 -1.2619 -1.7032
 6345TIP3    H240527   4.376   2.226   5.385 -0.5400 -0.6756 -0.1741
 6346TIP3   OH240528   3.976   2.613  10.717  0.1843 -0.0572 -0.0407
 6346TIP3    H140529   4.070   2.629  10.715  0.4383 -0.5591  3.0093
 6346TIP3    H240530   3.961   2.546  10.651  2.0316 -0.2538 -0.3073
 6347TIP3   OH240531   6.746   2.255   4.295  0.4269 -0.4361  0.5225
 6347TIP3    H140532   6.804   2.221   4.227  0.2366 -2.8362  1.4543
 6347TIP3    H240533   6.748   2.189   4.364 -2.6850 -0.2279  0.9898
 6348TIP3   OH240534   6.794   2.419   2.705 -0.0692 -0.0025  0.1103
 6348TIP3    H140535   6.843   2.405   2.625 -1.1047 -0.7238 -0.4122
 6348TIP3    H240536   6.753   2.505   2.694 -0.7533 -0.3923 -0.4319
 6349TIP3   OH240537   0.664   5.530  15.104 -0.0839  0.5633  0.5325
 6349TIP3    H140538   0.654   5.462  15.171  0.4516  1.8379  1.9629
 6349TIP3    H240539   0.680   5.610  15.154  0.2124  1.5821 -1.1365
 6350TIP3   OH240540   6.757   0.038  12.396  0.1624 -0.1556  0.9556
 6350TIP3    H140541   6.726  -0.051  12.382  0.2996  0.2301 -2.8968
 6350TIP3    H240542   6.692   0.078  12.453 -0.4842 -2.3920  1.8581
 6351TIP3   OH240543   4.402   3.972  17.142 -0.0156 -0.4621  0.1166
 6351TIP3    H140544   4.471   4.010  17.088 -0.4922 -0.4618 -0.4969
 6351TIP3    H240545   4.372   4.045  17.196  0.3646 -0.4323  0.2979
 6352TIP3   OH240546   4.215   3.981   4.129  0.0287  0.8586  0.2946
 6352TIP3    H140547   4.129   3.962   4.089  0.4177  1.2944 -0.7868
 6352TIP3    H240548   4.195   3.993   4.222 -1.2217  1.7813 -0.0595
 6353TIP3   OH240549   4.730   1.238  11.730  0.1975  0.3835  0.2532
 6353TIP3    H140550   4.678   1.199  11.800  2.9725  0.5187  2.5831
 6353TIP3    H240551   4.715   1.182  11.654 -1.1312 -1.1693  1.5804
 6354TIP3   OH240552   3.194   2.708   4.310 -0.2105 -0.3989 -0.2459
 6354TIP3    H140553   3.257   2.638   4.291  0.5932  0.1189  0.4241
 6354TIP3    H240554   3.161   2.735   4.225 -1.2408 -2.2013 -0.4908
 6355TIP3   OH240555   2.637   5.067   5.619  0.1309  0.2076 -0.0724
 6355TIP3    H140556   2.634   5.146   5.567 -1.5839  0.1574 -0.1273
 6355TIP3    H240557   2.702   5.085   5.687 -0.4961  1.8243  0.1505
 6356TIP3   OH240558   6.071   2.809   1.811 -0.7773  0.1559  0.0712
 6356TIP3    H140559   5.986   2.819   1.768 -1.7258  0.7062  1.9420
 6356TIP3    H240560   6.095   2.898   1.837  0.3644 -0.0045 -0.4069
 6357TIP3   OH240561   6.451   0.821  16.271  0.2949 -0.5372 -0.7775
 6357TIP3    H140562   6.513   0.810  16.344  0.4228  0.2953 -0.7505
 6357TIP3    H240563   6.432   0.915  16.270 -0.3995 -0.6796 -1.2587
 6358TIP3   OH240564   3.090   1.387  15.709  0.1770  0.0861  0.3741
 6358TIP3    H140565   3.145   1.311  15.689 -0.2229  0.4591 -2.4476
 6358TIP3    H240566   3.003   1.363  15.677 -1.1010  0.0449  3.5317
 6359TIP3   OH240567   2.100   3.184   5.698 -0.2419 -0.0774 -0.2269
 6359TIP3    H140568   2.057   3.204   5.782  1.1782  0.4961  0.3995
 6359TIP3    H240569   2.145   3.266   5.675  0.1947 -0.5457 -1.0433
 6360TIP3   OH240570   5.076   0.629  10.648 -0.2905  0.3249 -0.0500
 6360TIP3    H140571   5.071   0.720  10.676  0.5399  1.1794 -2.4991
 6360TIP3    H240572   5.169   0.608  10.647 -0.3300  0.1328 -1.4982
 6361TIP3   OH240573   3.282   4.744  11.888  0.0530 -0.3866 -0.1048
 6361TIP3    H140574   3.365   4.708  11.856  0.4987 -1.1055  1.7211
 6361TIP3    H240575   3.284   4.835  11.862  0.0738 -1.0391 -2.6056
 6362TIP3   OH240576   5.524   1.167  12.802 -0.6262  0.8028 -0.4344
 6362TIP3    H140577   5.570   1.130  12.877 -1.0837  0.1971 -0.4428
 6362TIP3    H240578   5.580   1.237  12.771 -0.6461  1.3540  0.7487
 6363TIP3   OH240579   1.754   0.985  11.250  0.2201  0.1937  0.2492
 6363TIP3    H140580   1.817   0.944  11.308 -0.0282  0.6731  0.8635
 6363TIP3    H240581   1.675   0.998  11.303 -0.8027 -1.3719 -0.7895
 6364TIP3   OH240582   0.879   3.455  12.160 -0.2195 -0.1960 -0.2357
 6364TIP3    H140583   0.785   3.436  12.155 -0.7037  0.9965  2.4726
 6364TIP3    H240584   0.905   3.421  12.245  1.6254  0.2789 -0.5775
 6365TIP3   OH240585   5.395   6.577  12.914  0.4832  0.6092  0.3209
 6365TIP3    H140586   5.410   6.484  12.929  0.3336  0.8082  1.8495
 6365TIP3    H240587   5.474   6.607  12.868  1.2533  0.0495  1.2422
 6366TIP3   OH240588   0.683   5.300  12.177  0.1162 -0.0549 -0.0478
 6366TIP3    H140589   0.775   5.283  12.197  0.4263 -1.6365 -2.3565
 6366TIP3    H240590   0.686   5.360  12.103 -0.6434 -0.8511 -0.7496
 6367TIP3   OH240591   1.502   2.249  15.710  0.3084 -0.4271 -0.0242
 6367TIP3    H140592   1.597   2.248  15.720  0.4465 -0.1515 -1.1617
 6367TIP3    H240593   1.482   2.337  15.678  0.2153 -1.6973 -4.0232
 6368TIP3   OH240594   4.501   4.686   3.982 -0.4854  0.1103 -0.2798
 6368TIP3    H140595   4.500   4.625   4.057 -0.4011 -1.5057 -1.5320
 6368TIP3    H240596   4.409   4.711   3.971 -0.2870  1.8657  1.4698
 6369TIP3   OH240597   5.167   2.664  11.560 -0.3387  0.0689  0.5471
 6369TIP3    H140598   5.153   2.629  11.648 -0.9880  1.6456  1.0953
 6369TIP3    H240599   5.195   2.588  11.509 -2.3115 -1.4044  1.5268
 6370TIP3   OH240600   1.335   2.800  12.945  0.1735 -0.2803  0.6665
 6370TIP3    H140601   1.354   2.723  12.891 -1.6940 -0.0662 -0.4052
 6370TIP3    H240602   1.361   2.874  12.890 -0.3147 -0.0964  0.6816
 6371TIP3   OH240603   1.709   2.729  14.786 -0.2867 -0.1171 -0.3792
 6371TIP3    H140604   1.714   2.732  14.881 -0.2628 -0.3000 -0.3747
 6371TIP3    H240605   1.615   2.730  14.767 -0.2900  0.2540 -0.3675
 6372TIP3   OH240606   5.964   4.137   3.439  0.2452 -0.2812 -0.4380
 6372TIP3    H140607   5.999   4.177   3.519  0.3817 -0.1842 -0.5461
 6372TIP3    H240608   6.037   4.139   3.377 -0.3463  1.2195 -1.1385
 6373TIP3   OH240609   1.915   3.228   5.262  0.5235  0.0894 -0.0690
 6373TIP3    H140610   2.002   3.241   5.298  0.2864 -2.5309  1.7234
 6373TIP3    H240611   1.930   3.190   5.175  1.1753 -0.0262  0.0920
 6374TIP3   OH240612   6.010   1.794  16.140  0.1967  0.3289  0.0417
 6374TIP3    H140613   6.018   1.698  16.147  0.8015  0.2659 -1.2123
 6374TIP3    H240614   6.076   1.828  16.200  0.4149 -0.0625  0.0293
 6375TIP3   OH240615   0.971   6.382   0.798  0.1539 -0.3596 -0.0211
 6375TIP3    H140616   0.879   6.387   0.825  0.7985  2.4196  2.1616
 6375TIP3    H240617   1.017   6.355   0.877  1.2826 -1.5693 -1.0539
 6376TIP3   OH240618   3.510   6.038  12.192 -0.3148  0.0771 -0.1581
 6376TIP3    H140619   3.499   5.950  12.157  1.2988 -0.6001  0.9162
 6376TIP3    H240620   3.477   6.096  12.123  0.1497 -1.2982 -1.5921
 6377TIP3   OH240621   4.338   1.836  10.865  0.1374 -0.2597  0.2586
 6377TIP3    H140622   4.417   1.849  10.918 -0.4336  2.9596  0.4753
 6377TIP3    H240623   4.344   1.902  10.797 -2.0268 -0.4435 -0.1619
 6378TIP3   OH240624   5.036   0.440   4.525  0.0545 -0.2034 -0.4256
 6378TIP3    H140625   5.110   0.443   4.465  0.9440 -0.5896  0.6308
 6378TIP3    H240626   5.064   0.382   4.596 -0.7778  0.6419  0.6276
 6379TIP3   OH240627   0.804   4.075  16.959 -0.2121 -0.5501 -0.6048
 6379TIP3    H140628   0.849   3.999  16.997  0.1082 -0.4808 -0.8415
 6379TIP3    H240629   0.813   4.144  17.026 -0.8414 -0.8305 -0.2264
 6380TIP3   OH240630   5.339   4.872  13.853 -0.1175  0.5611 -0.0283
 6380TIP3    H140631   5.246   4.878  13.833 -0.4030 -1.2316  0.6164
 6380TIP3    H240632   5.343   4.877  13.949  0.5046  1.0401 -0.0698
 6381TIP3   OH240633   2.742   5.223  11.993 -0.2280 -0.2485  0.3704
 6381TIP3    H140634   2.670   5.231  12.056 -1.6208 -0.0893 -1.1691
 6381TIP3    H240635   2.699   5.222  11.908  1.7130  2.5062 -0.8134
 6382TIP3   OH240636   1.278   2.992  16.255 -0.5232  0.5593 -0.1478
 6382TIP3    H140637   1.300   3.001  16.347 -1.8292  0.6064  0.1782
 6382TIP3    H240638   1.195   2.945  16.254  0.2294 -0.8517 -1.3647
 6383TIP3   OH240639   2.783   1.239  12.604 -0.3826 -0.1200 -0.2639
 6383TIP3    H140640   2.800   1.260  12.695 -1.2088  1.3325 -0.4079
 6383TIP3    H240641   2.868   1.241  12.562 -0.0521 -0.3220  0.3894
 6384TIP3   OH240642   4.926   4.221   4.637  0.3308  0.0288  0.1040
 6384TIP3    H140643   4.959   4.148   4.689  0.4083  0.4974  0.7259
 6384TIP3    H240644   4.846   4.249   4.682  1.0851  1.2641  0.7284
 6385TIP3   OH240645   2.099   1.152   1.214 -0.0311  0.1627  0.1897
 6385TIP3    H140646   2.065   1.126   1.300  1.6605 -1.7423  0.3719
 6385TIP3    H240647   2.180   1.200   1.234 -0.1758  0.6242 -0.3235
 6386TIP3   OH240648   1.571   0.479  16.407 -0.0570  0.0350  0.3882
 6386TIP3    H140649   1.515   0.402  16.398 -1.2112  0.6317  2.0378
 6386TIP3    H240650   1.600   0.498  16.318  0.3289 -2.3254 -0.0551
 6387TIP3   OH240651   2.951   4.832  12.008 -0.4005 -0.3212 -0.0633
 6387TIP3    H140652   2.920   4.920  12.032 -0.0005  0.3741 -1.9225
 6387TIP3    H240653   3.020   4.813  12.072  0.9903  1.6511 -0.8789
 6388TIP3   OH240654   6.775   6.714   6.143  0.3938  0.1504 -0.0643
 6388TIP3    H140655   6.764   6.633   6.191 -0.7064  0.3492  0.0509
 6388TIP3    H240656   6.869   6.732   6.145  0.8972 -1.9489 -1.4622
 6389TIP3   OH240657   4.121   5.315  16.610 -0.4168  0.4470  0.0993
 6389TIP3    H140658   4.151   5.296  16.699 -0.2735  1.3206  0.2399
 6389TIP3    H240659   4.026   5.316  16.617 -0.3914  2.4085  0.6638
 6390TIP3   OH240660   6.196   0.909   5.045  0.9495  0.3718  0.4252
 6390TIP3    H140661   6.143   0.902   4.966  0.6111 -1.6429  0.7713
 6390TIP3    H240662   6.284   0.886   5.018  0.2700 -3.6976  1.1176
 6391TIP3   OH240663   0.938   0.430   5.013 -0.4993 -0.2050  0.4404
 6391TIP3    H140664   0.996   0.413   4.939 -1.7788 -1.4659 -0.3238
 6391TIP3    H240665   0.850   0.427   4.975 -1.2376 -1.5799  2.1200
 6392TIP3   OH240666   6.419   6.097   4.817 -0.0706 -0.3397  0.2454
 6392TIP3    H140667   6.331   6.132   4.800 -0.5206 -0.9499  1.2105
 6392TIP3    H240668   6.478   6.167   4.791 -0.8796  0.4408  0.4350
 6393TIP3   OH240669   1.075   4.949   2.295 -0.5972 -0.1543 -0.0839
 6393TIP3    H140670   1.068   5.036   2.255 -0.1474 -0.2183 -0.2977
 6393TIP3    H240671   1.004   4.947   2.359 -0.4590  0.4661  0.0937
 6394TIP3   OH240672   1.639   1.615   4.646 -0.7339 -0.1561 -0.0768
 6394TIP3    H140673   1.731   1.604   4.670 -0.8286  0.4980  0.6150
 6394TIP3    H240674   1.599   1.655   4.723 -1.4604  0.1810 -0.6231
 6395TIP3   OH240675   3.284   0.169  13.888 -0.3429  0.1798 -0.2561
 6395TIP3    H140676   3.365   0.194  13.843  0.9081  1.0153  2.2695
 6395TIP3    H240677   3.307   0.169  13.981 -2.9632 -0.7396  0.4864
 6396TIP3   OH240678   3.154   3.001  10.768 -0.1305  0.2529  0.3069
 6396TIP3    H140679   3.127   3.049  10.689 -1.1876  0.0274  0.5133
 6396TIP3    H240680   3.198   2.923  10.735  0.0550  0.5006 -0.0456
 6397TIP3   OH240681   3.966   4.892  11.074  0.0471  0.3861  0.3002
 6397TIP3    H140682   3.918   4.829  11.129  0.9511  0.3635  1.0821
 6397TIP3    H240683   4.045   4.845  11.048 -0.1329  0.5764 -0.6221
 6398TIP3   OH240684   0.636   3.351  12.149 -0.0490 -0.2834 -0.1759
 6398TIP3    H140685   0.595   3.365  12.235  0.5271  0.7622 -0.0574
 6398TIP3    H240686   0.581   3.400  12.088  2.2305  3.2046  0.3041
 6399TIP3   OH240687   1.032   3.238   0.291  0.2346  0.2747 -0.8792
 6399TIP3    H140688   1.072   3.160   0.330  0.1387  0.3140 -0.6961
 6399TIP3    H240689   1.105   3.291   0.261  0.3034  0.1565 -0.9200
 6400TIP3   OH240690   6.234   6.692   3.406  0.5941  0.3907 -0.3567
 6400TIP3    H140691   6.326   6.673   3.387  0.3301  0.1906 -1.5372
 6400TIP3    H240692   6.186   6.654   3.332 -0.5047 -0.1472  0.6009
 6401TIP3   OH240693   4.815   2.039   0.926 -0.3543  0.1969 -0.6225
 6401TIP3    H140694   4.775   2.064   1.009  0.6430 -1.3896  0.3955
 6401TIP3    H240695   4.752   2.065   0.860 -1.1698  1.5221  0.6162
 6402TIP3   OH240696   4.631   6.310  12.022  0.2193 -0.5735 -0.2708
 6402TIP3    H140697   4.695   6.255  11.975  2.0898  0.3631  1.0662
 6402TIP3    H240698   4.546   6.279  11.990  1.3271 -0.5696 -3.6296
 6403TIP3   OH240699   5.807   3.527   2.289  0.1457 -0.2131  0.1693
 6403TIP3    H140700   5.804   3.574   2.372 -3.3509 -0.6407  0.4338
 6403TIP3    H240701   5.840   3.591   2.226  1.2468  0.6309  1.5607
 6404TIP3   OH240702   6.493   3.216   5.440 -0.3635 -1.1378 -0.7231
 6404TIP3    H140703   6.446   3.290   5.400 -1.9047 -1.8505 -0.2879
 6404TIP3    H240704   6.583   3.225   5.407 -0.9152 -0.0670 -2.0615
 6405TIP3   OH240705   3.819   3.502   5.091 -0.3929  0.2563 -0.3385
 6405TIP3    H140706   3.898   3.486   5.141 -0.2999  1.3529 -0.1018
 6405TIP3    H240707   3.758   3.543   5.153 -1.6806 -1.8026 -0.1488
 6406TIP3   OH240708   6.495   5.045  12.029  0.5356 -0.2856 -0.0893
 6406TIP3    H140709   6.531   4.957  12.018  0.0771 -0.3730 -0.9621
 6406TIP3    H240710   6.401   5.036  12.012  0.3313  0.2028  0.7368
 6407TIP3   OH240711   3.566   4.531  16.479  0.1545  0.6433 -0.0947
 6407TIP3    H140712   3.603   4.619  16.477  1.7954 -0.0122 -1.8435
 6407TIP3    H240713   3.640   4.474  16.498 -0.3535 -0.5666 -1.5750
 6408TIP3   OH240714   4.990   6.556  15.634  0.3897 -0.7201  0.0955
 6408TIP3    H140715   5.026   6.615  15.700 -0.4558  0.0728 -0.1462
 6408TIP3    H240716   4.966   6.612  15.561  0.0115 -1.4228 -0.3357
 6409TIP3   OH240717   2.550   1.897   3.794 -0.0995 -0.1055 -0.1687
 6409TIP3    H140718   2.615   1.956   3.754 -1.7274  1.0504 -1.2421
 6409TIP3    H240719   2.581   1.809   3.771  0.7116  0.4370 -1.2722
 6410TIP3   OH240720   3.777   4.818  13.485 -0.7430  0.0364 -0.2003
 6410TIP3    H140721   3.775   4.863  13.570 -1.8853  1.7598 -1.0907
 6410TIP3    H240722   3.787   4.889  13.421  1.4341 -1.3170 -1.4820
 6411TIP3   OH240723   0.703   4.873  13.364 -0.1577 -0.4564  0.6115
 6411TIP3    H140724   0.655   4.911  13.437  0.2994 -0.7758  1.0854
 6411TIP3    H240725   0.795   4.880  13.389 -0.0541 -2.2129  0.9140
 6412TIP3   OH240726   4.497   5.689  16.622  0.8593 -0.5371  0.5469
 6412TIP3    H140727   4.559   5.693  16.550  0.1986 -0.1508 -0.0182
 6412TIP3    H240728   4.417   5.654  16.583  1.1161 -2.4172  1.5641
 6413TIP3   OH240729   1.030   6.085   3.928  0.1234  0.2288  0.3884
 6413TIP3    H140730   1.012   6.157   3.989  2.2775 -0.0024  1.3777
 6413TIP3    H240731   1.082   6.125   3.858 -1.1937  0.2057 -0.6452
 6414TIP3   OH240732   3.487   4.414   1.825  0.1689 -0.2246  0.2962
 6414TIP3    H140733   3.483   4.385   1.916 -0.4775  1.0679  0.7018
 6414TIP3    H240734   3.469   4.508   1.828  1.0449  0.0258 -1.0803
 6415TIP3   OH240735   6.495   0.059   5.766 -0.1641  0.2385  0.5048
 6415TIP3    H140736   6.501   0.154   5.753 -1.2011  0.1425 -0.8690
 6415TIP3    H240737   6.440   0.049   5.844 -1.5294  0.7653 -0.3647
 6416TIP3   OH240738   3.011   2.147  16.023  0.0579 -0.1933 -0.5142
 6416TIP3    H140739   3.023   2.240  16.004  0.1805 -0.8945 -4.6428
 6416TIP3    H240740   3.099   2.114  16.040 -0.1409  0.6047  2.8096
 6417TIP3   OH240741   5.123   0.638  11.833 -0.2838 -0.1661 -0.5241
 6417TIP3    H140742   5.139   0.561  11.887 -0.9472 -0.2958 -0.4930
 6417TIP3    H240743   5.148   0.713  11.888 -1.1255 -0.2851  0.0439
 6418TIP3   OH240744   4.987   5.200   4.616 -0.2515 -0.0041 -0.0289
 6418TIP3    H140745   5.012   5.274   4.671 -1.2656 -0.0787  0.5452
 6418TIP3    H240746   4.929   5.147   4.671 -0.6713 -0.4815 -0.9081
 6419TIP3   OH240747   1.277   1.261  16.309 -0.1176  0.2305  0.0727
 6419TIP3    H140748   1.302   1.353  16.305  1.1926 -0.1430 -2.7191
 6419TIP3    H240749   1.199   1.260  16.365  1.5540  2.5486  2.6998
 6420TIP3   OH240750   6.032   0.911   4.827  0.1971 -0.1958  0.2262
 6420TIP3    H140751   5.985   0.995   4.825  0.7561  0.1079 -0.5300
 6420TIP3    H240752   5.972   0.849   4.786 -0.5681 -0.3615  1.5530
 6421TIP3   OH240753   4.039   2.347  15.319 -0.0274 -0.3617 -0.2160
 6421TIP3    H140754   4.001   2.431  15.349 -0.6824 -1.0532  0.9827
 6421TIP3    H240755   3.994   2.329  15.237 -1.9614 -0.8636  0.8788
 6422TIP3   OH240756   0.851   3.484  13.755 -0.3043 -0.5677 -0.0954
 6422TIP3    H140757   0.899   3.508  13.834 -0.2222 -0.8190 -0.0690
 6422TIP3    H240758   0.831   3.391  13.766 -1.0672 -0.3952  0.0441
 6423TIP3   OH240759   6.407   4.770  17.027  0.4706 -0.8783 -0.2215
 6423TIP3    H140760   6.383   4.770  17.119 -1.4466 -0.5701 -0.6912
 6423TIP3    H240761   6.448   4.684  17.013  0.5689 -1.0169  0.8471
 6424TIP3   OH240762   3.081   0.897   1.538  0.0372  0.1064 -0.6974
 6424TIP3    H140763   3.136   0.824   1.510 -0.6021 -0.5927 -0.1338
 6424TIP3    H240764   2.992   0.871   1.516 -0.3148  0.2256  0.5354
 6425TIP3   OH240765   6.032   4.081   4.634  0.0983 -0.0840  0.2727
 6425TIP3    H140766   5.958   4.051   4.687  0.5704 -1.8743 -0.0263
 6425TIP3    H240767   5.993   4.144   4.573 -1.3443 -1.4347 -0.2845
 6426TIP3   OH240768   3.787   5.535   1.427  0.5916  0.4298 -0.2955
 6426TIP3    H140769   3.787   5.614   1.482  2.3396  0.9114 -0.9389
 6426TIP3    H240770   3.726   5.555   1.356  1.0801  1.2336 -0.4948
 6427TIP3   OH240771   3.802   3.668  13.274  0.2372 -0.1086 -0.6114
 6427TIP3    H140772   3.814   3.630  13.187  0.5345 -2.7951  0.4837
 6427TIP3    H240773   3.887   3.706  13.296  1.4918 -2.9691 -0.0192
 6428TIP3   OH240774   6.401   0.898   6.480  0.1204 -0.4443  0.1793
 6428TIP3    H140775   6.316   0.887   6.521 -0.0491  0.3145  0.0579
 6428TIP3    H240776   6.399   0.987   6.444  0.4863 -0.8783 -0.9563
 6429TIP3   OH240777   5.648   4.707  16.914 -0.3057  0.1213  0.6653
 6429TIP3    H140778   5.653   4.611  16.916  2.1271  0.1142 -1.1334
 6429TIP3    H240779   5.567   4.726  16.867  0.3995 -1.1690 -1.1870
 6430TIP3   OH240780   3.504   2.448   6.575 -0.0271 -0.0392 -0.8802
 6430TIP3    H140781   3.531   2.463   6.484  0.3282 -1.3684 -1.0147
 6430TIP3    H240782   3.560   2.506   6.627  2.1151 -1.6280 -1.2763
 6431TIP3   OH240783   2.845   0.591   0.344 -0.5759  0.3874  0.0656
 6431TIP3    H140784   2.764   0.556   0.382 -1.6842 -0.2224 -2.6022
 6431TIP3    H240785   2.859   0.539   0.265  2.1991  0.8190  0.1742
 6432TIP3   OH240786   0.055   3.527   6.069 -0.0425  0.2853  0.5362
 6432TIP3    H140787   0.147   3.518   6.094 -0.0560 -1.5121  0.0656
 6432TIP3    H240788   0.006   3.506   6.148 -0.0427  0.2619  0.5299
 6433TIP3   OH240789   3.923   1.473   0.563  0.4913 -0.1068 -0.4043
 6433TIP3    H140790   4.011   1.506   0.577  0.3121  0.7440 -1.1932
 6433TIP3    H240791   3.899   1.431   0.646  0.8106  1.5723  0.5821
 6434TIP3   OH240792   6.486   3.406   1.175 -0.3615 -0.3671  0.6920
 6434TIP3    H140793   6.579   3.382   1.178  0.7119  2.8035 -1.6785
 6434TIP3    H240794   6.467   3.439   1.262  1.0051 -0.2734  0.9764
 6435TIP3   OH240795   5.829   0.507  16.829  0.2162 -0.3618  0.1605
 6435TIP3    H140796   5.793   0.587  16.791  0.9583 -0.0745  0.0365
 6435TIP3    H240797   5.763   0.439  16.810 -1.0489  0.4584  1.4452
 6436TIP3   OH240798   3.199   0.276   3.008  0.0286  0.7283 -0.3380
 6436TIP3    H140799   3.160   0.354   3.047 -0.8617  0.9001 -1.5266
 6436TIP3    H240800   3.223   0.221   3.082 -1.0040  1.3334  0.4611
 6437TIP3   OH240801   4.438   0.206  13.157 -0.0956 -0.0940  0.3373
 6437TIP3    H140802   4.488   0.211  13.076 -0.5249 -4.2492 -0.4067
 6437TIP3    H240803   4.346   0.207  13.130 -0.2408 -1.7758  0.6592
 6438TIP3   OH240804   4.168   5.697   2.636 -0.2567  0.3292 -0.3520
 6438TIP3    H140805   4.108   5.670   2.567 -1.5608  1.4411  0.2913
 6438TIP3    H240806   4.113   5.745   2.698  0.7252 -1.1439  1.7919
 6439TIP3   OH240807   2.426   5.141   5.796  0.4786  0.4454 -0.1067
 6439TIP3    H140808   2.487   5.112   5.727 -0.6834  0.8281 -1.3377
 6439TIP3    H240809   2.462   5.224   5.826 -0.6355  1.9175 -2.5381
 6440TIP3   OH240810   2.733   6.029   3.184 -0.1561 -0.7096  0.4543
 6440TIP3    H140811   2.775   6.071   3.109 -0.8326  2.2284  1.5527
 6440TIP3    H240812   2.652   5.992   3.149 -0.8720  1.3301 -0.2299
 6441TIP3   OH240813   3.993   4.572   0.009 -0.1820  0.4122  0.1840
 6441TIP3    H140814   3.965   4.486  -0.023  0.0687  0.2623  0.3658
 6441TIP3    H240815   3.937   4.588   0.086 -2.4862  1.8390 -1.6577
 6442TIP3   OH240816   2.691   1.554  14.062 -0.1769  0.0514 -0.0596
 6442TIP3    H140817   2.773   1.587  14.026 -2.1128  1.7455 -3.4151
 6442TIP3    H240818   2.712   1.531  14.152  3.4855  2.2290 -0.1525
 6443TIP3   OH240819   5.839   6.643  12.662 -0.3747 -0.1014 -0.0194
 6443TIP3    H140820   5.907   6.706  12.687  0.0654 -0.0425 -1.3100
 6443TIP3    H240821   5.877   6.557  12.682 -0.3988 -0.0213  0.3747
 6444TIP3   OH240822   0.850   5.605   2.610 -0.1406  0.0351  0.1057
 6444TIP3    H140823   0.780   5.637   2.667 -1.0049 -0.2631 -0.7600
 6444TIP3    H240824   0.829   5.641   2.523  0.2707 -0.7958 -0.3576
 6445TIP3   OH240825   3.737   4.725  10.658  0.7252  0.3175 -0.2585
 6445TIP3    H140826   3.810   4.693  10.712  1.1468  0.8583 -0.4942
 6445TIP3    H240827   3.683   4.776  10.719  0.8736  0.4188 -0.2096
 6446TIP3   OH240828   2.212   6.483   1.706 -0.6188 -0.1482  0.4171
 6446TIP3    H140829   2.288   6.539   1.688 -0.3716 -0.4995  0.3349
 6446TIP3    H240830   2.140   6.543   1.721 -0.4325  0.1851 -0.0043
 6447TIP3   OH240831   4.163   6.029  16.741 -0.3099  0.6335 -0.5385
 6447TIP3    H140832   4.180   6.082  16.818 -0.8469 -0.2228  0.1964
 6447TIP3    H240833   4.222   6.064  16.673  2.7637 -0.7306  1.1994
 6448TIP3   OH240834   4.891   4.264  16.392 -0.4039 -0.1865  0.0916
 6448TIP3    H140835   4.962   4.277  16.330 -0.1801  1.0602  0.5780
 6448TIP3    H240836   4.825   4.214  16.343 -0.4823  1.2423 -1.3479
 6449TIP3   OH240837   3.960   0.998  12.720 -0.2447  0.0380 -0.0818
 6449TIP3    H140838   4.020   0.957  12.659  0.9615  0.4504  0.7788
 6449TIP3    H240839   3.980   0.957  12.804  0.3882  1.7145  0.6292
 6450TIP3   OH240840   5.902   4.199  13.279 -0.3372 -0.2004 -0.1256
 6450TIP3    H140841   5.911   4.272  13.341  1.5718  0.4295 -1.0646
 6450TIP3    H240842   5.849   4.235  13.208 -1.5953 -0.5803  0.5897
 6451TIP3   OH240843   2.218   4.537   1.119  0.2095  0.8809  0.6831
 6451TIP3    H140844   2.124   4.546   1.106  0.4099  1.6412 -0.3718
 6451TIP3    H240845   2.254   4.622   1.095  1.0711  1.0023  2.2551
 6452TIP3   OH240846   5.907   6.531  13.376 -0.2192 -0.2574  0.3184
 6452TIP3    H140847   5.837   6.532  13.441  0.1173  1.4956  0.7036
 6452TIP3    H240848   5.983   6.569  13.422 -0.5389  3.1028 -1.5870
 6453TIP3   OH240849   6.265   1.107  15.925  0.4859 -0.0234  0.1896
 6453TIP3    H140850   6.271   1.186  15.979 -0.5286  1.2509 -1.4762
 6453TIP3    H240851   6.354   1.093  15.892  0.1162  2.5679 -2.2973
 6454TIP3   OH240852   1.117   5.109   1.372 -0.0128 -0.2512  0.4352
 6454TIP3    H140853   1.028   5.144   1.382  0.2936  1.1590 -1.3100
 6454TIP3    H240854   1.105   5.014   1.376 -1.6910 -0.1164 -0.2154
 6455TIP3   OH240855   0.666   5.230   2.199  0.3461  0.2148  0.1716
 6455TIP3    H140856   0.713   5.159   2.154  0.1999  0.0721  0.2435
 6455TIP3    H240857   0.578   5.228   2.162  0.9858  1.9283 -1.6037
 6456TIP3   OH240858   6.657   5.915  14.736 -0.0965 -0.4479  0.3781
 6456TIP3    H140859   6.615   5.832  14.716  0.9211 -0.7767 -0.4756
 6456TIP3    H240860   6.750   5.896  14.737  0.2537  0.9250 -1.2019
 6457TIP3   OH240861   2.363   2.421   1.556  0.0752 -0.2661  0.3001
 6457TIP3    H140862   2.399   2.473   1.628 -0.6782 -0.0405  0.5296
 6457TIP3    H240863   2.422   2.347   1.547  1.5418  0.9507 -0.4539
 6458TIP3   OH240864   5.511   0.067   0.794 -0.2029 -0.4989  0.0516
 6458TIP3    H140865   5.455   0.115   0.855 -0.5085 -0.6034 -0.1464
 6458TIP3    H240866   5.498   0.110   0.710  0.2407 -0.3375  0.0592
 6459TIP3   OH240867   3.519   0.800  11.258  0.5296  0.1196 -0.2767
 6459TIP3    H140868   3.482   0.789  11.171 -1.5501 -1.3338  0.7127
 6459TIP3    H240869   3.567   0.719  11.274 -0.8184 -0.5389  0.6558
 6460TIP3   OH240870   2.691   6.020   1.833  0.5119  0.6592 -1.2197
 6460TIP3    H140871   2.786   6.019   1.844  0.4829  0.8318 -0.9417
 6460TIP3    H240872   2.657   5.985   1.915  0.3806 -1.0691 -1.9784
 6461TIP3   OH240873   0.626   3.831   5.129 -0.3150 -0.2052 -0.5043
 6461TIP3    H140874   0.703   3.886   5.117 -0.8962  0.9041  0.6884
 6461TIP3    H240875   0.611   3.830   5.223 -1.6007 -0.6411 -0.6913
 6462TIP3   OH240876   6.812   3.641   4.091  0.2607  0.1962  0.1585
 6462TIP3    H140877   6.904   3.638   4.062  0.7532 -0.0531  1.6863
 6462TIP3    H240878   6.791   3.734   4.091  0.7195  0.3040  0.4124
 6463TIP3   OH240879   0.991   0.096   4.262 -0.5267  0.7826  0.1224
 6463TIP3    H140880   0.962   0.055   4.344 -0.1088 -2.0414 -1.0180
 6463TIP3    H240881   1.085   0.075   4.258 -1.1911 -2.7161 -2.7915
 6464TIP3   OH240882   2.718   6.491   5.876 -0.1520  0.2264  0.0484
 6464TIP3    H140883   2.754   6.404   5.892  0.2727  0.6238  1.3747
 6464TIP3    H240884   2.745   6.512   5.786 -0.6235 -1.1592 -0.4561
 6465TIP3   OH240885   3.425   1.838  12.466  0.0337 -0.6245  0.0255
 6465TIP3    H140886   3.344   1.856  12.512  0.0026 -1.8283  0.4708
 6465TIP3    H240887   3.450   1.922  12.428 -0.8386  0.0019  0.7951
 6466TIP3   OH240888   2.647   4.479   3.552  0.1364 -0.5190  0.4115
 6466TIP3    H140889   2.666   4.468   3.458  0.8009  2.2536  0.1405
 6466TIP3    H240890   2.568   4.533   3.553  0.2532 -0.3608  1.4479
 6467TIP3   OH240891   2.946   4.268  13.472 -0.1414  0.4087  0.1380
 6467TIP3    H140892   2.911   4.310  13.392 -1.3248 -0.5397  0.1242
 6467TIP3    H240893   2.906   4.181  13.472  3.4381 -1.3909 -0.6577
 6468TIP3   OH240894   3.741   5.098   5.198 -0.0028  0.4334  0.4277
 6468TIP3    H140895   3.657   5.144   5.201  0.2941  1.0533 -0.3594
 6468TIP3    H240896   3.720   5.012   5.159 -0.0571  1.1470 -1.2017
 6469TIP3   OH240897   3.699   2.985   2.662 -0.0362 -0.1878 -0.0887
 6469TIP3    H140898   3.655   3.067   2.637 -0.2861 -0.3118 -0.0569
 6469TIP3    H240899   3.629   2.931   2.700  0.4708  0.3003  1.6147
 6470TIP3   OH240900   0.891   4.987   5.279  0.1966  0.6703 -0.2414
 6470TIP3    H140901   0.923   4.975   5.368  1.3857  1.4893 -0.5348
 6470TIP3    H240902   0.810   5.037   5.289 -0.2104 -0.1000  0.4235
 6471TIP3   OH240903   6.553   1.527  14.600  0.2445  0.2327 -0.0809
 6471TIP3    H140904   6.619   1.466  14.568  1.1216  0.8586  0.5086
 6471TIP3    H240905   6.501   1.476  14.662  1.6138  0.3290  1.1925
 6472TIP3   OH240906   5.933   1.920  15.609  0.2736 -0.2245 -0.5410
 6472TIP3    H140907   5.848   1.875  15.617  0.6653 -0.7861  0.8438
 6472TIP3    H240908   5.964   1.927  15.699  1.6770  0.0212 -1.0242
 6473TIP3   OH240909   6.443   3.036  17.138  1.1647 -0.5532 -0.7459
 6473TIP3    H140910   6.390   3.092  17.081 -0.5246  0.3621  1.5285
 6473TIP3    H240911   6.389   2.958  17.152  1.1180 -0.3612  0.2554
 6474TIP3   OH240912   5.134   0.280  15.611  0.2652 -0.2562 -0.2528
 6474TIP3    H140913   5.081   0.238  15.678  0.4531 -0.0448  0.0307
 6474TIP3    H240914   5.164   0.361  15.651  0.8605 -0.4052 -0.3818
 6475TIP3   OH240915   1.958   1.154  14.498 -0.0936 -0.2795 -0.1973
 6475TIP3    H140916   1.992   1.136  14.585  0.8336  1.2454 -0.1966
 6475TIP3    H240917   1.936   1.247  14.500 -1.3939 -0.5394 -1.1749
 6476TIP3   OH240918   1.568   6.088   1.320  0.7413 -0.4730 -0.2185
 6476TIP3    H140919   1.648   6.137   1.334  0.4453  0.0857 -0.4544
 6476TIP3    H240920   1.566   6.071   1.226 -0.4650  1.3819 -0.5727
 6477TIP3   OH240921   4.380   6.162   1.172 -0.0631  0.3539 -0.5375
 6477TIP3    H140922   4.388   6.075   1.132  0.5400 -0.2036  0.7293
 6477TIP3    H240923   4.448   6.214   1.128 -0.0602  0.0301 -0.9231
 6478TIP3   OH240924   3.411   0.607   3.986 -0.3909 -0.3182 -0.1737
 6478TIP3    H140925   3.465   0.529   3.996 -1.6366 -1.1098  0.8332
 6478TIP3    H240926   3.326   0.582   4.023 -1.1652  1.1633 -0.8512
 6479TIP3   OH240927   0.866   1.593   1.085  0.0861  0.4064 -0.3281
 6479TIP3    H140928   0.895   1.681   1.109  0.1597  0.2341  0.2292
 6479TIP3    H240929   0.770   1.599   1.081 -0.0297  0.1106  1.4001
 6480TIP3   OH240930   2.188   1.370  14.350  0.2043 -0.0715 -0.1371
 6480TIP3    H140931   2.162   1.383  14.259 -0.2216  0.0980  0.0036
 6480TIP3    H240932   2.107   1.381  14.399  1.1351  4.8776  0.7686
 6481TIP3   OH240933   4.582   0.345   2.346  0.2023 -0.8008 -0.1484
 6481TIP3    H140934   4.592   0.429   2.301 -1.7323 -0.2979  0.2707
 6481TIP3    H240935   4.658   0.294   2.318  1.1103  0.8731 -0.8729
 6482TIP3   OH240936   5.363   5.188  15.327 -0.0782  0.2352 -0.0718
 6482TIP3    H140937   5.354   5.283  15.335 -0.1091  0.1955  0.4146
 6482TIP3    H240938   5.438   5.166  15.382  0.3058  0.0470 -0.6688
 6483TIP3   OH240939   3.010   1.988   1.162 -0.3287 -0.0542  0.2524
 6483TIP3    H140940   3.023   2.074   1.203  0.0973  0.1802 -0.3619
 6483TIP3    H240941   2.927   1.957   1.198 -1.7454  1.6735 -1.3209
 6484TIP3   OH240942   6.353   4.710   2.113 -0.2408 -0.2656 -0.1086
 6484TIP3    H140943   6.273   4.763   2.113 -0.0026  0.0986 -0.4942
 6484TIP3    H240944   6.423   4.774   2.101  0.0819 -0.6265 -0.1262
 6485TIP3   OH240945   1.176   4.686   1.160 -0.2160  0.8008 -0.5400
 6485TIP3    H140946   1.242   4.710   1.095  0.3285 -1.0982 -0.7455
 6485TIP3    H240947   1.101   4.656   1.109  0.0357 -0.2477 -0.3176
 6486TIP3   OH240948   0.621   6.803   3.868  0.3956 -0.4279 -0.5107
 6486TIP3    H140949   0.641   6.713   3.840 -0.0349 -0.5234 -0.5269
 6486TIP3    H240950   0.664   6.812   3.952 -1.9881 -1.6837  0.9630
 6487TIP3   OH240951   5.709   0.495  12.144 -0.0446  0.7128  0.0020
 6487TIP3    H140952   5.698   0.467  12.053 -0.6072 -0.0292  0.2860
 6487TIP3    H240953   5.668   0.425  12.196  0.2216  1.1503  0.8236
 6488TIP3   OH240954   5.405   6.114   5.188 -0.0709  0.1798  0.4656
 6488TIP3    H140955   5.349   6.135   5.263  1.0313  0.1731  1.3199
 6488TIP3    H240956   5.441   6.198   5.161  0.0710  0.0888  0.3724
 6489TIP3   OH240957   4.717   3.688  16.960  0.3548  0.0489 -0.2279
 6489TIP3    H140958   4.687   3.687  17.051 -1.0214 -0.6463 -0.6705
 6489TIP3    H240959   4.660   3.751  16.916 -1.5897 -2.3593 -1.3999
 6490TIP3   OH240960   2.556   0.134  13.451 -0.2324 -0.0004 -0.0743
 6490TIP3    H140961   2.624   0.200  13.464  0.7067 -0.8652 -0.4467
 6490TIP3    H240962   2.484   0.182  13.409  0.2018  0.9010  0.1883
 6491TIP3   OH240963   1.833   6.124  12.307  0.0170  0.0675 -0.1239
 6491TIP3    H140964   1.754   6.088  12.348 -0.1626  0.3647 -0.2010
 6491TIP3    H240965   1.800   6.188  12.243  0.3621  1.7193  1.2814
 6492TIP3   OH240966   6.356   3.100   0.391 -0.9957 -0.1987 -0.4641
 6492TIP3    H140967   6.410   3.117   0.469 -0.0506 -3.1718 -0.3562
 6492TIP3    H240968   6.389   3.161   0.325  1.2637 -0.6326  0.1777
 6493TIP3   OH240969   4.978   0.736  13.156  0.3966  0.0388 -0.7454
 6493TIP3    H140970   4.891   0.701  13.175  0.4723 -0.5605 -1.5023
 6493TIP3    H240971   4.961   0.814  13.103  0.3629 -0.6714 -1.7834
 6494TIP3   OH240972   2.660   2.664  16.418 -0.6077 -0.7623 -0.1213
 6494TIP3    H140973   2.683   2.591  16.474 -0.9966 -1.1474 -0.4554
 6494TIP3    H240974   2.626   2.624  16.338 -0.1085 -0.2239 -0.6160
 6495TIP3   OH240975   3.313   0.411   1.798 -0.4116  0.0068  0.7627
 6495TIP3    H140976   3.358   0.376   1.721 -0.5965 -1.7888  1.4263
 6495TIP3    H240977   3.230   0.445   1.763 -0.3864 -0.5573  0.1297
 6496TIP3   OH240978   6.584   5.284   1.592  0.7107 -0.2193 -0.1956
 6496TIP3    H140979   6.576   5.192   1.567  2.4567 -0.6682  0.7750
 6496TIP3    H240980   6.536   5.332   1.524  0.2330 -1.7908 -1.0002
 6497TIP3   OH240981   4.147   4.600  15.991 -0.2589 -0.5072  0.1059
 6497TIP3    H140982   4.151   4.507  16.015  2.3686 -0.8500 -1.2489
 6497TIP3    H240983   4.181   4.602  15.901  0.0974  1.8208  0.2571
 6498TIP3   OH240984   3.620   2.038  11.270 -0.0070  0.2052  0.2403
 6498TIP3    H140985   3.705   2.033  11.227 -0.1933  0.2805 -0.1385
 6498TIP3    H240986   3.641   2.060  11.361  0.4797 -1.4945  0.5727
 6499TIP3   OH240987   5.174   5.795   3.933 -0.6020 -0.2159 -0.2310
 6499TIP3    H140988   5.189   5.838   4.017 -0.8466 -1.5268  0.5213
 6499TIP3    H240989   5.091   5.749   3.944 -0.1226 -1.2706 -0.8136
 6500TIP3   OH240990   2.167   1.536  11.808 -0.9532  0.3806  0.0367
 6500TIP3    H140991   2.181   1.622  11.846 -0.5708  0.0029  0.7631
 6500TIP3    H240992   2.234   1.480  11.848 -1.9411 -0.5234  0.4719
 6501TIP3   OH240993   4.720   0.025   0.922  0.0008 -0.4471 -0.8098
 6501TIP3    H140994   4.657  -0.034   0.881 -1.9504  0.6055  0.4963
 6501TIP3    H240995   4.696   0.112   0.889  1.0139 -0.0591 -0.5584
 6502TIP3   OH240996   4.222   2.709   1.369 -0.6931  0.1080  0.1320
 6502TIP3    H140997   4.209   2.617   1.392  0.5020  0.0405  0.6453
 6502TIP3    H240998   4.245   2.751   1.453  0.2475  0.5654 -0.3368
 6503TIP3   OH240999   4.603   6.529  15.958  0.1090 -0.4337 -0.3694
 6503TIP3    H141000   4.642   6.502  15.874 -0.6645  0.8637 -1.1711
 6503TIP3    H241001   4.517   6.562  15.935 -0.1715 -0.1858  0.9770
 6504TIP3   OH241002   2.602   5.544   2.434 -0.3140  0.0335  0.4511
 6504TIP3    H141003   2.555   5.479   2.485  1.7164 -1.4492  0.5823
 6504TIP3    H241004   2.596   5.624   2.486 -2.7284 -0.0204  0.3624
 6505TIP3   OH241005   6.656   4.949  15.750 -0.2256 -0.4575  0.3004
 6505TIP3    H141006   6.699   4.947  15.664  0.1187 -2.6893  0.4565
 6505TIP3    H241007   6.694   5.024  15.794 -1.3204  1.5313 -1.9132
 6506TIP3   OH241008   4.465   1.515  11.530 -0.0962 -0.8723 -0.5357
 6506TIP3    H141009   4.495   1.605  11.541 -0.6374 -0.6790 -0.5874
 6506TIP3    H241010   4.528   1.476  11.469 -0.1036 -0.3954 -0.8585
 6507TIP3   OH241011   1.140   3.967  15.923  0.4101  0.6809  0.0629
 6507TIP3    H141012   1.157   3.989  15.832 -0.8460 -0.7988 -0.5795
 6507TIP3    H241013   1.177   3.880  15.935 -1.2133 -0.0154  0.3391
 6508TIP3   OH241014   2.155   3.061  11.031 -0.0996  0.2748  0.0416
 6508TIP3    H141015   2.112   2.980  11.058  0.5074 -0.7394 -1.8498
 6508TIP3    H241016   2.108   3.088  10.951  1.8764 -0.1504 -1.3277
 6509TIP3   OH241017   1.812   5.493   5.230  0.3266  0.0437  0.0250
 6509TIP3    H141018   1.763   5.553   5.174  2.5344  0.9959 -1.0261
 6509TIP3    H241019   1.827   5.542   5.311 -0.0139 -0.0612  0.1537
 6510TIP3   OH241020   1.731   5.680  16.022  0.2717 -0.3500  0.7012
 6510TIP3    H141021   1.762   5.736  15.951 -1.0488 -0.0816  0.3048
 6510TIP3    H241022   1.678   5.613  15.979  1.6128 -1.7879  1.1947
 6511TIP3   OH241023   0.880   5.584  14.274 -0.1424 -0.0993  0.2229
 6511TIP3    H141024   0.811   5.547  14.330 -0.6075  0.7486  0.2391
 6511TIP3    H241025   0.834   5.650  14.221  0.2080 -1.1766 -1.4816
 6512TIP3   OH241026   4.111   2.532   5.851  0.4450  0.1340  0.0616
 6512TIP3    H141027   4.087   2.600   5.914  2.3346 -0.1722  1.2043
 6512TIP3    H241028   4.045   2.538   5.782  0.0559  2.5327  0.5576
 6513TIP3   OH241029   5.826   5.506   4.344  0.0388  0.3485  0.1786
 6513TIP3    H141030   5.731   5.494   4.347 -0.0499  0.5158 -1.2770
 6513TIP3    H241031   5.861   5.425   4.382 -0.6754  0.3398  0.8509
 6514TIP3   OH241032   6.778   1.577   4.089 -0.4961  0.1701  0.4543
 6514TIP3    H141033   6.832   1.601   4.015  0.9063  0.1493  1.4365
 6514TIP3    H241034   6.693   1.553   4.050  0.5309 -0.9342 -1.2405
 6515TIP3   OH241035   4.133   2.967   5.915  0.4558 -0.4053 -0.0114
 6515TIP3    H141036   4.214   3.015   5.935 -0.0578 -0.2280  1.8647
 6515TIP3    H241037   4.162   2.877   5.900  1.0567 -0.2385  0.1020
 6516TIP3   OH241038   3.718   0.022  16.108  0.4103  0.0201  0.8070
 6516TIP3    H141039   3.761  -0.061  16.091  1.2996  0.5413  0.4645
 6516TIP3    H241040   3.702   0.022  16.202  2.0054  0.2014  1.1035
 6517TIP3   OH241041   0.322   2.610   4.964 -0.3805  0.0091  0.4919
 6517TIP3    H141042   0.349   2.687   5.014 -1.3570  0.9288 -0.3331
 6517TIP3    H241043   0.235   2.633   4.931  0.3722 -0.3688 -1.9432
 6518TIP3   OH241044   5.708   5.481   5.958 -0.2598  0.0176  0.1673
 6518TIP3    H141045   5.618   5.449   5.959  0.4459 -2.1888 -0.1782
 6518TIP3    H241046   5.748   5.443   6.037  0.5611  0.3269 -0.0802
 6519TIP3   OH241047   5.658   1.842  10.468  0.1569 -0.1902 -0.0910
 6519TIP3    H141048   5.724   1.820  10.402 -1.8090 -2.5181 -1.4549
 6519TIP3    H241049   5.593   1.893  10.421 -0.8294 -1.1225  0.2063
 6520TIP3   OH241050   3.416   5.287  12.558 -0.4036 -0.0917  0.3316
 6520TIP3    H141051   3.338   5.240  12.530 -0.7157 -0.7066  2.0946
 6520TIP3    H241052   3.459   5.228  12.619  1.1832  0.4534 -0.1922
 6521TIP3   OH241053   0.114   3.621  14.318  0.6334 -0.2370  0.5285
 6521TIP3    H141054   0.027   3.600  14.285  1.4609 -0.7587 -1.4909
 6521TIP3    H241055   0.122   3.715  14.307  0.6171 -0.3044 -0.1045
 6522TIP3   OH241056   2.094   5.796  14.450  0.5597  0.1518  0.2849
 6522TIP3    H141057   2.012   5.842  14.472  0.5580 -0.2914  1.2465
 6522TIP3    H241058   2.105   5.732  14.520  2.2761  0.8902  0.7323
 6523TIP3   OH241059   3.958   3.591   4.139  0.4438  0.0502 -0.2322
 6523TIP3    H141060   3.902   3.647   4.086  0.5429  0.6773  0.3072
 6523TIP3    H241061   4.034   3.645   4.159  0.3225 -0.0967  0.6935
 6524TIP3   OH241062   1.956   3.381  13.310  0.1220 -0.2677  0.0746
 6524TIP3    H141063   1.888   3.416  13.252  0.1802 -1.1938 -0.5828
 6524TIP3    H241064   1.948   3.432  13.390  0.2662  1.3023 -0.8611
 6525TIP3   OH241065   4.640   6.255  12.291  0.0274  0.4307 -0.0887
 6525TIP3    H141066   4.684   6.330  12.331 -2.2118  1.3530  0.8583
 6525TIP3    H241067   4.608   6.288  12.206 -2.1157  1.0895  0.8888
 6526TIP3   OH241068   0.166   0.596   4.117  0.9554 -0.8635 -0.9241
 6526TIP3    H141069   0.129   0.661   4.057  0.9634  1.0484  1.0046
 6526TIP3    H241070   0.098   0.529   4.124 -0.2910  0.3472 -0.8576
 6527TIP3   OH241071   3.279   1.613  15.802 -0.9460  0.4182  0.0471
 6527TIP3    H141072   3.211   1.548  15.783 -1.6194  0.5126  1.9788
 6527TIP3    H241073   3.335   1.570  15.867  0.0099  0.8966 -0.4405
 6528TIP3   OH241074   5.428   2.221   4.936  0.2885 -0.2997  0.1166
 6528TIP3    H141075   5.352   2.191   4.986  1.0844 -0.7885  1.0827
 6528TIP3    H241076   5.478   2.141   4.918  0.2661 -0.0650 -1.0554
 6529TIP3   OH241077   1.619   0.092  12.395 -0.3602  0.0399 -0.0753
 6529TIP3    H141078   1.563   0.020  12.424  1.1265 -0.8397  0.7479
 6529TIP3    H241079   1.563   0.169  12.400 -1.1893 -0.6169  1.8530
 6530TIP3   OH241080   1.913   2.381  16.512  0.1163 -0.2654  0.4886
 6530TIP3    H141081   2.007   2.398  16.522  0.2679 -1.2446  0.7816
 6530TIP3    H241082   1.907   2.318  16.441 -0.5332  1.8034 -1.3878
 6531TIP3   OH241083   5.386   0.853  14.012 -0.9321 -0.4082  0.0452
 6531TIP3    H141084   5.364   0.803  13.933  0.9533 -0.2169 -0.6518
 6531TIP3    H241085   5.474   0.886  13.996 -0.7550  0.1985  1.9751
 6532TIP3   OH241086   5.610   3.798  17.014 -0.2226  0.3476 -0.1331
 6532TIP3    H141087   5.525   3.794  16.972 -0.4500 -0.4164  0.3739
 6532TIP3    H241088   5.669   3.830  16.946 -0.8935  0.7888 -0.5116
 6533TIP3   OH241089   0.309   2.094  16.281  0.0098 -0.4871 -0.1017
 6533TIP3    H141090   0.220   2.114  16.311 -0.1654 -0.5334 -0.5731
 6533TIP3    H241091   0.322   2.150  16.205  0.4754 -0.3129  0.1024
 6534TIP3   OH241092   0.043   4.243   4.023 -0.0025  0.1638  0.3031
 6534TIP3    H141093   0.067   4.254   3.931 -0.7989 -0.8628 -0.0444
 6534TIP3    H241094   0.119   4.274   4.072  0.5517  0.4196 -0.7047
 6535TIP3   OH241095   0.660   4.920  12.669 -0.4368  0.1273 -0.3464
 6535TIP3    H141096   0.578   4.964  12.690  0.7619  1.3859  2.0809
 6535TIP3    H241097   0.641   4.827  12.680 -1.5473  0.3942  0.1678
 6536TIP3   OH241098   5.974   2.935  15.120 -0.1321 -0.1495  0.0449
 6536TIP3    H141099   5.965   2.839  15.126 -0.2403 -0.1482 -0.0883
 6536TIP3    H241100   5.982   2.952  15.026 -3.1444  0.2349 -0.2510
 6537TIP3   OH241101   2.128   2.320  11.676 -0.0192  0.6441 -0.1225
 6537TIP3    H141102   2.123   2.376  11.598  2.1274  1.6685  0.4047
 6537TIP3    H241103   2.132   2.381  11.749 -0.6584 -0.2856  0.7143
 6538TIP3   OH241104   4.571   3.142   3.271  0.0337  0.3572  0.0388
 6538TIP3    H141105   4.492   3.188   3.299  0.1193 -0.0860  1.0438
 6538TIP3    H241106   4.539   3.065   3.226 -0.1472 -0.4954  1.5537
 6539TIP3   OH241107   1.566   0.638  14.645  0.1015  0.4857  0.2908
 6539TIP3    H141108   1.471   0.631  14.650  0.1005  0.5383  0.3460
 6539TIP3    H241109   1.585   0.727  14.674  0.0731  0.9006 -0.9281
 6540TIP3   OH241110   2.704   4.376   2.867 -0.8597 -0.4504  0.0211
 6540TIP3    H141111   2.650   4.444   2.909  0.2489 -0.8464  2.2233
 6540TIP3    H241112   2.641   4.322   2.820 -1.7693  2.1808 -2.0398
 6541TIP3   OH241113   5.052   4.571  11.543 -0.6764  0.2338  0.2975
 6541TIP3    H141114   5.127   4.620  11.576  0.0836  0.6093 -1.8463
 6541TIP3    H241115   4.977   4.610  11.588  0.3599 -0.2593  2.6176
 6542TIP3   OH241116   5.764   5.767   4.671 -0.1848 -0.0953  0.0316
 6542TIP3    H141117   5.762   5.850   4.625  0.7642 -0.8787 -1.4876
 6542TIP3    H241118   5.689   5.771   4.732 -1.7757  0.8051 -1.8753
 6543TIP3   OH241119   5.460   5.494  15.903  0.2215 -0.0258 -0.2838
 6543TIP3    H141120   5.450   5.570  15.845  0.4565 -0.5531 -1.0238
 6543TIP3    H241121   5.549   5.463  15.885 -0.2425 -1.1051 -0.7589
 6544TIP3   OH241122   0.826   6.005   1.454  0.6686  0.6298  0.1052
 6544TIP3    H141123   0.908   5.973   1.417  1.3532  1.0833  1.1759
 6544TIP3    H241124   0.765   6.008   1.380  0.4397 -3.3430 -0.0505
 6545TIP3   OH241125   2.209   1.720  14.868 -0.4461  0.7047 -0.1029
 6545TIP3    H141126   2.160   1.801  14.882  0.4794  1.0608  1.3087
 6545TIP3    H241127   2.152   1.651  14.902 -0.8221  0.8764 -0.3842
 6546TIP3   OH241128   4.305   2.931  12.339 -0.4807  0.2338 -0.3598
 6546TIP3    H141129   4.275   2.850  12.299  1.2728 -0.3250 -0.6278
 6546TIP3    H241130   4.260   2.935  12.423  0.5726 -1.8630  0.3633
 6547TIP3   OH241131   3.233   4.360   0.104  0.5243 -0.2838 -0.0188
 6547TIP3    H141132   3.188   4.349   0.021 -0.5508  0.4989  0.4280
 6547TIP3    H241133   3.317   4.400   0.081  0.2340 -0.0667 -0.7242
 6548TIP3   OH241134   2.911   3.233   3.783 -0.3252 -0.3191  0.4736
 6548TIP3    H141135   2.941   3.282   3.706 -0.2429  0.0813  0.7562
 6548TIP3    H241136   2.922   3.141   3.759 -1.3033 -0.2256 -0.3956
 6549TIP3   OH241137   0.370   0.276  11.419 -0.2525 -0.4829 -0.1168
 6549TIP3    H141138   0.384   0.188  11.385  0.6270  0.0153 -1.1091
 6549TIP3    H241139   0.406   0.334  11.352  0.0180  0.6063  0.9208
 6550TIP3   OH241140   1.094   4.459  16.865  0.7285 -0.2553 -0.2881
 6550TIP3    H141141   1.146   4.534  16.837  1.0208 -0.4085 -0.1640
 6550TIP3    H241142   1.158   4.390  16.882  0.6396  0.0299  1.4222
 6551TIP3   OH241143   6.259   5.340  14.660 -0.5580 -0.1602  0.6387
 6551TIP3    H141144   6.233   5.423  14.700 -0.2209 -0.3500  1.2497
 6551TIP3    H241145   6.301   5.291  14.730  1.1881  0.0128 -0.2280
 6552TIP3   OH241146   3.087   5.495  17.191 -0.1162  0.3542  0.5988
 6552TIP3    H141147   3.102   5.576  17.239 -0.5101  0.7851  0.0032
 6552TIP3    H241148   3.143   5.431  17.235  0.6865  1.0919  0.6807
 6553TIP3   OH241149   2.379   2.299  11.299 -0.1138  0.3034 -0.2496
 6553TIP3    H141150   2.365   2.231  11.233 -1.2287  0.5559 -0.2976
 6553TIP3    H241151   2.473   2.296  11.318  0.0511 -0.4231 -1.1372
 6554TIP3   OH241152   6.474   4.451   0.217  0.4497  0.4821 -0.0438
 6554TIP3    H141153   6.490   4.370   0.266  0.0519  0.4159 -0.0216
 6554TIP3    H241154   6.555   4.502   0.229  0.9547 -0.1746 -0.5882
 6555TIP3   OH241155   2.159   0.526  11.142  0.5795  0.1597 -0.0673
 6555TIP3    H141156   2.079   0.499  11.098  0.8302  1.3849 -1.3258
 6555TIP3    H241157   2.230   0.491  11.087  0.9024  0.7820 -0.0526
 6556TIP3   OH241158   4.976   5.887   0.231 -0.1657  0.1013  0.5424
 6556TIP3    H141159   4.918   5.964   0.231 -0.3422  0.0139 -1.2323
 6556TIP3    H241160   5.044   5.909   0.294 -1.8350  0.4185  2.3372
 6557TIP3   OH241161   2.026   0.875  16.421  0.1204 -0.1255  0.8897
 6557TIP3    H141162   2.111   0.894  16.381 -0.6402 -0.0994 -0.8140
 6557TIP3    H241163   1.978   0.958  16.414 -0.4560 -0.4689  0.7312
 6558TIP3   OH241164   6.590   5.680  14.632 -0.2578  0.0169 -0.0750
 6558TIP3    H141165   6.607   5.665  14.539  0.0523  0.0723 -0.0285
 6558TIP3    H241166   6.541   5.603  14.660  0.6901 -0.5708 -0.0043
 6559TIP3   OH241167   4.576   5.835   0.790  0.1328 -0.3730 -0.5717
 6559TIP3    H141168   4.634   5.775   0.838  1.1664  0.1654 -1.0991
 6559TIP3    H241169   4.570   5.797   0.702 -0.4290 -0.4955 -0.4818
 6560TIP3   OH241170   3.090   5.720   3.788  0.1051  0.3791 -0.3572
 6560TIP3    H141171   3.068   5.776   3.713 -0.6622  0.5425 -0.0140
 6560TIP3    H241172   3.146   5.775   3.843  0.6672  0.2614 -0.7955
 6561TIP3   OH241173   2.519   2.498   2.117  0.0706 -0.5661  0.1098
 6561TIP3    H141174   2.589   2.491   2.051 -0.5068 -0.9438 -0.4686
 6561TIP3    H241175   2.548   2.568   2.174  1.0643 -0.8926  0.0319
 6562TIP3   OH241176   2.016   3.435  11.584  0.4268 -0.0321 -0.2729
 6562TIP3    H141177   2.051   3.497  11.647 -1.6378  1.4956 -0.5359
 6562TIP3    H241178   2.022   3.350  11.628 -0.0562  0.8529  1.5843
 6563TIP3   OH241179   5.057   2.348   2.184  0.5360 -0.7607  0.6836
 6563TIP3    H141180   5.035   2.387   2.269 -0.3269 -0.9505  0.5562
 6563TIP3    H241181   5.039   2.418   2.121  1.6473 -0.4530  0.6849
 6564TIP3   OH241182   5.976   0.307  11.262  0.2581 -0.7968 -0.4852
 6564TIP3    H141183   5.959   0.219  11.294 -0.7774 -0.3474  0.2580
 6564TIP3    H241184   5.967   0.363  11.339 -0.5072  0.1079 -1.1958
 6565TIP3   OH241185   3.113   3.104   3.377 -0.1623 -0.2133 -0.2120
 6565TIP3    H141186   3.068   3.062   3.450 -1.0281  1.8112  0.5099
 6565TIP3    H241187   3.204   3.114   3.407  0.3162 -2.3519 -0.7952
 6566TIP3   OH241188   2.542   5.814   2.019  0.2764 -0.8836 -0.0425
 6566TIP3    H141189   2.450   5.840   2.021  0.3226 -0.7659  0.5953
 6566TIP3    H241190   2.544   5.728   2.060  0.5838 -0.4552  0.8718
 6567TIP3   OH241191   0.603   5.357  13.476 -0.1705 -0.1281  0.0517
 6567TIP3    H141192   0.622   5.433  13.532  0.5615  1.1234 -1.7687
 6567TIP3    H241193   0.511   5.338  13.491 -0.3462  1.0853  0.6155
 6568TIP3   OH241194   1.966   0.174   5.796  0.5083  0.2277 -0.2545
 6568TIP3    H141195   1.913   0.096   5.780 -0.7924  1.1027 -0.4035
 6568TIP3    H241196   2.035   0.145   5.856  0.2475 -1.0999 -0.5738
 6569TIP3   OH241197   5.526   3.231   3.515  0.0560  0.1875 -0.0611
 6569TIP3    H141198   5.543   3.326   3.510 -1.2124  0.3716 -1.8694
 6569TIP3    H241199   5.432   3.223   3.500 -0.3679 -1.2464  2.7644
 6570TIP3   OH241200   5.879   3.312   3.520  0.0465  0.4375 -0.2431
 6570TIP3    H141201   5.935   3.330   3.595  0.2675 -1.3328  0.0471
 6570TIP3    H241202   5.797   3.356   3.541 -0.2781 -0.9356  1.5802
 6571TIP3   OH241203   3.738   3.806   4.488 -0.1878 -0.1351  0.5251
 6571TIP3    H141204   3.725   3.743   4.558  2.3431 -2.4411 -0.8904
 6571TIP3    H241205   3.659   3.800   4.435 -0.9563 -0.3755  1.6573
 6572TIP3   OH241206   1.063   4.624  15.644 -0.1653  0.3505 -0.0638
 6572TIP3    H141207   1.065   4.672  15.727  0.7727 -0.1958  0.2444
 6572TIP3    H241208   1.119   4.676  15.585 -0.3547  0.4222 -0.1819
 6573TIP3   OH241209   3.269   4.635  10.847  0.3599 -0.5922 -0.3513
 6573TIP3    H141210   3.264   4.543  10.822 -1.9131 -0.5024 -0.4317
 6573TIP3    H241211   3.196   4.648  10.907  0.5405  1.2058 -0.4638
 6574TIP3   OH241212   2.767   4.412   1.626 -0.5720 -0.3253 -0.0591
 6574TIP3    H141213   2.759   4.369   1.541  0.8818 -1.1344  0.1785
 6574TIP3    H241214   2.705   4.484   1.622  0.7477  0.8078 -2.5452
 6575TIP3   OH241215   5.124   1.829   2.469 -0.2910  0.2467 -0.1721
 6575TIP3    H141216   5.211   1.805   2.502 -0.0069  2.5141  0.9313
 6575TIP3    H241217   5.112   1.775   2.391  0.5053 -2.8135  1.6869
 6576TIP3   OH241218   6.139   6.527   1.461  0.3032  0.4396 -0.7297
 6576TIP3    H141219   6.128   6.594   1.528  1.6089  0.6036 -0.6582
 6576TIP3    H241220   6.217   6.554   1.412 -0.3440  0.0730 -2.0236
 6577TIP3   OH241221   4.367   5.205  15.928  0.6585 -0.0301 -0.3385
 6577TIP3    H141222   4.356   5.199  16.023  3.5779 -0.2569  0.0662
 6577TIP3    H241223   4.303   5.143  15.893  0.5429 -1.0585  1.5482
 6578TIP3   OH241224   4.828   3.891   4.233  0.0658  0.0547  0.0215
 6578TIP3    H141225   4.870   3.820   4.282 -0.8483 -0.5887 -0.1023
 6578TIP3    H241226   4.813   3.960   4.298  2.2766  0.7642 -0.1505
 6579TIP3   OH241227   0.930   0.734  13.235  0.2447 -0.1692  0.4567
 6579TIP3    H141228   0.987   0.781  13.174 -0.2892 -0.0144  0.0723
 6579TIP3    H241229   0.972   0.744  13.320  0.1926  0.9221  0.3637
 6580TIP3   OH241230   6.558   2.101  15.251  0.4188 -0.3414 -0.3069
 6580TIP3    H141231   6.509   2.037  15.198  0.2908 -0.6789  0.2142
 6580TIP3    H241232   6.650   2.080  15.234  0.3872 -0.0102 -0.9201
 6581TIP3   OH241233   5.756   3.295  16.125  0.4872 -0.9077 -0.1000
 6581TIP3    H141234   5.823   3.349  16.166 -1.0943  0.5921  0.6395
 6581TIP3    H241235   5.786   3.283  16.035  2.3087 -1.3297  0.5143
 6582TIP3   OH241236   4.382   4.207  15.870 -0.2053  0.0557 -0.0184
 6582TIP3    H141237   4.446   4.176  15.805  2.5923  3.2643  0.8951
 6582TIP3    H241238   4.321   4.134  15.880  1.2907 -1.9556 -3.5387
 6583TIP3   OH241239   3.825   1.534  13.414  0.6246 -0.0196 -0.1809
 6583TIP3    H141240   3.898   1.575  13.461  0.5406 -0.3679  0.2582
 6583TIP3    H241241   3.867   1.479  13.348  0.7815 -0.8128  0.5675
 6584TIP3   OH241242   6.760   2.226  11.883  0.0235 -1.0959 -0.0403
 6584TIP3    H141243   6.832   2.279  11.919  0.0125 -0.8627 -0.3614
 6584TIP3    H241244   6.685   2.285  11.882 -0.0384 -1.1776 -0.2127
 6585TIP3   OH241245   0.447   6.157   1.442  0.1586 -0.0741 -0.0011
 6585TIP3    H141246   0.429   6.251   1.447  0.9510  0.0935 -0.1404
 6585TIP3    H241247   0.493   6.146   1.359  3.9520  0.1287  1.8696
 6586TIP3   OH241248   4.134   4.126  14.260  0.2732  0.5710 -0.1844
 6586TIP3    H141249   4.207   4.142  14.200  1.7087  0.6493  1.4852
 6586TIP3    H241250   4.171   4.142  14.347 -0.2643 -4.1389  1.2009
 6587TIP3   OH241251   3.134   1.893  12.718  0.5004 -0.2588  0.0085
 6587TIP3    H141252   3.150   1.875  12.626  0.4693 -1.3678  0.1985
 6587TIP3    H241253   3.044   1.863  12.733  1.2039 -2.0816  0.8518
 6588TIP3   OH241254   0.692   4.358  13.024 -0.2653  0.1836 -0.3874
 6588TIP3    H141255   0.695   4.453  13.017 -1.8225  0.3305  0.3834
 6588TIP3    H241256   0.713   4.339  13.115  1.1004 -0.3227 -0.7723
 6589TIP3   OH241257   0.859   2.865  13.903  0.3635 -0.2966 -0.0051
 6589TIP3    H141258   0.834   2.815  13.981 -0.0397  0.1298  0.1434
 6589TIP3    H241259   0.865   2.956  13.933  3.2177 -0.4733  0.2333
 6590TIP3   OH241260   1.760   2.747  14.441 -0.4081  0.0352  0.6695
 6590TIP3    H141261   1.746   2.665  14.488 -0.6865  0.0981  0.6979
 6590TIP3    H241262   1.680   2.759  14.390  0.1516 -0.3762 -0.3455
 6591TIP3   OH241263   5.988   4.487  15.638  0.3448  0.2474 -0.1858
 6591TIP3    H141264   5.931   4.446  15.573  3.1147  0.6839 -3.1948
 6591TIP3    H241265   6.033   4.414  15.679  0.4819  0.0223 -0.7246
 6592TIP3   OH241266   4.963   5.395   3.431  0.2048 -0.1660 -0.3355
 6592TIP3    H141267   5.005   5.377   3.347 -0.0903 -1.2273 -0.2691
 6592TIP3    H241268   4.872   5.416   3.408  0.9442  3.3076 -0.5895
 6593TIP3   OH241269   3.827   3.086  11.698  0.0696  0.3356 -0.2371
 6593TIP3    H141270   3.737   3.110  11.720 -0.0074  0.3419 -0.5564
 6593TIP3    H241271   3.863   3.164  11.657 -0.0959  0.0074 -1.0286
 6594TIP3   OH241272   2.153   3.685  13.759  0.0080 -0.3825 -0.2441
 6594TIP3    H141273   2.108   3.602  13.776 -2.2811  0.4141 -1.9254
 6594TIP3    H241274   2.194   3.707  13.843 -0.9936 -2.2237  0.8037
 6595TIP3   OH241275   6.731   3.098   5.136 -0.1697 -0.3089  0.2301
 6595TIP3    H141276   6.681   3.017   5.131 -1.0214  0.1713  0.6953
 6595TIP3    H241277   6.764   3.101   5.226 -0.1464 -0.1454  0.2174
 6596TIP3   OH241278   5.397   1.988  11.576 -0.2307  0.8691 -0.3498
 6596TIP3    H141279   5.473   2.001  11.519  0.1732 -0.4027 -0.1432
 6596TIP3    H241280   5.355   1.909  11.542 -1.3830  1.4600 -0.3542
 6597TIP3   OH241281   0.443   5.568  15.390 -0.2866 -0.0251  0.4032
 6597TIP3    H141282   0.427   5.608  15.475  0.6016  0.0117  0.5581
 6597TIP3    H241283   0.456   5.642  15.331 -0.1132 -0.0667  0.3905
 6598TIP3   OH241284   6.070   2.458   3.861  0.1463 -0.1230  0.1931
 6598TIP3    H141285   6.160   2.424   3.859 -0.0233 -0.5620 -0.7868
 6598TIP3    H241286   6.026   2.412   3.790 -0.1332  2.0486 -1.1431
 6599TIP3   OH241287   3.451   3.735  13.692 -0.2364 -0.1299 -0.0026
 6599TIP3    H141288   3.429   3.656  13.742 -0.1170  0.0816  0.3801
 6599TIP3    H241289   3.392   3.731  13.616 -0.9922 -0.0323  0.5592
 6600TIP3   OH241290   0.562   5.628   0.552  0.1664  0.5005  0.0711
 6600TIP3    H141291   0.642   5.661   0.509  0.0400  0.0386 -0.5353
 6600TIP3    H241292   0.530   5.703   0.603  0.9459  0.7165  0.2726
 6601TIP3   OH241293   4.267   2.932   4.023 -0.4656 -0.1696 -0.3795
 6601TIP3    H141294   4.199   2.865   4.013 -1.3464  0.5417  0.5671
 6601TIP3    H241295   4.258   2.961   4.114  1.5514 -0.5011 -0.0308
 6602TIP3   OH241296   1.505   3.916  14.525  0.0559  0.3496 -0.3070
 6602TIP3    H141297   1.571   3.849  14.511 -1.3596 -1.2695  0.3965
 6602TIP3    H241298   1.531   3.958  14.607  0.3816 -0.0484 -0.2017
 6603TIP3   OH241299   1.456   2.585  15.107  0.4025 -0.5898  0.5422
 6603TIP3    H141300   1.415   2.577  15.193  1.5499 -1.1046  1.0531
 6603TIP3    H241301   1.445   2.498  15.067 -1.0671 -0.0684 -0.2969
 6604TIP3   OH241302   2.218   5.803  11.711  0.1330  0.7551  0.0753
 6604TIP3    H141303   2.181   5.891  11.717  1.7019  1.4908 -0.3959
 6604TIP3    H241304   2.260   5.800  11.625  3.8554  1.1674  1.6786
 6605TIP3   OH241305   1.444   1.786   3.327 -0.3164  0.1604  0.1204
 6605TIP3    H141306   1.476   1.764   3.240  1.6533  0.4479  0.7172
 6605TIP3    H241307   1.513   1.754   3.386 -1.3903  0.3863  1.5371
 6606TIP3   OH241308   4.818   4.010  12.231 -0.1563 -0.4113  0.2223
 6606TIP3    H141309   4.831   3.939  12.168 -1.5263  0.2670 -0.8634
 6606TIP3    H241310   4.752   3.975  12.292  0.2314 -0.5859  0.5517
 6607TIP3   OH241311   5.760   6.741   4.945  0.1269 -0.0696  0.0396
 6607TIP3    H141312   5.736   6.725   5.036 -0.6948 -0.0439 -0.1672
 6607TIP3    H241313   5.729   6.830   4.928  0.0145 -0.1819 -0.3491
 6608TIP3   OH241314   4.772   0.586  13.407 -0.2161  0.0558  0.4726
 6608TIP3    H141315   4.733   0.546  13.329  0.3136 -0.6475  0.5587
 6608TIP3    H241316   4.810   0.512  13.455 -2.6187  0.0964  2.6575
 6609TIP3   OH241317   3.311   2.829   0.787 -0.2373  0.5770 -0.2292
 6609TIP3    H141318   3.317   2.769   0.862 -0.1206 -0.6331 -1.1605
 6609TIP3    H241319   3.220   2.859   0.787  0.1979  2.0518  1.4454
 6610TIP3   OH241320   6.523   6.115  14.887  0.3580  0.4461  0.3593
 6610TIP3    H141321   6.537   6.074  14.801 -0.0029  0.3373  0.3501
 6610TIP3    H241322   6.563   6.054  14.949 -0.4176 -0.0650  0.3706
 6611TIP3   OH241323   1.004   5.735  12.471  0.1945 -0.2260  0.2720
 6611TIP3    H141324   0.952   5.656  12.489  1.7381 -1.2444  0.4156
 6611TIP3    H241325   0.951   5.785  12.409 -0.9034 -1.2724  0.3318
 6612TIP3   OH241326   1.750   2.731  12.196  0.1100 -0.3378 -0.0444
 6612TIP3    H141327   1.677   2.759  12.141 -0.2308 -0.0067  0.5705
 6612TIP3    H241328   1.774   2.808  12.247 -0.1384 -0.8651  0.8971
 6613TIP3   OH241329   5.601   4.961  12.089  0.3147  0.3037  0.1456
 6613TIP3    H141330   5.545   4.999  12.157 -1.8464  0.6030 -1.6796
 6613TIP3    H241331   5.630   5.037  12.038  0.4517 -0.0446 -0.3004
 6614TIP3   OH241332   6.424   1.227   4.066  0.4311  0.1731 -0.3383
 6614TIP3    H141333   6.489   1.190   4.006  0.0028  1.5028 -1.6655
 6614TIP3    H241334   6.340   1.215   4.022 -0.0605 -0.0275  0.6191
 6615TIP3   OH241335   1.321   2.311  16.757  0.1483 -0.1691  0.1548
 6615TIP3    H141336   1.337   2.219  16.735  1.5504 -0.3688  1.8013
 6615TIP3    H241337   1.226   2.316  16.770  0.1582 -1.6246  0.9934
 6616TIP3   OH241338   6.676   0.905   3.235 -0.1090 -0.6144 -0.1015
 6616TIP3    H141339   6.595   0.920   3.185  0.6342 -0.7363 -1.3632
 6616TIP3    H241340   6.662   0.821   3.279 -0.7860 -0.4798 -0.0471
 6617TIP3   OH241341   4.641   1.288  13.437 -0.3037  0.3465  0.0048
 6617TIP3    H141342   4.650   1.283  13.341 -1.3771  0.1662 -0.0934
 6617TIP3    H241343   4.634   1.382  13.455  1.4544  0.4976  0.0779
 6618TIP3   OH241344   1.895   2.329   6.112  0.3987 -0.0894  0.2510
 6618TIP3    H141345   1.926   2.238   6.108  1.1740  0.1488  0.6732
 6618TIP3    H241346   1.921   2.359   6.199 -1.5470 -0.0600  0.8882
 6619TIP3   OH241347   1.053   2.238  16.685 -0.5610 -0.1097 -0.2357
 6619TIP3    H141348   1.087   2.300  16.620 -0.8260  0.2908 -0.0002
 6619TIP3    H241349   0.973   2.204  16.645  0.7092 -1.9595 -1.3130
 6620TIP3   OH241350   0.511   5.847  14.680 -0.2611  0.3250 -0.0102
 6620TIP3    H141351   0.523   5.756  14.706  1.2127  0.6588  0.6305
 6620TIP3    H241352   0.586   5.893  14.720 -0.4314  1.6374 -1.1294
 6621TIP3   OH241353   4.532   3.372  12.902  0.7871 -0.1431  0.1239
 6621TIP3    H141354   4.568   3.437  12.841  1.3809 -0.3727  0.2192
 6621TIP3    H241355   4.484   3.311  12.846 -1.5860  1.4768  0.2088
 6622TIP3   OH241356   0.932   5.512  11.399 -0.1597  0.7077  0.7899
 6622TIP3    H141357   0.955   5.554  11.316 -3.1141  0.7649 -0.1404
 6622TIP3    H241358   0.851   5.464  11.379  0.5488 -1.6156  2.9830
 6623TIP3   OH241359   1.172   1.272   1.365 -0.4685 -0.3477  0.1579
 6623TIP3    H141360   1.195   1.337   1.431 -0.6628 -1.5932  1.4967
 6623TIP3    H241361   1.226   1.196   1.385 -0.5139 -0.7496 -1.1435
 6624TIP3   OH241362   5.399   4.063  15.004  0.2368  0.4200  0.3853
 6624TIP3    H141363   5.414   4.058  15.099 -1.7118  2.3212  0.8710
 6624TIP3    H241364   5.442   4.145  14.978  1.0832 -0.2783 -0.4672
 6625TIP3   OH241365   0.173   3.692  12.720  0.3895  0.0739  0.1461
 6625TIP3    H141366   0.208   3.766  12.770 -0.8072  0.0629  1.0313
 6625TIP3    H241367   0.217   3.615  12.756 -0.9788 -0.0183  1.7446
 6626TIP3   OH241368   4.264   1.600   0.420 -0.2002  0.3451 -0.3927
 6626TIP3    H141369   4.255   1.691   0.394  0.0142  0.6204  0.4703
 6626TIP3    H241370   4.235   1.550   0.343 -0.4797  1.1323 -0.8082
 6627TIP3   OH241371   0.298   3.320   4.976 -0.2820 -0.5698  0.4440
 6627TIP3    H141372   0.392   3.317   4.996  0.0411 -0.9945 -1.0140
 6627TIP3    H241373   0.292   3.371   4.895 -1.2484 -0.9746  0.2446
 6628TIP3   OH241374   2.332   5.892  16.296 -0.1892 -0.7527  0.2270
 6628TIP3    H141375   2.374   5.956  16.238  0.0316 -0.6791  0.4668
 6628TIP3    H241376   2.314   5.817  16.239 -1.6279  0.0030 -0.3633
 6629TIP3   OH241377   4.339   6.410  11.384  0.4551 -0.1959  0.0454
 6629TIP3    H141378   4.427   6.372  11.377  0.2957 -1.5979  3.3575
 6629TIP3    H241379   4.303   6.370  11.463 -2.6415  1.4497 -0.3850
 6630TIP3   OH241380   4.654   0.699   0.192 -0.1861 -0.5386 -0.5498
 6630TIP3    H141381   4.746   0.686   0.171  0.0536  1.0710 -0.5988
 6630TIP3    H241382   4.652   0.712   0.287 -0.4774 -1.3682 -0.4321
 6631TIP3   OH241383   0.824   1.599  12.124 -0.4570  0.0153  0.4058
 6631TIP3    H141384   0.891   1.608  12.057  0.7791 -2.8740  1.1018
 6631TIP3    H241385   0.848   1.662  12.191 -0.2209  1.1198 -0.6870
 6632TIP3   OH241386   5.471   3.276   1.139  0.0112  0.7784  0.3561
 6632TIP3    H141387   5.548   3.282   1.082 -1.1393  2.0325 -1.1548
 6632TIP3    H241388   5.439   3.187   1.126  0.9757  0.3652  0.7095
 6633TIP3   OH241389   4.433   2.702  14.288 -0.2561  0.0188 -0.1656
 6633TIP3    H141390   4.515   2.736  14.253  0.8946 -0.0905  2.1758
 6633TIP3    H241391   4.406   2.769  14.351 -0.6192 -1.0840  0.8754
 6634TIP3   OH241392   2.501   5.349   0.634 -0.2707 -0.2099  0.2134
 6634TIP3    H141393   2.462   5.314   0.554 -0.4392  0.7682 -0.1447
 6634TIP3    H241394   2.558   5.420   0.604  1.5238 -1.3582  0.7611
 6635TIP3   OH241395   5.414   2.617   3.025  0.7659 -0.9710 -0.1466
 6635TIP3    H141396   5.449   2.535   3.061  1.8413  0.4545  2.3462
 6635TIP3    H241397   5.358   2.651   3.094  0.5234  0.5131 -1.0422
 6636TIP3   OH241398   2.348   6.313   4.513  0.3058  0.4940 -0.1352
 6636TIP3    H141399   2.343   6.296   4.419 -0.0854  0.8531 -0.1832
 6636TIP3    H241400   2.271   6.269   4.549  0.4576  0.3548  0.0184
 6637TIP3   OH241401   2.053   0.909   3.866 -0.1139 -0.3420  0.2538
 6637TIP3    H141402   2.017   0.896   3.779 -0.2973  0.6499  0.1663
 6637TIP3    H241403   2.111   0.985   3.856 -1.3482  0.7937  1.3083
 6638TIP3   OH241404   5.498   4.621  15.551  0.6159  0.4308  0.9396
 6638TIP3    H141405   5.495   4.716  15.538 -0.5361  0.2759 -0.0806
 6638TIP3    H241406   5.417   4.589  15.513  0.9434 -0.9656  1.3676
 6639TIP3   OH241407   3.125   4.332   3.929 -0.4199  0.4146 -0.1868
 6639TIP3    H141408   3.116   4.427   3.926  1.8272  0.6621 -1.2926
 6639TIP3    H241409   3.079   4.302   3.850  0.1311  0.7422 -0.6434
 6640TIP3   OH241410   2.228   4.290   3.681  0.7124  0.4057 -0.1577
 6640TIP3    H141411   2.295   4.265   3.617  1.0996  1.0067  0.0068
 6640TIP3    H241412   2.148   4.247   3.649  1.5352 -1.8870  0.6699
 6641TIP3   OH241413   4.657   1.624   0.537  0.5320  0.2079 -0.3276
 6641TIP3    H141414   4.695   1.710   0.520  0.7836 -0.0413 -1.0602
 6641TIP3    H241415   4.621   1.630   0.625  0.9621  0.9163 -0.1997
 6642TIP3   OH241416   6.311   0.400   4.065 -0.2099 -0.2957 -0.6444
 6642TIP3    H141417   6.303   0.481   4.014  1.5434  0.9940  0.9782
 6642TIP3    H241418   6.276   0.423   4.152  1.6773 -0.7694  0.2843
 6643TIP3   OH241419   3.545   5.518   3.589  0.1143  0.0554  0.7768
 6643TIP3    H141420   3.594   5.595   3.619  0.1285  0.5953 -0.5690
 6643TIP3    H241421   3.453   5.542   3.601  0.1255 -0.4870  2.1536
 6644TIP3   OH241422   0.141   1.357  15.250 -0.2243 -0.1734 -0.6152
 6644TIP3    H141423   0.215   1.417  15.241  1.1813 -1.3061  2.1576
 6644TIP3    H241424   0.065   1.415  15.258  0.8024  1.1729 -0.1340
 6645TIP3   OH241425   2.070   0.025  16.962 -0.0211  0.6395 -0.0027
 6645TIP3    H141426   2.024   0.021  16.878 -0.4932 -3.1995  0.2527
 6645TIP3    H241427   2.151  -0.024  16.948  0.5882  1.1699  1.4407
 6646TIP3   OH241428   1.514   1.368  14.488 -0.2088 -0.1508  0.0311
 6646TIP3    H141429   1.447   1.307  14.457  0.0609 -0.7018  0.5199
 6646TIP3    H241430   1.568   1.385  14.410 -0.8666  0.2436 -0.3438
 6647TIP3   OH241431   6.027   3.438   5.762 -0.3064  0.2589 -0.0781
 6647TIP3    H141432   5.994   3.528   5.764  3.3733  1.8243 -1.2320
 6647TIP3    H241433   5.987   3.400   5.683 -1.1254  1.2096 -0.1483
 6648TIP3   OH241434   4.790   1.113  11.336 -0.1439 -0.0562  0.8389
 6648TIP3    H141435   4.748   1.059  11.270 -3.2618  1.6386  1.2758
 6648TIP3    H241436   4.802   1.054  11.411  0.6219 -1.2005 -0.1459
 6649TIP3   OH241437   0.940   1.296  13.317  0.0815 -0.0334  0.4524
 6649TIP3    H141438   0.935   1.223  13.256  0.5222  2.6910 -3.1753
 6649TIP3    H241439   0.984   1.260  13.394  1.2296 -3.3191 -1.5450
 6650TIP3   OH241440   6.391   2.703   4.980 -0.0315  0.3026 -0.1156
 6650TIP3    H141441   6.363   2.740   4.896 -1.7493  0.4264  0.4868
 6650TIP3    H241442   6.310   2.692   5.030  0.9803  0.4096  1.6114
 6651TIP3   OH241443   6.742   0.900  13.782 -0.1674 -0.7447  0.1594
 6651TIP3    H141444   6.713   0.957  13.853 -1.0909 -0.6086 -0.3024
 6651TIP3    H241445   6.824   0.862  13.813  0.7273  1.1907  0.2845
 6652TIP3   OH241446   4.995   1.665   0.470  0.1174  0.1098 -0.1581
 6652TIP3    H141447   5.089   1.683   0.464  0.0244  0.8305  0.3118
 6652TIP3    H241448   4.960   1.742   0.516 -0.7798  0.1140 -0.8276
 6653TIP3   OH241449   5.115   1.716  15.575 -0.1650 -0.0686 -0.6463
 6653TIP3    H141450   5.199   1.670  15.572 -0.9058 -1.6538  0.9174
 6653TIP3    H241451   5.109   1.749  15.665 -0.8058  0.8914 -1.0216
 6654TIP3   OH241452   1.285   5.372  12.737 -0.2653 -0.2536 -0.2058
 6654TIP3    H141453   1.293   5.460  12.699  1.4448 -0.6560 -0.8728
 6654TIP3    H241454   1.352   5.370  12.805 -0.6386 -0.8843  0.1490
 6655TIP3   OH241455   4.829   0.701   1.670 -0.0687  0.1840  0.2514
 6655TIP3    H141456   4.780   0.637   1.619  0.8850  0.0000 -0.4548
 6655TIP3    H241457   4.765   0.768   1.694 -0.8656 -0.5501  0.1882
 6656TIP3   OH241458   3.549   2.142   2.427 -0.2794  0.0836 -0.5146
 6656TIP3    H141459   3.550   2.047   2.432 -1.4222  0.1219  2.3196
 6656TIP3    H241460   3.641   2.167   2.419 -0.0532 -1.2010 -3.0878
 6657TIP3   OH241461   1.130   4.969  12.415  0.0710  0.4337 -0.3381
 6657TIP3    H141462   1.187   5.011  12.479 -0.3793  0.1851  0.2402
 6657TIP3    H241463   1.050   4.949  12.463 -0.2519  0.1743 -0.9614
 6658TIP3   OH241464   6.629   4.002   5.433 -0.4778 -0.2623  0.3395
 6658TIP3    H141465   6.588   4.064   5.493  0.0697  0.1140  0.3259
 6658TIP3    H241466   6.578   3.922   5.443 -1.5398  0.3474 -0.0563
 6659TIP3   OH241467   3.596   0.234  15.174 -0.1910  0.2653 -0.4880
 6659TIP3    H141468   3.652   0.196  15.107  0.8874  0.0066  0.5158
 6659TIP3    H241469   3.507   0.215  15.144  0.2755 -0.6362 -1.3905
 6660TIP3   OH241470   1.304   4.762  12.286 -0.1870 -0.2016  0.3151
 6660TIP3    H141471   1.242   4.801  12.347  0.1372  1.9406 -0.6506
 6660TIP3    H241472   1.285   4.802  12.202  2.4325  0.5413 -0.0260
 6661TIP3   OH241473   1.336   0.196   2.470 -0.2202 -0.2490  0.5063
 6661TIP3    H141474   1.273   0.234   2.408  1.9436 -0.5944 -2.1074
 6661TIP3    H241475   1.340   0.258   2.542 -1.7881  0.9556 -0.3816
 6662TIP3   OH241476   4.692   3.652  15.545 -0.1119 -0.0987  0.2513
 6662TIP3    H141477   4.635   3.655  15.469 -1.0232  2.7249  0.9159
 6662TIP3    H241478   4.660   3.723  15.602  2.3859 -0.1503  1.8836
 6663TIP3   OH241479   4.587   4.291   2.124  0.2337  0.0802 -0.5391
 6663TIP3    H141480   4.532   4.334   2.190  0.2473 -1.4084  0.4862
 6663TIP3    H241481   4.660   4.254   2.174 -0.0038 -1.5006 -1.3079
 6664TIP3   OH241482   1.415   0.952   3.827 -0.1519  0.4571  0.3042
 6664TIP3    H141483   1.392   1.002   3.905  0.6229  0.7788  0.3352
 6664TIP3    H241484   1.431   1.017   3.759 -0.2165  0.2076  0.0461
 6665TIP3   OH241485   0.076   5.392   2.929  0.3822  0.1853  0.0054
 6665TIP3    H141486   0.066   5.470   2.875  0.6035 -0.8550 -1.6248
 6665TIP3    H241487   0.108   5.325   2.868 -0.9824 -1.5152  1.0566
 6666TIP3   OH241488   3.953   5.833   3.987 -0.4033  0.2212 -0.1766
 6666TIP3    H141489   4.017   5.876   4.043 -1.6285 -0.3024  1.7496
 6666TIP3    H241490   4.001   5.761   3.946  0.7242  1.1147 -0.4932
 6667TIP3   OH241491   5.223   3.877  15.189 -0.2240  0.5316  0.1985
 6667TIP3    H141492   5.233   3.797  15.138  0.2231  2.2677 -2.6883
 6667TIP3    H241493   5.219   3.848  15.280 -2.5875 -2.9374 -0.8062
 6668TIP3   OH241494   0.818   5.432   5.414  0.4971 -0.5189 -0.0250
 6668TIP3    H141495   0.909   5.412   5.395  1.6267 -0.0290  4.0574
 6668TIP3    H241496   0.819   5.522   5.446 -1.4788 -0.4532  0.0025
 6669TIP3   OH241497   3.666   4.031  14.799 -0.1106 -0.3221  0.4241
 6669TIP3    H141498   3.617   3.949  14.788 -0.1776 -0.4416  1.5554
 6669TIP3    H241499   3.757   4.004  14.809 -0.2327 -0.3428  1.6689
 6670TIP3   OH241500   6.125   0.085  16.924  0.3792 -0.0753  0.5042
 6670TIP3    H141501   6.133   0.160  16.983  2.4490 -0.6688  1.0855
 6670TIP3    H241502   6.045   0.041  16.951  0.5998  0.3966  2.0453
 6671TIP3   OH241503   4.065   1.010  15.885 -0.3426  0.2852  0.3443
 6671TIP3    H141504   4.013   0.993  15.806  0.2595  0.3644 -0.0744
 6671TIP3    H241505   4.076   1.105  15.887  2.2562  0.1227 -1.2175
 6672TIP3   OH241506   0.368   2.724  11.189  0.1355  0.1536  0.4640
 6672TIP3    H141507   0.381   2.646  11.135  0.8552 -0.3241  1.2936
 6672TIP3    H241508   0.320   2.785  11.133 -2.4717 -1.6968  0.4857
 6673TIP3   OH241509   6.584   2.022   1.600  0.4534 -0.5912  0.3427
 6673TIP3    H141510   6.572   1.928   1.614 -0.1098 -0.5961 -0.1136
 6673TIP3    H241511   6.674   2.039   1.627  0.4402 -1.1923  0.7821
 6674TIP3   OH241512   5.790   4.913  11.040 -0.3657 -0.7914  0.2315
 6674TIP3    H141513   5.740   4.894  10.961 -0.8322 -1.8521  0.7551
 6674TIP3    H241514   5.875   4.942  11.008 -1.4078  1.4645 -0.6777
 6675TIP3   OH241515   3.373   6.499   1.956  0.4305 -0.6777  0.4102
 6675TIP3    H141516   3.406   6.583   1.924 -0.4734  0.3630  2.0632
 6675TIP3    H241517   3.417   6.487   2.040 -0.0722 -1.4549  0.5675
 6676TIP3   OH241518   1.003   5.416  16.019  0.1752  0.3399 -0.3635
 6676TIP3    H141519   0.944   5.350  15.983  1.4631 -1.0819  0.0168
 6676TIP3    H241520   0.981   5.421  16.112  0.6467 -0.2141 -0.2157
 6677TIP3   OH241521   1.787   5.800   1.602  0.0657 -0.1167 -0.6526
 6677TIP3    H141522   1.711   5.748   1.627  1.4260 -1.5465  0.7730
 6677TIP3    H241523   1.831   5.820   1.684  1.5572  0.1305 -1.4757
 6678TIP3   OH241524   5.815   4.930   3.084 -0.1431  0.2999 -0.0959
 6678TIP3    H141525   5.888   4.930   3.145  1.2493 -0.1806 -1.6947
 6678TIP3    H241526   5.781   5.020   3.088  0.6161  0.5694  0.5475
 6679TIP3   OH241527   3.779   6.264  16.797 -0.0922  0.0045 -0.5631
 6679TIP3    H141528   3.703   6.277  16.740 -1.4954  0.4707  1.3278
 6679TIP3    H241529   3.743   6.225  16.876  1.4638  1.2025  0.8046
 6680TIP3   OH241530   2.707   3.651   4.822  0.7586 -0.0540  0.2333
 6680TIP3    H141531   2.696   3.620   4.732  0.2475 -0.7026  0.5089
 6680TIP3    H241532   2.645   3.598   4.873  2.1180 -0.7639  1.2026
 6681TIP3   OH241533   6.701   2.033  16.102  0.1032 -0.4930  0.1032
 6681TIP3    H141534   6.669   2.033  16.193  3.1165 -0.7479  1.2865
 6681TIP3    H241535   6.703   1.940  16.078  0.4821 -0.5191  0.2365
 6682TIP3   OH241536   5.658   6.176  16.675  0.6410 -0.5354  0.0242
 6682TIP3    H141537   5.573   6.161  16.717 -0.3051  3.1269 -0.3040
 6682TIP3    H241538   5.678   6.092  16.633 -3.7769 -1.0784 -1.5625
 6683TIP3   OH241539   3.495   6.555   2.813 -0.3211 -0.2691  0.2807
 6683TIP3    H141540   3.422   6.584   2.867 -0.4847 -2.0731  1.0818
 6683TIP3    H241541   3.568   6.543   2.874 -0.3231 -1.7146  0.0259
 6684TIP3   OH241542   4.678   4.838   3.018  0.3823  0.8321  0.1470
 6684TIP3    H141543   4.637   4.754   2.999 -1.2080  1.7043 -0.5749
 6684TIP3    H241544   4.771   4.825   2.999 -0.0711 -0.3250 -1.5208
 6685TIP3   OH241545   6.681   5.653  10.737 -0.1355  0.1617  0.0980
 6685TIP3    H141546   6.768   5.667  10.774 -0.0126  0.4244 -0.2866
 6685TIP3    H241547   6.677   5.559  10.719  0.8545  0.4646 -1.8329
 6686TIP3   OH241548   0.034   2.867   3.005 -0.3588 -0.4041 -0.2085
 6686TIP3    H141549   0.122   2.833   3.019 -0.1036 -0.0472 -0.8782
 6686TIP3    H241550  -0.024   2.795   3.027  0.1585 -1.2340 -1.4467
 6687TIP3   OH241551   3.309   4.360  15.206 -0.4206  0.3097  0.1597
 6687TIP3    H141552   3.249   4.312  15.148 -0.3958 -0.4866  0.7797
 6687TIP3    H241553   3.388   4.371  15.153 -0.0200 -1.3272  0.3647
 6688TIP3   OH241554   5.701   3.060   6.657  0.8209  0.1163 -0.2666
 6688TIP3    H141555   5.745   3.108   6.587  0.5091  1.8285  0.6375
 6688TIP3    H241556   5.765   2.995   6.686  1.2288 -0.0982 -1.6111
 6689TIP3   OH241557   4.707   0.251  11.196  0.5127  0.4251 -0.5749
 6689TIP3    H141558   4.732   0.220  11.109  1.6350  0.0243 -0.1299
 6689TIP3    H241559   4.790   0.261  11.243 -0.0192  1.4029  0.2003
 6690TIP3   OH241560   1.106   0.654  13.464 -0.0378 -0.1031 -0.7939
 6690TIP3    H141561   1.184   0.689  13.508 -1.8374  1.9749  1.0193
 6690TIP3    H241562   1.106   0.561  13.486  1.3364  0.0831  0.1259
 6691TIP3   OH241563   5.553   4.404   3.962 -0.0486 -0.1769  0.2529
 6691TIP3    H141564   5.596   4.488   3.947  0.2854 -0.4166 -0.1320
 6691TIP3    H241565   5.465   4.428   3.993 -0.4890  0.3341 -1.2862
 6692TIP3   OH241566   3.075   6.722   4.894 -0.6725 -0.0376  0.3115
 6692TIP3    H141567   3.145   6.762   4.842  0.3143 -1.4534  0.5008
 6692TIP3    H241568   2.995   6.738   4.843 -0.2217  1.4933  0.0316
 6693TIP3   OH241569   5.260   1.914   5.452  0.3477 -0.1567 -0.0459
 6693TIP3    H141570   5.305   1.835   5.480 -0.7758 -0.7612  0.1120
 6693TIP3    H241571   5.168   1.899   5.474 -0.0839  0.6619 -1.1610
 6694TIP3   OH241572   4.680   6.308  11.063 -0.8685  0.2109  0.1405
 6694TIP3    H141573   4.676   6.264  10.978 -0.8942  0.8795 -0.2097
 6694TIP3    H241574   4.741   6.380  11.049  0.1127 -0.4169  1.0375
 6695TIP3   OH241575   1.160   6.218   3.733 -0.0448  0.2783  0.1245
 6695TIP3    H141576   1.247   6.232   3.696 -0.1590  0.5817 -0.0261
 6695TIP3    H241577   1.102   6.209   3.657 -0.0144 -0.7673  0.2145
 6696TIP3   OH241578   3.523   1.306   1.385  0.8255 -0.9754 -0.0583
 6696TIP3    H141579   3.455   1.349   1.437  0.1899  0.3905 -1.9196
 6696TIP3    H241580   3.591   1.373   1.375  1.1553 -1.3777 -0.5740
 6697TIP3   OH241581   5.804   4.088   6.450  0.5229 -0.5368 -0.5117
 6697TIP3    H141582   5.884   4.037   6.464 -0.2344 -1.5544  0.2377
 6697TIP3    H241583   5.740   4.025   6.417  0.3737  0.5400 -2.4307
 6698TIP3   OH241584   4.264   2.270   0.247 -0.2375 -0.1731  0.3472
 6698TIP3    H141585   4.310   2.273   0.163 -0.1070 -0.8388  0.3885
 6698TIP3    H241586   4.172   2.258   0.224 -0.1870 -0.4785  0.2980
 6699TIP3   OH241587   0.836   1.956   3.214 -0.0320  0.4866  0.1973
 6699TIP3    H141588   0.843   2.006   3.132  0.4982 -0.1243 -0.1424
 6699TIP3    H241589   0.834   1.864   3.186 -0.7619  0.3039  0.8280
 6700TIP3   OH241590   2.937   1.173   1.680 -0.2931  0.1915 -0.4745
 6700TIP3    H141591   2.884   1.113   1.628  1.8509 -1.3059 -1.0641
 6700TIP3    H241592   2.952   1.127   1.762 -0.8250  1.1001  0.1533
 6701TIP3   OH241593   5.525   6.123   2.209 -0.1004 -0.4433  0.1340
 6701TIP3    H141594   5.571   6.181   2.269  0.4666  1.2100 -1.7794
 6701TIP3    H241595   5.585   6.050   2.194  0.4132 -0.0768  0.3800
 6702TIP3   OH241596   6.155   3.336   0.024 -0.0055  0.4042  0.1094
 6702TIP3    H141597   6.075   3.379   0.055 -1.4020 -0.6386 -1.9043
 6702TIP3    H241598   6.167   3.262   0.083  1.3101  2.2253  2.3548
 6703TIP3   OH241599   5.354   5.145   2.169 -0.0869  0.2211  0.0604
 6703TIP3    H141600   5.334   5.064   2.216  2.4116 -1.0482 -0.8515
 6703TIP3    H241601   5.323   5.129   2.080 -0.1376  0.5034  0.0263
 6704TIP3   OH241602   6.038   2.137   2.469  0.1323  0.6265  0.2508
 6704TIP3    H141603   6.066   2.198   2.538  3.9126 -0.9788  0.3843
 6704TIP3    H241604   6.051   2.186   2.388  3.7894  0.0597  0.3087
 6705TIP3   OH241605   2.704   3.183  14.510  0.3918 -0.4624 -0.0046
 6705TIP3    H141606   2.655   3.215  14.586 -0.0254  0.4731 -0.6396
 6705TIP3    H241607   2.718   3.261  14.456  1.3491 -0.9720 -0.5226
 6706TIP3   OH241608   4.791   0.025  16.326 -0.1662 -0.2357  0.1281
 6706TIP3    H141609   4.750  -0.043  16.272  2.8802 -1.9148 -0.2536
 6706TIP3    H241610   4.734   0.032  16.402 -1.9399 -1.3257 -1.0249
 6707TIP3   OH241611   2.249   2.299   6.285  0.0510  0.4562 -0.2569
 6707TIP3    H141612   2.176   2.328   6.340  2.3853  1.2883  2.6879
 6707TIP3    H241613   2.240   2.204   6.280  0.1647  0.2544  2.3531
 6708TIP3   OH241614   5.728   3.139   0.105  0.1937 -0.7062 -0.1699
 6708TIP3    H141615   5.802   3.190   0.073 -0.8905  1.0705  0.0273
 6708TIP3    H241616   5.652   3.173   0.057 -0.6429 -1.8410  0.2902
 6709TIP3   OH241617   0.097   2.694   6.495  0.2820  0.1694 -0.7411
 6709TIP3    H141618   0.033   2.724   6.431 -0.1298  0.2969 -0.2820
 6709TIP3    H241619   0.168   2.758   6.490 -0.1169  0.6350 -0.5033
 6710TIP3   OH241620   4.262   3.493  13.216 -0.1041  0.2187  0.7138
 6710TIP3    H141621   4.187   3.550  13.201 -0.0156  0.2104  0.2514
 6710TIP3    H241622   4.335   3.535  13.171  1.1373  2.2773  4.1883
 6711TIP3   OH241623   1.769   5.912  13.798 -0.1749 -0.1897 -0.0411
 6711TIP3    H141624   1.811   5.897  13.883 -1.9232  0.9939  1.0994
 6711TIP3    H241625   1.684   5.868  13.804 -1.2353  1.6852 -0.3005
 6712TIP3   OH241626   2.105   0.847   1.796  0.2811 -0.3784  0.3627
 6712TIP3    H141627   2.017   0.812   1.784  0.0040  0.3999  0.0684
 6712TIP3    H241628   2.095   0.916   1.861  1.0859 -1.8378  2.1210
 6713TIP3   OH241629   4.278   3.927   5.323 -0.9900 -0.2670  0.1927
 6713TIP3    H141630   4.224   3.848   5.335  1.3938 -2.0937 -0.3136
 6713TIP3    H241631   4.335   3.929   5.399 -0.4126  0.4875 -0.2486
 6714TIP3   OH241632   3.961   3.905  11.365  0.6710 -0.3533  0.0664
 6714TIP3    H141633   3.888   3.892  11.425  0.5066  0.6793  0.1100
 6714TIP3    H241634   3.948   3.841  11.295 -0.4010 -0.0265 -0.0470
 6715TIP3   OH241635   5.325   0.285   1.440  0.0682 -0.0991  0.1422
 6715TIP3    H141636   5.345   0.231   1.363  0.5483 -0.0679  0.2381
 6715TIP3    H241637   5.237   0.318   1.425 -0.5411 -1.5232  0.4333
 6716TIP3   OH241638   2.368   4.762   4.822  0.3370  0.7447 -0.4235
 6716TIP3    H141639   2.373   4.731   4.732 -1.6576  0.0784 -0.3580
 6716TIP3    H241640   2.293   4.716   4.859  0.3066  1.9928  1.1830
 6717TIP3   OH241641   5.629   3.741   4.768  0.1858 -0.1546 -0.0743
 6717TIP3    H141642   5.589   3.780   4.846  0.7388  0.1832  0.0498
 6717TIP3    H241643   5.716   3.781   4.764  0.4634 -0.7804 -0.4006
 6718TIP3   OH241644   3.338   2.243   3.386 -0.4841  0.6015  0.1678
 6718TIP3    H141645   3.362   2.168   3.331  0.4832  1.0490 -0.0464
 6718TIP3    H241646   3.278   2.207   3.452 -0.2256 -0.3031 -0.0838
 6719TIP3   OH241647   1.015   4.314   5.622 -0.5221  0.2579 -0.3071
 6719TIP3    H141648   1.106   4.324   5.595 -0.5832  1.2082 -0.1999
 6719TIP3    H241649   0.989   4.229   5.587  0.1482  0.3542 -1.0790
 6720TIP3   OH241650   0.252   4.746   2.755  0.7126  0.9158 -0.8568
 6720TIP3    H141651   0.292   4.789   2.679 -0.0394  0.9954 -1.2120
 6720TIP3    H241652   0.327   4.717   2.808  1.4438 -2.6186 -3.4599
 6721TIP3   OH241653   2.450   6.145  16.817  0.4248 -0.9412 -0.2234
 6721TIP3    H141654   2.451   6.185  16.904 -0.8584  0.5776 -0.8557
 6721TIP3    H241655   2.536   6.103  16.808  2.5521  2.9442 -0.0450
 6722TIP3   OH241656   1.609   2.434   1.286  0.0633 -0.2913  0.5218
 6722TIP3    H141657   1.646   2.496   1.350  0.5395 -1.0284  0.9816
 6722TIP3    H241658   1.675   2.429   1.217  0.6479 -1.2665  1.1249
 6723TIP3   OH241659   1.508   3.423  15.185  0.4367 -0.4281  0.0686
 6723TIP3    H141660   1.518   3.518  15.195  1.5072 -0.7010  2.4965
 6723TIP3    H241661   1.590   3.387  15.219 -1.1675 -2.2820  2.3909
 6724TIP3   OH241662   1.205   0.843  14.856  0.9498  0.1885 -0.1372
 6724TIP3    H141663   1.118   0.804  14.844  2.0287 -2.4684  0.0143
 6724TIP3    H241664   1.225   0.827  14.949  2.2768 -0.8462 -0.5708
 6725TIP3   OH241665   0.517   1.522   1.780  0.9275  0.0799 -0.1151
 6725TIP3    H141666   0.469   1.585   1.727  1.9506  1.0112  0.0350
 6725TIP3    H241667   0.482   1.534   1.869 -1.2837 -1.9641 -0.6067
 6726TIP3   OH241668   0.407   3.453  12.273 -0.0245  0.2341 -0.2147
 6726TIP3    H141669   0.338   3.503  12.230 -0.5199  0.2886  0.6124
 6726TIP3    H241670   0.436   3.510  12.345 -0.4151 -0.5383  0.5775
 6727TIP3   OH241671   3.684   3.605   6.127  1.2376 -0.2072  0.0558
 6727TIP3    H141672   3.600   3.602   6.083  1.5676 -1.1723 -0.5449
 6727TIP3    H241673   3.701   3.514   6.152  2.1785 -0.0536  0.0112
 6728TIP3   OH241674   0.817   6.479   2.227 -0.0720 -0.1902 -0.5848
 6728TIP3    H141675   0.874   6.413   2.187  1.9346  0.6055  0.7596
 6728TIP3    H241676   0.819   6.552   2.165  0.3549 -0.1951 -0.5859
 6729TIP3   OH241677   3.995   3.814   2.439 -0.2765 -0.1946 -0.0433
 6729TIP3    H141678   3.914   3.802   2.390  1.9569 -1.3760 -3.8484
 6729TIP3    H241679   4.062   3.828   2.372  3.2883 -2.7751  2.5872
 6730TIP3   OH241680   3.043   0.858  12.624 -0.2772 -0.1121  0.2446
 6730TIP3    H141681   2.988   0.780  12.615  0.0948 -0.5663  1.5733
 6730TIP3    H241682   3.130   0.822  12.643 -0.3145  0.6153  1.9314
 6731TIP3   OH241683   4.562   4.268  13.950  0.0747 -0.0915 -0.8163
 6731TIP3    H141684   4.588   4.336  13.888 -0.3367  0.8901  0.0648
 6731TIP3    H241685   4.572   4.186  13.901  3.8840  0.2107 -0.9055
 6732TIP3   OH241686   0.159   3.629  15.244 -0.4395 -0.5478  0.0157
 6732TIP3    H141687   0.140   3.627  15.150 -0.2900 -1.5997 -0.0025
 6732TIP3    H241688   0.243   3.674  15.250 -0.4375 -0.4937 -0.3565
 6733TIP3   OH241689   5.859   5.674  13.577  0.2795  0.3276 -0.0676
 6733TIP3    H141690   5.878   5.583  13.554  0.4238  0.3340  0.0271
 6733TIP3    H241691   5.826   5.669  13.667 -0.7077  0.2558 -0.4255
 6734TIP3   OH241692   6.098   6.031  15.037  0.3808 -0.3517 -0.5809
 6734TIP3    H141693   6.051   5.948  15.028  0.1060 -0.2968  0.3354
 6734TIP3    H241694   6.142   6.042  14.952  0.0500 -1.1992 -0.8746
 6735TIP3   OH241695   1.004   5.821  16.932  0.4108  0.1013  0.2008
 6735TIP3    H141696   1.035   5.911  16.941 -0.7349  0.5718 -0.3005
 6735TIP3    H241697   0.991   5.810  16.838 -2.6964  0.6152  0.4608
 6736TIP3   OH241698   1.098   2.801  12.511 -0.0827 -0.2551 -0.2059
 6736TIP3    H141699   1.065   2.731  12.455 -2.3543  0.6459 -0.0982
 6736TIP3    H241700   1.123   2.757  12.592  0.5422 -1.1909 -0.8808
 6737TIP3   OH241701   5.018   4.623  11.121  0.2514 -0.0803 -0.3840
 6737TIP3    H141702   4.958   4.661  11.184 -0.4408 -1.3897 -0.2170
 6737TIP3    H241703   4.962   4.594  11.049  0.8593  0.0215 -0.9104
 6738TIP3   OH241704   4.302   1.715  12.537  0.3808  0.1269  0.0495
 6738TIP3    H141705   4.237   1.744  12.473  0.6092  0.4424 -0.0437
 6738TIP3    H241706   4.252   1.668  12.603 -0.2818  2.3113  1.2020
 6739TIP3   OH241707   5.249   0.854   0.697  0.0071 -0.0090 -0.1977
 6739TIP3    H141708   5.244   0.928   0.637  2.3085  0.3520 -0.0382
 6739TIP3    H241709   5.283   0.891   0.778  2.0562 -1.3214 -0.3888
 6740TIP3   OH241710   6.309   6.265  14.960  0.2890  0.8223 -0.1740
 6740TIP3    H141711   6.366   6.193  14.933 -0.3279  0.0794  0.4768
 6740TIP3    H241712   6.320   6.331  14.891  0.0288 -0.3385 -1.3674
 6741TIP3   OH241713   2.129   4.505   3.358  0.0489 -0.1946  0.5401
 6741TIP3    H141714   2.203   4.444   3.364  0.0783 -0.2829 -0.6095
 6741TIP3    H241715   2.165   4.590   3.383  1.6835  0.6684 -3.9392
 6742TIP3   OH241716   0.954   0.605   3.686 -0.2208 -0.2218 -0.0955
 6742TIP3    H141717   1.014   0.568   3.750  1.1636  2.7354  0.4354
 6742TIP3    H241718   0.916   0.681   3.730 -0.1483  1.1811 -2.3405
 6743TIP3   OH241719   4.502   0.563  12.401 -0.0634 -0.0207 -0.1504
 6743TIP3    H141720   4.424   0.571  12.455 -0.3955  0.1754 -0.6538
 6743TIP3    H241721   4.478   0.602  12.317  0.6543  0.2820 -0.2274
 6744TIP3   OH241722   5.779   1.051   0.631 -0.1878 -0.0076 -0.4350
 6744TIP3    H141723   5.726   0.971   0.630  0.5874 -0.5370 -1.3258
 6744TIP3    H241724   5.717   1.120   0.652 -0.4557 -1.0846  2.8416
 6745TIP3   OH241725   5.813   0.119  11.685  0.0630 -0.1489  0.1437
 6745TIP3    H141726   5.845   0.030  11.703 -1.0534 -0.5251  0.3431
 6745TIP3    H241727   5.766   0.144  11.764 -0.4695  0.2229 -0.2825
 6746TIP3   OH241728   1.321   3.851  10.952 -0.1484 -0.4673 -0.0766
 6746TIP3    H141729   1.235   3.876  10.918 -1.0497 -1.7540  1.1750
 6746TIP3    H241730   1.306   3.829  11.044  1.5784 -0.4768  0.2459
 6747TIP3   OH241731   0.031   3.965   0.624  0.3342 -0.0135 -0.1220
 6747TIP3    H141732   0.065   3.880   0.597  0.4482  0.0118 -0.0580
 6747TIP3    H241733   0.045   3.967   0.719  0.4354  0.1228 -0.1393
 6748TIP3   OH241734   0.104   5.576   4.685  0.0618 -0.0381 -0.3373
 6748TIP3    H141735   0.132   5.497   4.638 -0.2494 -0.0630 -0.4828
 6748TIP3    H241736   0.032   5.547   4.740  0.2468  0.0512 -0.0433
 6749TIP3   OH241737   5.353   0.654   4.629  0.0036 -0.6382 -0.1126
 6749TIP3    H141738   5.375   0.608   4.548 -0.3958 -1.0227 -0.0042
 6749TIP3    H241739   5.379   0.745   4.612  1.8152 -1.0891  0.0745
 6750TIP3   OH241740   3.463   0.361  15.836  0.2566 -0.7320  0.4267
 6750TIP3    H141741   3.377   0.330  15.864 -0.9186  0.3108 -1.7743
 6750TIP3    H241742   3.445   0.445  15.794  2.2578 -0.8358 -0.7307
 6751TIP3   OH241743   6.189   2.974   1.408  0.5892 -0.9726  0.7024
 6751TIP3    H141744   6.267   2.928   1.440  1.2810 -1.6921 -1.7796
 6751TIP3    H241745   6.133   2.905   1.372 -0.4221 -0.2882  0.9141
 6752TIP3   OH241746   1.541   6.442  11.506 -0.1805 -0.1767 -0.4378
 6752TIP3    H141747   1.620   6.488  11.535 -1.2291  0.5443  1.4138
 6752TIP3    H241748   1.546   6.356  11.548 -0.7573  0.1660  0.3545
 6753TIP3   OH241749   5.951   4.853  11.923  0.0699  0.5321 -0.3458
 6753TIP3    H141750   5.946   4.947  11.906 -1.8209  0.4148 -0.6201
 6753TIP3    H241751   5.980   4.815  11.840  1.3669  0.9003 -0.0776
 6754TIP3   OH241752   2.923   3.435   0.345  0.4736  0.2471  0.1542
 6754TIP3    H141753   2.848   3.489   0.371 -0.7251 -1.3407  0.1004
 6754TIP3    H241754   2.888   3.347   0.337  1.0678  0.2013 -5.1565
 6755TIP3   OH241755   1.704   2.003   4.105  0.0105 -0.1889 -0.2636
 6755TIP3    H141756   1.728   1.921   4.061  1.5473  0.8990 -1.5903
 6755TIP3    H241757   1.680   2.062   4.034 -1.0600  0.5377  0.6668
 6756TIP3   OH241758   2.255   0.471  12.494  0.1782  0.0937  0.4741
 6756TIP3    H141759   2.311   0.463  12.416 -0.2885  0.7768  0.0556
 6756TIP3    H241760   2.306   0.430  12.564  0.3774 -1.0038 -0.2979
 6757TIP3   OH241761   3.924   2.847  13.122 -0.1601  0.5609  0.0693
 6757TIP3    H141762   3.936   2.827  13.215  0.7210 -0.5373 -0.2570
 6757TIP3    H241763   3.856   2.786  13.093  0.8853 -0.4134 -0.4065
 6758TIP3   OH241764   5.463   0.491   2.897 -0.0632  0.5368 -0.3497
 6758TIP3    H141765   5.485   0.421   2.835  0.7249 -2.4006  2.8863
 6758TIP3    H241766   5.368   0.498   2.892 -0.0130  0.5512 -1.9620
 6759TIP3   OH241767   6.352   3.785  13.192 -0.0992 -0.1095 -0.4136
 6759TIP3    H141768   6.282   3.723  13.172 -0.3466 -0.1017  0.3930
 6759TIP3    H241769   6.419   3.732  13.237 -1.0833  0.4939  1.9117
 6760TIP3   OH241770   1.729   0.399  11.548 -0.5292 -0.0668  0.0272
 6760TIP3    H141771   1.670   0.329  11.521 -0.2482 -0.2967 -0.0029
 6760TIP3    H241772   1.722   0.401  11.643 -0.3828 -0.2807  0.0456
 6761TIP3   OH241773   6.331   2.605   5.681 -0.6186 -0.0408  0.1759
 6761TIP3    H141774   6.268   2.533   5.684  0.3196 -0.9351 -0.6920
 6761TIP3    H241775   6.278   2.684   5.681 -1.8347 -0.7817 -2.0045
 6762TIP3   OH241776   2.884   4.733  11.779 -0.5986  0.0573 -0.0545
 6762TIP3    H141777   2.965   4.702  11.738 -1.2026 -1.1414 -0.3995
 6762TIP3    H241778   2.913   4.783  11.855  0.4784  0.3295 -0.6246
 6763TIP3   OH241779   1.975   5.355  13.537  0.2147  0.0528 -0.2870
 6763TIP3    H141780   1.920   5.425  13.502  0.0885  0.5092  0.7829
 6763TIP3    H241781   1.913   5.298  13.584  0.4401 -0.2922 -0.4094
 6764TIP3   OH241782   4.818   4.003  15.857 -0.0349  0.1187 -0.4352
 6764TIP3    H141783   4.768   4.032  15.934  0.2745 -1.0035  0.2071
 6764TIP3    H241784   4.846   4.084  15.815 -0.8059  0.7590  0.2401
 6765TIP3   OH241785   1.563   3.700  15.221  0.2200  0.5618 -0.1523
 6765TIP3    H141786   1.561   3.749  15.138 -3.6366  1.7284  0.4453
 6765TIP3    H241787   1.570   3.767  15.289 -1.1282  0.0009  0.5681
 6766TIP3   OH241788   6.624   6.059   0.534  0.3742 -0.1351 -0.2866
 6766TIP3    H141789   6.587   6.059   0.446  0.5747 -0.5408 -0.3715
 6766TIP3    H241790   6.718   6.068   0.522  0.3574  0.3318 -0.0908
 6767TIP3   OH241791   0.791   0.690   4.457 -0.1509  0.0254 -0.1778
 6767TIP3    H141792   0.700   0.667   4.477 -0.4587  1.6197  0.4019
 6767TIP3    H241793   0.832   0.698   4.543  0.5529 -0.7134 -0.4393
 6768TIP3   OH241794   0.852   4.190   3.967  0.1008 -0.0883  0.3909
 6768TIP3    H141795   0.868   4.282   3.946 -0.0209  0.0101  0.7229
 6768TIP3    H241796   0.765   4.190   4.006 -0.8197 -0.6261 -1.5115
 6769TIP3   OH241797   2.219   4.925  12.507  0.4479  0.3186  0.6315
 6769TIP3    H141798   2.149   4.884  12.559  1.2180 -0.5333  1.0412
 6769TIP3    H241799   2.272   4.972  12.571  2.8933 -2.7980  1.1904
 6770TIP3   OH241800   3.215   4.001   3.371 -0.7570  0.2884  0.0896
 6770TIP3    H141801   3.163   4.071   3.331 -0.8221  1.3610  1.9315
 6770TIP3    H241802   3.175   3.920   3.340 -0.3231  0.9877 -2.5796
 6771TIP3   OH241803   6.532   3.302   5.117 -0.6132 -0.6610 -0.3200
 6771TIP3    H141804   6.552   3.395   5.104 -1.1279 -0.3424  0.9959
 6771TIP3    H241805   6.614   3.264   5.149 -1.0597 -0.0920  1.6392
 6772TIP3   OH241806   1.456   3.773  16.832 -0.0771 -0.2766  0.1308
 6772TIP3    H141807   1.509   3.801  16.906 -0.9937 -2.2582  1.6278
 6772TIP3    H241808   1.497   3.815  16.756  1.3354  1.2340  1.6414
 6773TIP3   OH241809   3.611   3.202  11.803  0.2137  0.1004 -0.6040
 6773TIP3    H141810   3.583   3.114  11.830  0.3447  0.2959  0.1964
 6773TIP3    H241811   3.637   3.245  11.884  4.1397 -0.4905 -1.3624
 6774TIP3   OH241812   3.905   4.904  11.815 -0.8045 -0.1720 -0.1123
 6774TIP3    H141813   3.895   4.846  11.739  0.8422 -0.7410  0.0607
 6774TIP3    H241814   3.913   4.992  11.778 -4.6395  0.2569 -0.3271
 6775TIP3   OH241815   2.077   1.309  17.005 -0.0067 -0.0382  0.8951
 6775TIP3    H141816   2.141   1.379  17.024  0.6512 -0.1160 -0.8385
 6775TIP3    H241817   2.069   1.261  17.088  1.5713  0.4686  1.3884
 6776TIP3   OH241818   5.646   4.917   0.903 -0.2545 -0.2041 -0.2601
 6776TIP3    H141819   5.730   4.956   0.927 -0.2445  0.1256 -0.7870
 6776TIP3    H241820   5.646   4.831   0.945 -1.1244  1.0859  2.6259
 6777TIP3   OH241821   6.650   0.840   0.598  0.0229 -0.3541  1.1171
 6777TIP3    H141822   6.649   0.744   0.598 -0.8717 -0.3908 -0.9205
 6777TIP3    H241823   6.740   0.863   0.623  0.0563 -1.6873  2.3534
 6778TIP3   OH241824   1.002   3.823   0.241  0.4321 -0.2809  0.2034
 6778TIP3    H141825   0.999   3.731   0.264  1.4022 -0.9213 -1.9177
 6778TIP3    H241826   1.037   3.824   0.151  0.3409  2.1323  0.1224
 6779TIP3   OH241827   3.691   5.725  13.659  0.3729 -0.0402  0.3945
 6779TIP3    H141828   3.623   5.664  13.633  0.9632 -0.8400  0.6686
 6779TIP3    H241829   3.651   5.811  13.651  0.1746 -0.2973 -2.0406
 6780TIP3   OH241830   6.065   4.770  17.148 -0.6705  0.0721 -0.4800
 6780TIP3    H141831   6.102   4.791  17.234  1.3759  0.1002 -1.3065
 6780TIP3    H241832   6.022   4.851  17.120  0.9283  0.9233 -0.5738
 6781TIP3   OH241833   5.406   0.617   5.550  0.1131  0.2584  0.0515
 6781TIP3    H141834   5.419   0.699   5.599 -0.4144  0.8680 -0.8139
 6781TIP3    H241835   5.402   0.550   5.618  0.9812  0.8884  0.7552
 6782TIP3   OH241836   3.032   5.407  16.681 -0.0959 -0.0696  0.1734
 6782TIP3    H141837   2.995   5.368  16.760  1.3469 -0.3990  0.7058
 6782TIP3    H241838   3.001   5.352  16.610  1.8871 -2.2801  0.9010
 6783TIP3   OH241839   5.803   1.753   1.629  0.4188 -0.2810 -0.1437
 6783TIP3    H141840   5.891   1.733   1.596  0.8478  0.4757  0.5073
 6783TIP3    H241841   5.813   1.757   1.724 -0.5324 -1.1407  0.0081
 6784TIP3   OH241842   5.952   3.449  15.552 -0.1608 -0.1696 -0.0448
 6784TIP3    H141843   6.024   3.480  15.607  1.0137 -1.6618 -0.6541
 6784TIP3    H241844   5.966   3.354  15.547 -0.8311 -0.2034 -2.0510
 6785TIP3   OH241845   5.450   1.093   1.784 -0.1234  0.0103 -0.2782
 6785TIP3    H141846   5.395   1.073   1.708  0.2166 -0.3435 -0.4380
 6785TIP3    H241847   5.405   1.165   1.829 -1.4557 -1.1805  0.3741
 6786TIP3   OH241848   1.258   1.382  16.602  0.1822 -0.3299  0.3716
 6786TIP3    H141849   1.228   1.431  16.678  1.3413 -0.0889  0.6807
 6786TIP3    H241850   1.182   1.328  16.578 -0.6287  0.5422  0.8870
 6787TIP3   OH241851   2.243   1.794  14.601  0.0654 -0.2787  0.6268
 6787TIP3    H141852   2.177   1.746  14.551 -0.1438  0.7344 -0.1017
 6787TIP3    H241853   2.232   1.764  14.691 -1.4287 -0.0861  0.5240
 6788TIP3   OH241854   1.214   6.121  10.295  0.6495 -0.4837 -0.5010
 6788TIP3    H141855   1.162   6.113  10.216  1.1760 -0.5833 -0.8417
 6788TIP3    H241856   1.182   6.051  10.352 -0.4517  0.2379 -0.1986
 6789TIP3   OH241857   3.778   5.984  13.083  0.0284  0.1514 -0.1286
 6789TIP3    H141858   3.725   5.905  13.092 -0.1368  0.2751 -0.0148
 6789TIP3    H241859   3.813   5.979  12.994 -1.2733  0.7527 -0.6997
 6790TIP3   OH241860   3.600   1.916  15.367  0.5373  0.6820 -0.3240
 6790TIP3    H141861   3.599   1.938  15.273 -0.9217  0.3362 -0.4106
 6790TIP3    H241862   3.618   1.823  15.370  0.3373  0.6436 -0.2800
 6791TIP3   OH241863   1.827   5.040  14.962 -0.0834 -0.3247  0.2641
 6791TIP3    H141864   1.763   4.985  14.917  0.6969 -0.7372 -0.3671
 6791TIP3    H241865   1.787   5.127  14.963 -0.0436 -0.2356 -1.4664
 6792TIP3   OH241866   5.138   4.194  12.540  0.1159 -0.8797 -0.3245
 6792TIP3    H141867   5.154   4.163  12.451 -0.0502 -0.9688 -0.3212
 6792TIP3    H241868   5.224   4.227  12.568 -0.1114  0.3299 -0.9798
 6793TIP3   OH241869   1.670   2.299   2.336  0.1346  0.5358  0.7913
 6793TIP3    H141870   1.651   2.212   2.302  1.7343 -0.0865  1.4153
 6793TIP3    H241871   1.601   2.316   2.400 -0.1775 -0.2669  0.6750
 6794TIP3   OH241872   3.097   2.601  13.582  0.2455  0.3789  0.1799
 6794TIP3    H141873   3.020   2.653  13.602 -0.2956 -0.4084  0.2007
 6794TIP3    H241874   3.065   2.530  13.526  1.0054  0.2057 -0.0527
 6795TIP3   OH241875   0.358   4.687   0.439 -0.0337 -0.5462  0.3733
 6795TIP3    H141876   0.345   4.775   0.406  2.4960 -0.1976  0.0907
 6795TIP3    H241877   0.296   4.633   0.390 -0.3277  0.8081 -0.8064
 6796TIP3   OH241878   5.270   2.872  10.408  0.6741 -0.5104  0.6465
 6796TIP3    H141879   5.229   2.810  10.348  2.3325 -0.1068 -0.9758
 6796TIP3    H241880   5.207   2.880  10.480 -1.0344 -1.6099 -0.6344
 6797TIP3   OH241881   6.138   4.537  13.936 -0.0837  0.4041 -0.3123
 6797TIP3    H141882   6.141   4.515  13.842  0.9179 -2.0183  0.2114
 6797TIP3    H241883   6.228   4.559  13.958  0.2292 -1.5068  0.5405
 6798TIP3   OH241884   0.588   6.756  13.421 -0.1456  0.0607 -0.2498
 6798TIP3    H141885   0.600   6.662  13.435  1.3890  0.1068 -1.0681
 6798TIP3    H241886   0.580   6.766  13.327 -0.6127  0.7416 -0.1457
 6799TIP3   OH241887   3.022   6.699  11.538 -0.0401  0.1951 -0.4059
 6799TIP3    H141888   2.981   6.780  11.510  0.5914  1.4351  2.0393
 6799TIP3    H241889   3.055   6.717  11.626  3.1304 -1.6205 -1.0501
 6800TIP3   OH241890   0.622   4.652   4.851 -0.0935 -0.3117 -0.1679
 6800TIP3    H141891   0.712   4.633   4.824  0.1843  0.7217 -0.0290
 6800TIP3    H241892   0.631   4.720   4.919 -0.9015 -1.2236  0.8965
 6801TIP3   OH241893   1.519   1.051  11.674  0.3262 -0.0211 -0.0863
 6801TIP3    H141894   1.513   1.146  11.668  0.0646 -0.0100  0.3293
 6801TIP3    H241895   1.570   1.035  11.753 -0.0804 -0.2361  0.1340
 6802TIP3   OH241896   5.600   3.537   0.953  0.5921  0.1959  0.0321
 6802TIP3    H141897   5.670   3.559   0.892 -0.2740  0.0043 -1.0753
 6802TIP3    H241898   5.610   3.442   0.968  1.6561  0.4830  1.3356
 6803TIP3   OH241899   6.554   2.145   0.611 -0.4919  0.1365 -0.0352
 6803TIP3    H141900   6.603   2.064   0.600  0.4290  0.5104  1.1517
 6803TIP3    H241901   6.621   2.214   0.606 -1.1782  0.7880 -0.4208
 6804TIP3   OH241902   0.565   0.601   0.018 -0.0330 -0.7460 -0.0420
 6804TIP3    H141903   0.628   0.608   0.090 -0.1978 -1.2692  0.1563
 6804TIP3    H241904   0.509   0.527   0.042 -0.2288 -0.7824 -0.5982
 6805TIP3   OH241905   5.019   2.654  10.494  0.0509  0.2614  0.3937
 6805TIP3    H141906   5.076   2.638  10.418 -0.1177 -1.2867  0.5687
 6805TIP3    H241907   5.069   2.620  10.569  0.0797  1.4872  0.9513
 6806TIP3   OH241908   4.624   2.506   0.979 -0.2750 -0.0990 -0.5236
 6806TIP3    H141909   4.650   2.471   0.895 -1.8332 -0.4319 -0.9009
 6806TIP3    H241910   4.551   2.565   0.959 -2.0051 -1.6877  0.7458
 6807TIP3   OH241911   1.226   2.122   2.412 -0.4157 -0.0102 -0.2432
 6807TIP3    H141912   1.213   2.093   2.503 -0.5538 -2.1570 -0.8862
 6807TIP3    H241913   1.137   2.136   2.379 -0.4534 -0.8209 -0.5043
 6808TIP3   OH241914   1.158   5.863   4.635 -0.0517 -0.3367  0.5472
 6808TIP3    H141915   1.191   5.829   4.718 -2.5030  0.7586  2.0975
 6808TIP3    H241916   1.066   5.883   4.652 -0.3738  0.9625 -2.1392
 6809TIP3   OH241917   1.426   6.353  13.071  0.1085 -0.9524 -0.0882
 6809TIP3    H141918   1.493   6.303  13.119 -0.7810 -1.2037  0.9345
 6809TIP3    H241919   1.441   6.444  13.098 -0.6442 -1.1367  1.0463
 6810TIP3   OH241920   4.277   1.339   2.985  0.2910  0.1355 -0.3056
 6810TIP3    H141921   4.319   1.280   2.922  2.0771  1.5127 -0.4556
 6810TIP3    H241922   4.335   1.340   3.060 -0.2242  0.9579  0.0938
 6811TIP3   OH241923   4.331   2.270  16.351  0.3043  0.2489 -0.3576
 6811TIP3    H141924   4.361   2.187  16.314  0.1714  0.6385 -1.3739
 6811TIP3    H241925   4.274   2.245  16.423  1.7121 -0.5242  0.5434
 6812TIP3   OH241926   5.454   0.172   2.093 -0.3392 -0.3408 -0.5697
 6812TIP3    H141927   5.410   0.134   2.169  0.2881 -0.3171 -0.1845
 6812TIP3    H241928   5.433   0.113   2.021 -0.0121 -0.9880 -0.1433
 6813TIP3   OH241929   6.129   1.012   3.787  0.9515  0.6060  0.2526
 6813TIP3    H141930   6.127   0.925   3.747 -1.1768  0.3113  0.9127
 6813TIP3    H241931   6.092   1.000   3.874  0.6905  2.1555  0.3839
 6814TIP3   OH241932   1.361   6.327   5.661  0.1377 -0.8111  0.2760
 6814TIP3    H141933   1.351   6.391   5.732 -2.1579 -2.1039  1.2181
 6814TIP3    H241934   1.434   6.272   5.689 -0.0477 -0.6520  1.1000
 6815TIP3   OH241935   2.674   5.896   4.409  0.2994 -0.3174  0.4895
 6815TIP3    H141936   2.673   5.818   4.465 -1.7343 -0.5545  0.2120
 6815TIP3    H241937   2.594   5.889   4.357  0.6075  1.4391 -0.2931
 6816TIP3   OH241938   5.746   6.126   1.155 -0.0061 -0.0402  0.2631
 6816TIP3    H141939   5.789   6.041   1.149 -1.1068 -0.5093 -2.2485
 6816TIP3    H241940   5.681   6.115   1.224 -1.1883 -1.7835 -1.0627
 6817TIP3   OH241941   6.490   1.440  14.208 -0.1750 -0.1311 -0.1221
 6817TIP3    H141942   6.499   1.533  14.230 -1.4315  0.0335 -0.2492
 6817TIP3    H241943   6.529   1.432  14.121 -1.2595  0.5446 -0.6796
 6818TIP3   OH241944   4.399   6.007   0.936 -0.3191 -0.5623  0.3038
 6818TIP3    H141945   4.435   5.933   0.887  0.7672  0.0015  0.2167
 6818TIP3    H241946   4.313   6.023   0.896 -0.2092 -1.2467 -0.2253
 6819TIP3   OH241947   6.324   3.194   1.317 -0.2337 -0.1028 -0.0765
 6819TIP3    H141948   6.396   3.152   1.270 -0.9903 -0.5863 -0.8408
 6819TIP3    H241949   6.302   3.133   1.386  1.1578  0.7978  1.2282
 6820TIP3   OH241950   3.418   5.928  16.406 -0.4263 -0.2277 -0.0155
 6820TIP3    H141951   3.421   5.979  16.487  0.3219 -1.3616  0.6904
 6820TIP3    H241952   3.348   5.864  16.421 -0.2633 -0.4642 -0.2569
 6821TIP3   OH241953   6.570   3.821  12.227  0.7913  0.1508 -0.0865
 6821TIP3    H141954   6.529   3.862  12.151 -0.1720  0.3657  0.5221
 6821TIP3    H241955   6.514   3.745  12.246 -1.0374  1.9413  2.3893
 6822TIP3   OH241956   4.857   4.699   3.980  0.7900  0.5372 -0.3037
 6822TIP3    H141957   4.828   4.738   3.898  1.5810 -0.4301 -1.0784
 6822TIP3    H241958   4.874   4.773   4.038 -1.9109  1.1794 -0.2146
 6823TIP3   OH241959   4.693   3.021  14.664 -0.3154  0.1700 -0.2544
 6823TIP3    H141960   4.713   3.073  14.586  1.2638  0.5785  0.3821
 6823TIP3    H241961   4.672   2.934  14.630  1.7202 -0.0437 -1.1032
 6824TIP3   OH241962   2.966   0.178  15.422  0.5573 -0.4486  0.1439
 6824TIP3    H141963   3.007   0.185  15.336 -0.6581  0.3418 -0.3922
 6824TIP3    H241964   2.908   0.254  15.427  0.7799 -0.3544  1.7617
 6825TIP3   OH241965   3.163   3.894  16.936 -0.3541 -0.2026 -0.1532
 6825TIP3    H141966   3.119   3.939  17.008  1.8592 -0.6008  1.5870
 6825TIP3    H241967   3.115   3.812  16.925 -2.4990  1.0977 -1.2197
 6826TIP3   OH241968   4.254   4.435   0.485  0.2060  0.5207  0.3326
 6826TIP3    H141969   4.236   4.485   0.405  0.9650  1.1559  0.5467
 6826TIP3    H241970   4.341   4.464   0.512 -1.1270  2.4767  2.9720
 6827TIP3   OH241971   3.496   0.057  13.527 -0.3547  0.0570 -0.2085
 6827TIP3    H141972   3.473  -0.023  13.479  0.0965 -0.0248 -0.2969
 6827TIP3    H241973   3.501   0.029  13.618  0.1604 -0.1001 -0.2820
 6828TIP3   OH241974   6.435   4.237  14.333 -0.1090  0.8425 -0.0979
 6828TIP3    H141975   6.520   4.272  14.359 -0.0656  0.8457 -0.2453
 6828TIP3    H241976   6.455   4.163  14.275 -0.2190  1.4399 -0.9052
 6829TIP3   OH241977   2.770   1.702   5.103 -0.2138 -0.1357 -0.0250
 6829TIP3    H141978   2.824   1.765   5.055 -0.3060 -0.7704 -0.9840
 6829TIP3    H241979   2.741   1.750   5.181 -0.5783  1.1164 -0.9049
 6830TIP3   OH241980   5.146   1.021  16.446 -0.4090 -0.0986  0.0420
 6830TIP3    H141981   5.117   1.072  16.521 -1.2783 -1.4459  0.6539
 6830TIP3    H241982   5.150   0.931  16.478 -1.0793 -0.7436 -1.5954
 6831TIP3   OH241983   0.076   1.075   2.181 -0.0232 -0.3520  0.1177
 6831TIP3    H141984   0.138   1.012   2.144  0.6959 -0.3300  1.2217
 6831TIP3    H241985   0.027   1.025   2.245 -0.8159 -0.2456 -0.3974
 6832TIP3   OH241986   5.676   0.046  17.036 -0.4092  0.0122  0.2842
 6832TIP3    H141987   5.608   0.045  16.969  0.1059 -0.9699 -0.2449
 6832TIP3    H241988   5.636   0.005  17.113 -1.0013  1.1428  0.5986
 6833TIP3   OH241989   5.877   1.683   5.550  0.8074  0.3019 -0.1817
 6833TIP3    H141990   5.834   1.609   5.593  0.5446  0.0287 -0.9027
 6833TIP3    H241991   5.810   1.720   5.493  0.8002  1.3785  0.4809
 6834TIP3   OH241992   2.934   5.084  10.614 -0.8606 -0.1732 -0.3297
 6834TIP3    H141993   2.999   5.152  10.595 -0.9277 -0.2061 -0.6756
 6834TIP3    H241994   2.902   5.056  10.528 -0.4409 -1.0325 -0.2139
 6835TIP3   OH241995   6.765   3.564   1.223 -0.1885 -0.1119 -0.0796
 6835TIP3    H141996   6.749   3.627   1.153  1.2269  0.2802 -0.0796
 6835TIP3    H241997   6.840   3.599   1.270 -0.4510 -0.9333  0.9798
 6836TIP3   OH241998   6.464   1.650  16.869 -0.5211  0.2878 -0.3762
 6836TIP3    H141999   6.409   1.723  16.898 -1.9546  0.1045 -2.4471
 6836TIP3    H242000   6.427   1.573  16.911  0.0664  0.5268  0.6170
 6837TIP3   OH242001   4.015   4.398   3.535  0.7300 -0.1027  0.1171
 6837TIP3    H142002   4.002   4.310   3.570  2.1762 -0.4288 -0.0881
 6837TIP3    H242003   4.099   4.427   3.571  0.0433  1.4171  0.6038
 6838TIP3   OH242004   4.027   4.781  14.761  0.2201 -0.2389 -0.5724
 6838TIP3    H142005   4.082   4.763  14.685  0.2367  0.4678 -0.7270
 6838TIP3    H242006   4.088   4.796  14.833  0.2067 -1.9896 -0.1399
 6839TIP3   OH242007   4.830   0.140  11.554 -0.3745  0.6442 -0.0623
 6839TIP3    H142008   4.745   0.126  11.514 -0.4731  0.5224  0.1851
 6839TIP3    H242009   4.856   0.053  11.586  0.4263  0.4210 -1.2695
 6840TIP3   OH242010   3.849   6.224   4.806 -0.3964 -0.5774 -0.0909
 6840TIP3    H142011   3.814   6.310   4.785 -1.4470 -0.8047  0.6489
 6840TIP3    H242012   3.881   6.190   4.722  0.3032  0.6340 -0.3313
 6841TIP3   OH242013   4.617   3.617  13.738 -0.1097  0.2398 -0.8728
 6841TIP3    H142014   4.628   3.617  13.642 -0.3525  0.3088 -0.8996
 6841TIP3    H242015   4.707   3.617  13.771 -0.0202  0.6074 -1.1023
 6842TIP3   OH242016   2.074   0.384  13.391  0.3553 -0.3811 -0.0188
 6842TIP3    H142017   1.988   0.365  13.427  0.6709 -0.2797  0.8169
 6842TIP3    H242018   2.057   0.420  13.304 -0.6018  1.9611  1.0506
 6843TIP3   OH242019   1.496   3.011  13.316  0.0621  0.4363 -0.2349
 6843TIP3    H142020   1.501   2.986  13.408  1.9905  0.7343 -0.2204
 6843TIP3    H242021   1.487   2.928  13.269 -0.6153  0.2625  0.1890
 6844TIP3   OH242022   1.572   3.841   4.270 -0.0476 -0.0385 -0.5356
 6844TIP3    H142023   1.486   3.799   4.275  0.0675 -0.4169 -1.5836
 6844TIP3    H242024   1.555   3.933   4.289 -1.0222  0.2930 -2.8056
 6845TIP3   OH242025   6.626   5.242  16.310 -0.3367 -0.0009 -0.1644
 6845TIP3    H142026   6.660   5.154  16.329 -1.2097 -0.7269 -1.8200
 6845TIP3    H242027   6.705   5.295  16.298  0.3514 -1.4935 -3.2668
 6846TIP3   OH242028   1.359   5.998  12.789  0.5538 -0.0851  0.1099
 6846TIP3    H142029   1.307   6.021  12.866  1.5867  0.4446  0.6693
 6846TIP3    H242030   1.300   6.015  12.715 -0.9636 -1.9840  0.7974
 6847TIP3   OH242031   5.045   0.520  10.392  0.8028  0.0303  0.3745
 6847TIP3    H142032   5.047   0.565  10.477  1.2806 -1.5151  1.2311
 6847TIP3    H242033   5.109   0.567  10.339  1.4538  0.2471  1.3140
 6848TIP3   OH242034   0.657   2.386  14.968 -0.0899  0.2693 -0.0105
 6848TIP3    H142035   0.736   2.428  15.004 -1.7218  3.6402  0.0614
 6848TIP3    H242036   0.636   2.439  14.891 -1.5699 -1.3851 -0.7917
 6849TIP3   OH242037   5.234   5.795  10.950  0.2518  0.2127 -0.1643
 6849TIP3    H142038   5.208   5.885  10.927 -0.0332  0.2945  0.4364
 6849TIP3    H242039   5.318   5.783  10.907  0.9169  1.2375  0.7769
 6850TIP3   OH242040   0.198   3.467   2.284 -0.1878  0.0184  0.1207
 6850TIP3    H142041   0.210   3.531   2.213  2.0461 -0.9528 -0.4687
 6850TIP3    H242042   0.280   3.471   2.334 -1.3096 -0.0581  2.0883
 6851TIP3   OH242043   5.591   1.460   3.062 -0.1588  0.3990 -0.8167
 6851TIP3    H142044   5.584   1.495   2.974  0.1534 -2.4131 -2.0496
 6851TIP3    H242045   5.543   1.377   3.060 -0.1401  0.2249  1.6710
 6852TIP3   OH242046   1.788   1.958   5.396  0.6517  0.3158 -0.4344
 6852TIP3    H142047   1.830   1.891   5.450  1.9448  0.3235 -1.3683
 6852TIP3    H242048   1.732   2.006   5.456  1.6211 -0.0131  0.7784
 6853TIP3   OH242049   5.966   5.565  16.630  0.2132  0.0652 -0.1339
 6853TIP3    H142050   6.012   5.640  16.668 -0.7484  0.9349 -0.6412
 6853TIP3    H242051   6.034   5.515  16.586  1.2229 -0.5323  1.9796
 6854TIP3   OH242052   5.642   5.984   0.814 -0.0615 -0.4772  1.0093
 6854TIP3    H142053   5.661   6.050   0.747 -1.0597 -1.5259 -0.3741
 6854TIP3    H242054   5.662   6.027   0.897  2.6147  0.4062  0.0068
 6855TIP3   OH242055   2.856   3.051   2.385 -0.0705 -0.0413 -0.2592
 6855TIP3    H142056   2.882   2.964   2.413  1.8359  0.5171 -0.1872
 6855TIP3    H242057   2.909   3.068   2.307 -1.8200  0.3310 -1.4569
 6856TIP3   OH242058   1.054   1.027   2.878  0.0335  0.0281  0.1537
 6856TIP3    H142059   1.083   1.036   2.969 -2.0490 -0.2058  0.8823
 6856TIP3    H242060   1.075   0.936   2.856 -1.4292 -0.6067  1.1882
 6857TIP3   OH242061   2.443   4.501  12.567  0.0244 -0.3552 -0.0053
 6857TIP3    H142062   2.514   4.551  12.527 -2.1418  0.2415 -3.4463
 6857TIP3    H242063   2.488   4.438  12.625  3.2410  0.7030 -1.1485
 6858TIP3   OH242064   5.245   4.724   2.126  0.0053  0.3509  0.6220
 6858TIP3    H142065   5.308   4.653   2.133 -0.9136 -0.4288  1.2125
 6858TIP3    H242066   5.283   4.784   2.061  0.4473 -1.0503 -0.4570
 6859TIP3   OH242067   4.827   2.902   4.030 -0.6070  0.4461  0.0036
 6859TIP3    H142068   4.845   2.954   3.952  0.1850 -0.9321 -0.7715
 6859TIP3    H242069   4.859   2.956   4.103 -1.4940  1.8023 -0.5964
 6860TIP3   OH242070   3.777   1.110  14.252  0.1512  0.0565  0.6263
 6860TIP3    H142071   3.706   1.094  14.190 -1.4270  2.9764  1.4696
 6860TIP3    H242072   3.741   1.086  14.337  0.4115  0.8488  0.9737
 6861TIP3   OH242073   2.011   3.064   3.998 -0.5143  0.0927  0.3370
 6861TIP3    H142074   1.980   3.039   3.911  0.3358 -2.1654  0.6093
 6861TIP3    H242075   2.106   3.071   3.989 -0.4142 -0.1495  1.0670
 6862TIP3   OH242076   5.069   4.159  12.191 -0.2895 -0.1388 -0.3776
 6862TIP3    H142077   4.996   4.098  12.190  0.2806 -0.8276 -0.6102
 6862TIP3    H242078   5.146   4.105  12.178  0.4538  0.3301  1.6163
 6863TIP3   OH242079   3.406   3.203  16.993  0.6299 -0.3716  0.1561
 6863TIP3    H142080   3.392   3.216  17.087 -0.7220 -0.5382  0.0030
 6863TIP3    H242081   3.322   3.171  16.961 -0.2152  3.2237 -1.7583
 6864TIP3   OH242082   6.229   0.059  16.681 -0.4860  0.1734  0.3304
 6864TIP3    H142083   6.263  -0.030  16.694 -1.7956 -0.3114  0.6463
 6864TIP3    H242084   6.197   0.085  16.767  0.6032  1.3001  0.4252
 6865TIP3   OH242085   1.517   0.942   2.089 -0.0366  0.6047  0.1484
 6865TIP3    H142086   1.562   0.882   2.148 -0.2598 -1.8384 -1.9928
 6865TIP3    H242087   1.567   1.024   2.096  1.0968 -0.1895  2.2024
 6866TIP3   OH242088   1.912   1.803  16.965 -0.7544  0.3009  0.2003
 6866TIP3    H142089   1.890   1.832  16.876 -0.5300  1.3237  0.4595
 6866TIP3    H242090   1.884   1.712  16.968 -1.2939  0.4162 -0.7405
 6867TIP3   OH242091   1.312   0.660  12.368 -0.3818 -0.0303  0.1090
 6867TIP3    H142092   1.393   0.699  12.337 -1.2303  1.8698  0.0904
 6867TIP3    H242093   1.261   0.642  12.289 -0.1223 -0.9027  0.1356
 6868TIP3   OH242094   6.241   2.648  16.978  0.1033  0.0496 -0.0220
 6868TIP3    H142095   6.318   2.628  17.031 -1.2648 -0.4063  1.8885
 6868TIP3    H242096   6.201   2.563  16.961 -0.1547  0.3084 -0.7273
 6869TIP3   OH242097   3.932   3.422  14.520 -0.2044  0.4785 -0.4875
 6869TIP3    H142098   3.961   3.371  14.445  0.2937  0.3037 -0.1854
 6869TIP3    H242099   3.837   3.427  14.512 -0.1381  0.6255 -1.2303
 6870TIP3   OH242100   6.586   3.513   5.559  0.4848 -0.6092  0.2225
 6870TIP3    H142101   6.499   3.496   5.595 -0.5973  2.7229 -0.4749
 6870TIP3    H242102   6.642   3.523   5.636  0.0394 -1.6387  0.7047
 6871TIP3   OH242103   0.375   1.698  15.799  0.3924 -0.2509  0.3197
 6871TIP3    H142104   0.452   1.704  15.743  0.6023  2.4744  0.7570
 6871TIP3    H242105   0.305   1.670  15.740  0.8662  1.2818 -1.0477
 6872TIP3   OH242106   4.480   1.683  16.667 -0.4265  0.0599 -0.0180
 6872TIP3    H142107   4.490   1.695  16.761  2.3255  0.3245 -0.2701
 6872TIP3    H242108   4.497   1.770  16.630 -0.6326 -0.2302 -0.8076
 6873TIP3   OH242109   0.353   1.982   4.707  0.0483  0.6291 -0.0149
 6873TIP3    H142110   0.324   2.020   4.624 -1.5880  1.5009  0.9068
 6873TIP3    H242111   0.398   2.053   4.752  0.0826  0.4500  0.2387
 6874TIP3   OH242112   1.957   3.756   5.264 -0.3364 -0.3478  0.5312
 6874TIP3    H142113   2.021   3.710   5.210  0.4415  0.6947  0.5494
 6874TIP3    H242114   2.006   3.785   5.340 -0.5182  1.5381 -0.0389
 6875TIP3   OH242115   1.224   6.812   5.975 -0.0139 -0.5423 -0.3461
 6875TIP3    H142116   1.314   6.780   5.985  0.2729  0.1633 -0.5857
 6875TIP3    H242117   1.176   6.772   6.048  0.6437 -0.3857  0.1813
 6876TIP3   OH242118   2.736   1.005   5.006 -0.2372 -0.0646  0.0974
 6876TIP3    H142119   2.792   1.082   5.019 -1.1381  0.3746  1.5692
 6876TIP3    H242120   2.761   0.973   4.919  1.0913  1.1019 -0.0049
 6877TIP3   OH242121   6.492   2.838   2.418  0.1908 -0.5738 -0.5072
 6877TIP3    H142122   6.450   2.812   2.336  0.5692  0.7474 -1.1428
 6877TIP3    H242123   6.420   2.849   2.480 -0.1378 -1.1293 -0.7884
 6878TIP3   OH242124   6.826   2.688   3.256 -0.5792 -0.7312  0.0886
 6878TIP3    H142125   6.801   2.777   3.281  3.2941  0.8661 -0.9316
 6878TIP3    H242126   6.853   2.647   3.339 -2.8737 -1.2664  0.6446
 6879TIP3   OH242127   4.573   5.101   5.963 -0.3508 -0.0733  0.3041
 6879TIP3    H142128   4.483   5.099   5.931 -0.5215 -0.7691  0.7894
 6879TIP3    H242129   4.597   5.009   5.972  0.8066  0.0774 -0.8772
 6880TIP3   OH242130   5.352   1.850   4.051 -0.1604  0.2786 -0.0759
 6880TIP3    H142131   5.419   1.893   3.998 -0.4863  0.8212 -0.0587
 6880TIP3    H242132   5.391   1.767   4.077 -0.1772 -0.2341 -1.5860
 6881TIP3   OH242133   1.601   5.163  15.279 -0.6380  0.1194  0.2756
 6881TIP3    H142134   1.694   5.139  15.280 -0.4799  0.7073  0.9691
 6881TIP3    H242135   1.601   5.256  15.255 -0.8586  0.7355  2.3889
 6882TIP3   OH242136   3.438   5.887  14.486 -0.2937 -0.3708  0.0894
 6882TIP3    H142137   3.443   5.963  14.428  2.6091  0.1163  0.7719
 6882TIP3    H242138   3.428   5.812  14.428 -0.5396  0.3446 -0.7986
 6883TIP3   OH242139   1.090   0.071   4.935 -0.2886  0.6675 -0.6817
 6883TIP3    H142140   1.099  -0.023   4.947 -1.1596  0.4467 -1.6317
 6883TIP3    H242141   1.082   0.107   5.023  1.3513  0.0175 -0.2236
 6884TIP3   OH242142   2.825   5.098   0.025 -0.1336 -0.2926 -0.1536
 6884TIP3    H142143   2.850   5.029  -0.036  0.0383 -3.0507  2.8043
 6884TIP3    H242144   2.732   5.083   0.043  0.0639 -0.1928  1.0388
 6885TIP3   OH242145   5.047   2.545   2.431 -0.0518 -0.0462 -0.1749
 6885TIP3    H142146   4.983   2.519   2.497  1.5402 -3.4545  0.2202
 6885TIP3    H242147   5.126   2.496   2.454  0.9866 -0.3383 -3.8520
 6886TIP3   OH242148   0.060   1.456   0.148  0.3332 -0.2517  0.1794
 6886TIP3    H142149   0.070   1.490   0.237 -1.1387  1.8751 -0.3929
 6886TIP3    H242150   0.089   1.528   0.091 -1.1884 -0.5732 -1.0863
 6887TIP3   OH242151   0.251   4.744   5.773 -0.4554 -0.5049 -0.3908
 6887TIP3    H142152   0.219   4.829   5.802 -1.4285 -0.1994 -2.1908
 6887TIP3    H242153   0.188   4.682   5.810 -1.2330 -0.1968 -1.1711
 6888TIP3   OH242154   1.990   4.254  16.059  0.5519 -0.5268 -0.3248
 6888TIP3    H142155   1.946   4.304  15.991  0.5397  0.4833  0.4100
 6888TIP3    H242156   2.051   4.198  16.012 -0.3403 -0.7647 -1.2490
 6889TIP3   OH242157   5.424   2.077   2.197 -0.4597 -0.6039 -0.1686
 6889TIP3    H142158   5.368   2.075   2.275 -1.6098  0.2452 -0.9428
 6889TIP3    H242159   5.486   2.148   2.213 -0.0373 -1.0961  0.4007
 6890TIP3   OH242160   6.375   5.811   1.174  0.4915  0.1015 -0.1225
 6890TIP3    H142161   6.407   5.844   1.258 -0.6880  1.2929 -0.1121
 6890TIP3    H242162   6.291   5.770   1.195 -1.5938  3.4618 -1.1106
 6891TIP3   OH242163   5.617   6.705  16.407  0.0112 -0.4352 -0.0939
 6891TIP3    H142164   5.606   6.643  16.480  0.2677 -0.5089 -0.1170
 6891TIP3    H242165   5.625   6.649  16.330 -2.0785 -0.3227 -0.4395
 6892TIP3   OH242166   5.705   0.446  15.179 -0.8720 -0.0164 -0.6131
 6892TIP3    H142167   5.702   0.538  15.155 -0.4241  0.0411 -0.4594
 6892TIP3    H242168   5.681   0.444  15.272 -1.9408 -0.1686 -0.8838
 6893TIP3   OH242169   1.636   4.014   0.095 -0.0672  0.5324  0.3886
 6893TIP3    H142170   1.719   4.041   0.134  0.5222 -1.1488  0.4004
 6893TIP3    H242171   1.571   4.071   0.135  0.9542  1.1668  1.1996
 6894TIP3   OH242172   0.888   2.593   0.782  0.1801  0.4121 -0.6134
 6894TIP3    H142173   0.931   2.566   0.701  1.3156 -0.7182  0.3300
 6894TIP3    H242174   0.960   2.615   0.842 -0.5833 -0.1848  0.5645
 6895TIP3   OH242175   6.291   6.360  11.590 -0.2879  0.7334 -0.4499
 6895TIP3    H142176   6.300   6.286  11.530  3.4341  0.5264  0.0789
 6895TIP3    H242177   6.372   6.410  11.577 -0.9951  2.6506  1.8565
 6896TIP3   OH242178   3.046   4.168   5.213  0.0484 -0.1938  0.2589
 6896TIP3    H142179   3.033   4.203   5.125 -0.7530 -0.9912  0.0437
 6896TIP3    H242180   3.031   4.243   5.271 -0.1345  0.1700 -0.2553
 6897TIP3   OH242181   3.746   6.327  13.063 -0.0908  0.1168 -0.3151
 6897TIP3    H142182   3.827   6.373  13.085 -0.1239  0.7946 -1.5201
 6897TIP3    H242183   3.774   6.236  13.049  0.6191  0.5029 -1.5225
 6898TIP3   OH242184   6.395   2.298  16.646 -0.1758 -0.0376 -0.1515
 6898TIP3    H142185   6.483   2.331  16.629 -0.6784  0.8245 -1.1951
 6898TIP3    H242186   6.368   2.341  16.727  0.4096 -0.4274  0.2584
 6899TIP3   OH242187   3.263   4.200   3.022  0.2943  0.2604 -0.3044
 6899TIP3    H142188   3.329   4.257   3.060  0.2345  0.9396 -1.1798
 6899TIP3    H242189   3.192   4.199   3.085  0.4035  0.9511 -0.1669
 6900TIP3   OH242190   4.152   4.889  12.471  0.2070 -0.0628 -0.2852
 6900TIP3    H142191   4.244   4.880  12.495  0.1452 -0.6456 -0.2720
 6900TIP3    H242192   4.154   4.902  12.376  0.2803 -0.3908 -0.3279
 6901TIP3   OH242193   6.669   0.892  17.166 -0.6650  0.3396  0.0028
 6901TIP3    H142194   6.680   0.981  17.198 -1.7055  0.7378 -0.6775
 6901TIP3    H242195   6.757   0.857  17.160 -0.2978  1.0623  0.9987
 6902TIP3   OH242196   3.350   4.596  15.378 -0.0898  0.3661 -0.0267
 6902TIP3    H142197   3.435   4.638  15.384  1.3183 -2.2963  0.1984
 6902TIP3    H242198   3.367   4.513  15.333 -2.3608 -0.7494  0.9697
 6903TIP3   OH242199   2.021   2.620   1.028  0.0512  0.8281  0.0024
 6903TIP3    H142200   2.056   2.707   1.047  0.5391  0.8478 -0.9288
 6903TIP3    H242201   2.015   2.617   0.933  0.0260 -0.1551  0.0246
 6904TIP3   OH242202   4.545   4.025  13.796  0.5085  0.4627  0.2357
 6904TIP3    H142203   4.633   4.025  13.756 -0.1278  0.3585 -1.2234
 6904TIP3    H242204   4.489   4.064  13.730 -0.7328 -0.4350  0.7281
 6905TIP3   OH242205   2.968   1.538   1.366  0.0359 -0.1764 -0.6402
 6905TIP3    H142206   2.904   1.480   1.323  1.0363 -0.2686 -2.0816
 6905TIP3    H242207   3.038   1.546   1.302  1.9273 -0.8131  1.2566
 6906TIP3   OH242208   2.728   1.171  14.181 -0.3206 -0.4592  0.4131
 6906TIP3    H142209   2.720   1.088  14.134  1.0503 -0.2115 -0.2962
 6906TIP3    H242210   2.638   1.198  14.198 -0.8387 -1.0612 -1.1898
 6907TIP3   OH242211   4.340   6.398  14.685  0.1115 -0.2068 -0.2219
 6907TIP3    H142212   4.295   6.374  14.765 -0.0812  0.2294 -0.1922
 6907TIP3    H242213   4.403   6.328  14.670  0.3377 -0.1538  0.4570
 6908TIP3   OH242214   5.099   5.028   2.752  0.3907 -0.1682 -0.4276
 6908TIP3    H142215   5.169   5.051   2.814 -0.7040  1.8192  0.1824
 6908TIP3    H242216   5.092   5.104   2.694 -0.7818 -0.6105 -0.9046
 6909TIP3   OH242217   2.611   3.880   0.801 -0.1007 -0.3809  0.0273
 6909TIP3    H142218   2.659   3.914   0.725 -0.4060  0.7644  0.3251
 6909TIP3    H242219   2.536   3.939   0.811 -0.5870 -1.0826  0.6462
 6910TIP3   OH242220   3.342   0.566  12.162  0.0849  0.2539 -0.1742
 6910TIP3    H142221   3.330   0.522  12.246  2.6724 -0.2775  0.0134
 6910TIP3    H242222   3.370   0.497  12.102  2.6518  1.2388 -0.2702
 6911TIP3   OH242223   0.888   5.300  13.140 -0.0873 -0.3872 -0.5022
 6911TIP3    H142224   0.889   5.210  13.108 -1.0701 -0.0592 -1.5196
 6911TIP3    H242225   0.858   5.292  13.231  0.6746 -1.1509 -0.3073
 6912TIP3   OH242226   5.286   1.050   1.577  0.4022  0.1001 -0.1761
 6912TIP3    H142227   5.254   1.105   1.505  0.7542  3.1173  1.7956
 6912TIP3    H242228   5.226   0.976   1.580 -1.2015  1.2513 -1.8905
 6913TIP3   OH242229   4.915   6.769  12.064 -0.2019 -0.0746  0.0285
 6913TIP3    H142230   4.957   6.701  12.118 -0.7904 -0.9757 -0.6120
 6913TIP3    H242231   4.929   6.850  12.112  2.4648 -0.2727 -0.2391
 6914TIP3   OH242232   4.502   1.433  13.641  0.5643  0.4534  0.2553
 6914TIP3    H142233   4.433   1.484  13.684  0.9660 -0.1569  1.6925
 6914TIP3    H242234   4.537   1.492  13.574 -0.1746  1.4057  0.6783
 6915TIP3   OH242235   3.190   4.822   1.405  0.2801  0.5511 -0.0495
 6915TIP3    H142236   3.192   4.889   1.336 -0.2059 -0.4475 -1.0798
 6915TIP3    H242237   3.169   4.741   1.358  2.0709 -0.5666  0.9675
 6916TIP3   OH242238   3.212   0.619   3.777 -0.2795 -0.1904 -0.0999
 6916TIP3    H142239   3.211   0.706   3.737 -0.1118 -0.8200 -1.5231
 6916TIP3    H242240   3.289   0.620   3.834 -1.1975  1.1255  1.1790
 6917TIP3   OH242241   6.324   4.857   1.812 -0.1595 -0.4206 -0.1725
 6917TIP3    H142242   6.257   4.794   1.840  0.6421 -1.2405 -0.0501
 6917TIP3    H242243   6.327   4.922   1.883 -1.6826  0.3298 -0.7569
 6918TIP3   OH242244   1.807   0.634   6.053  0.5236 -0.0692  0.2069
 6918TIP3    H142245   1.838   0.675   6.134 -0.4984 -0.0299  0.5918
 6918TIP3    H242246   1.884   0.592   6.017  1.5236  1.8003  0.0222
 6919TIP3   OH242247   1.970   0.022   4.950  0.0645  0.6850 -0.0958
 6919TIP3    H142248   1.998   0.055   4.865 -1.8491  0.0617 -1.0335
 6919TIP3    H242249   1.944  -0.068   4.933 -2.3587  1.1745  0.6349
 6920TIP3   OH242250   2.070   5.736   5.127  0.0087  0.4449  0.6055
 6920TIP3    H142251   2.108   5.734   5.215 -1.7350 -1.6568  1.3973
 6920TIP3    H242252   2.112   5.664   5.081 -0.4897  0.3198  0.3419
 6921TIP3   OH242253   5.551   6.438  13.536  0.0187  0.3522 -0.5636
 6921TIP3    H142254   5.534   6.348  13.506  1.0098  0.1123 -0.4433
 6921TIP3    H242255   5.543   6.433  13.631  0.9942  0.1577 -0.4733
 6922TIP3   OH242256   4.025   3.441  12.114  0.6522  0.0153  0.0992
 6922TIP3    H142257   3.991   3.514  12.062  1.6105  0.5339  0.1884
 6922TIP3    H242258   4.011   3.364  12.059  0.3811  0.3679 -0.3345
 6923TIP3   OH242259   6.729   6.066  11.323  0.4759  0.3509  0.5588
 6923TIP3    H142260   6.679   6.010  11.263  1.2204  2.0934 -1.8330
 6923TIP3    H242261   6.820   6.037  11.313  0.5282  0.1606  1.4722
 6924TIP3   OH242262   4.797   3.336  14.039  0.1417  0.5168 -0.1292
 6924TIP3    H142263   4.796   3.428  14.067  2.4197  0.9313 -1.1304
 6924TIP3    H242264   4.727   3.330  13.974  0.4138  1.7521 -0.5650
 6925TIP3   OH242265   4.237   6.128   6.340 -0.5541 -0.1931  0.6938
 6925TIP3    H142266   4.270   6.176   6.416  0.0607  0.6473 -0.0904
 6925TIP3    H242267   4.151   6.166   6.322 -0.0001  0.7608 -0.0265
 6926TIP3   OH242268   2.699   2.469   4.644 -0.1299 -0.0722 -0.0743
 6926TIP3    H142269   2.773   2.476   4.704 -1.3549 -0.7981  1.6102
 6926TIP3    H242270   2.719   2.391   4.592  0.3380 -0.1956  0.2786
 6927TIP3   OH242271   2.635   4.374   4.120 -0.4184 -0.5896  0.3526
 6927TIP3    H142272   2.672   4.311   4.058 -0.7389  3.1466 -4.2701
 6927TIP3    H242273   2.540   4.370   4.103 -0.3038  2.3459 -1.7811
 6928TIP3   OH242274   6.686   1.863  11.535  0.0455  0.5420  0.1790
 6928TIP3    H142275   6.628   1.794  11.567  0.8379  0.8292  2.4027
 6928TIP3    H242276   6.719   1.830  11.451 -2.5163 -0.0441 -0.6999
 6929TIP3   OH242277   0.365   5.761  15.604 -0.0343  0.0121  0.2278
 6929TIP3    H142278   0.378   5.823  15.676  0.1670 -0.9452  1.0367
 6929TIP3    H242279   0.279   5.724  15.619  1.3216 -2.6762  1.9769
 6930TIP3   OH242280   2.870   5.709  14.903 -0.5901  0.1983  0.3438
 6930TIP3    H142281   2.894   5.680  14.814 -1.4493  1.0700 -0.1913
 6930TIP3    H242282   2.953   5.731  14.944 -0.1693 -0.2919 -0.2207
 6931TIP3   OH242283   3.151   0.480  12.519  0.5554  0.1425  0.0647
 6931TIP3    H142284   3.236   0.439  12.503 -0.0081 -1.1128  0.1434
 6931TIP3    H242285   3.166   0.539  12.592  1.5520  0.6002 -0.4964
 6932TIP3   OH242286   4.884   1.517   1.439  0.3810 -0.0874 -0.5220
 6932TIP3    H142287   4.882   1.564   1.523  2.1384  3.2215 -2.1612
 6932TIP3    H242288   4.977   1.499   1.424  0.0916 -0.6123 -1.7651
 6933TIP3   OH242289   4.218   1.522   1.369  0.5439  0.4395  0.7613
 6933TIP3    H142290   4.269   1.472   1.433 -0.4061 -1.1849  0.3053
 6933TIP3    H242291   4.131   1.531   1.410  0.1355 -0.0108  0.0124
 6934TIP3   OH242292   6.433   0.820   3.940  0.0734 -0.2001  0.2447
 6934TIP3    H142293   6.390   0.735   3.931 -2.5514  1.1126 -0.4542
 6934TIP3    H242294   6.372   0.873   3.991 -0.2165  2.3923 -2.5492
 6935TIP3   OH242295   6.183   3.716   1.690 -0.8241 -0.1198  0.3196
 6935TIP3    H142296   6.118   3.693   1.623 -1.1744 -0.1775  0.6733
 6935TIP3    H242297   6.170   3.651   1.760  0.2695 -0.7254 -0.0174
 6936TIP3   OH242298   5.253   2.125   1.658  0.2905  0.2539  0.4552
 6936TIP3    H142299   5.225   2.049   1.708  0.1691  0.7041  1.0850
 6936TIP3    H242300   5.300   2.180   1.721  2.4653 -0.3955 -0.5194
 6937TIP3   OH242301   2.011   2.718   4.204 -0.0379 -0.3895 -0.2693
 6937TIP3    H142302   1.982   2.747   4.117  0.1145  0.0240 -0.1845
 6937TIP3    H242303   2.066   2.642   4.186 -0.3702 -0.5792 -0.5009
 6938TIP3   OH242304   4.783   3.339   3.231  0.6866  0.4466  0.1299
 6938TIP3    H142305   4.815   3.350   3.142  1.8129  1.0982  0.5901
 6938TIP3    H242306   4.703   3.287   3.222  0.5523  0.8707 -1.2808
 6939TIP3   OH242307   1.361   1.934   2.140  1.0897 -0.1198 -0.4052
 6939TIP3    H142308   1.341   2.023   2.169  1.7749 -0.1011  0.0371
 6939TIP3    H242309   1.276   1.889   2.140  0.8861  0.2440  0.4017
 6940TIP3   OH242310   6.654   1.757   4.830 -0.2218 -0.1727  0.2660
 6940TIP3    H142311   6.722   1.742   4.895  1.5598  0.4163 -1.3646
 6940TIP3    H242312   6.573   1.765   4.881  1.4069  2.9258  2.6862
 6941TIP3   OH242313   6.420   6.393   4.158  0.7692 -0.3576  0.2594
 6941TIP3    H142314   6.457   6.365   4.075 -1.5317  1.4133 -1.5053
 6941TIP3    H242315   6.333   6.353   4.161  0.1099  1.0289  0.9078
 6942TIP3   OH242316   5.051   3.954  12.657 -0.0869 -0.8367 -0.2142
 6942TIP3    H142317   4.982   3.957  12.591 -0.6612  0.4249  0.4237
 6942TIP3    H242318   5.074   4.045  12.672 -0.7972 -0.9854  2.1773
 6943TIP3   OH242319   2.107   0.505  11.417  0.3131 -0.2972  0.1824
 6943TIP3    H142320   2.104   0.516  11.322 -2.3322  0.1386  0.2191
 6943TIP3    H242321   2.075   0.416  11.431 -0.4092  0.0347  0.6798
 6944TIP3   OH242322   2.759   1.935   6.386  0.1312  0.2811 -0.0118
 6944TIP3    H142323   2.750   1.996   6.460  1.9618 -0.1359  0.6295
 6944TIP3    H242324   2.681   1.880   6.391 -1.1151  1.9720 -0.0579
 6945TIP3   OH242325   4.516   0.972  12.421  0.0743 -0.3901 -0.3812
 6945TIP3    H142326   4.566   1.035  12.474 -0.0677 -0.6515  0.0744
 6945TIP3    H242327   4.581   0.932  12.364  0.0025  0.8866 -1.4010
 6946TIP3   OH242328   0.976   0.690  14.657 -1.0804  0.0237 -0.1109
 6946TIP3    H142329   0.890   0.723  14.684 -0.5273  0.5996  1.0133
 6946TIP3    H242330   0.969   0.679  14.562 -1.4787  2.9293 -0.5206
 6947TIP3   OH242331   5.278   5.680   6.477  0.4763 -0.3060 -0.2231
 6947TIP3    H142332   5.208   5.639   6.426  1.5886 -0.5321 -1.6099
 6947TIP3    H242333   5.342   5.708   6.412  1.8167 -0.3442  1.0339
 6948TIP3   OH242334   4.999   4.058  15.106 -0.1057  1.1556  0.0135
 6948TIP3    H142335   5.071   3.997  15.126 -0.2261  1.5689  1.8783
 6948TIP3    H242336   4.998   4.063  15.010  2.2775  1.0500 -0.0832
 6949TIP3   OH242337   2.212   3.424   4.058 -0.4908  0.5758 -0.0375
 6949TIP3    H142338   2.179   3.507   4.024 -0.5446  0.3006 -0.6785
 6949TIP3    H242339   2.191   3.361   3.989  0.8846  0.3028 -0.2324
 6950TIP3   OH242340   5.749   1.001  15.055  0.4104 -0.3694  0.2911
 6950TIP3    H142341   5.694   1.079  15.070 -1.1088 -1.6121  1.4661
 6950TIP3    H242342   5.725   0.972  14.967 -0.2751 -0.4826  0.5134
 6951TIP3   OH242343   2.107   6.172  11.060  0.1536 -0.6266 -0.1101
 6951TIP3    H142344   2.194   6.153  11.097  0.6766  1.4524 -0.1747
 6951TIP3    H242345   2.093   6.265  11.078 -1.6396 -0.6856 -1.0007
 6952TIP3   OH242346   2.010   0.233  11.475  0.2936 -0.1998  0.6675
 6952TIP3    H142347   2.022   0.207  11.567 -0.7384  1.2089  1.2383
 6952TIP3    H242348   1.920   0.208  11.455  0.1398  0.5324  0.4106
 6953TIP3   OH242349   6.456   5.460  16.151  0.4641  0.3097 -0.1764
 6953TIP3    H142350   6.497   5.458  16.238 -0.4389 -1.4701  0.2475
 6953TIP3    H242351   6.386   5.524  16.160  0.8218  0.6661  0.1795
 6954TIP3   OH242352   2.104   0.465  16.407 -0.4391 -0.1962  0.4882
 6954TIP3    H142353   2.152   0.541  16.440 -2.6901  1.0017  1.2333
 6954TIP3    H242354   2.059   0.498  16.330 -1.8143 -0.5940  1.0910
 6955TIP3   OH242355   0.078   2.163  15.985 -0.4544  0.2276 -0.2056
 6955TIP3    H142356   0.090   2.087  15.927 -2.9700  2.0826 -3.5555
 6955TIP3    H242357  -0.005   2.147  16.030 -0.2876  0.3659  0.1564
 6956TIP3   OH242358   5.237   3.297  16.066  0.5439  0.1590  0.5685
 6956TIP3    H142359   5.160   3.255  16.027  1.6143 -1.5220  0.1613
 6956TIP3    H242360   5.290   3.325  15.992  1.2246 -0.4498  0.8099
 6957TIP3   OH242361   0.764   2.359   2.899 -0.0501  0.5279  0.1291
 6957TIP3    H142362   0.673   2.386   2.908 -0.2185 -0.4508  2.0903
 6957TIP3    H242363   0.814   2.440   2.902 -0.7833  0.9699  0.7351
 6958TIP3   OH242364   6.043   6.372   1.261  0.2156 -0.1429  0.4122
 6958TIP3    H142365   6.082   6.420   1.334 -0.0419 -0.3125  0.6610
 6958TIP3    H242366   6.017   6.288   1.299  1.4185 -0.8305 -0.1867
 6959TIP3   OH242367   5.358   1.801  13.457 -0.5154  0.1006 -0.1342
 6959TIP3    H142368   5.346   1.892  13.481 -0.5326 -0.0316  0.3654
 6959TIP3    H242369   5.295   1.786  13.386 -2.4093 -0.2100  1.5158
 6960TIP3   OH242370   4.103   6.153  13.397  0.9511 -0.1345  0.0667
 6960TIP3    H142371   4.176   6.149  13.459 -0.4389  1.7362  1.9687
 6960TIP3    H242372   4.041   6.087  13.428  0.4197  0.5445  0.4936
 6961TIP3   OH242373   2.149   1.509   3.465 -0.9677  0.4425  0.0633
 6961TIP3    H142374   2.110   1.584   3.420  0.0944  0.4574 -0.8854
 6961TIP3    H242375   2.155   1.441   3.397  0.7912  0.5092  0.1236
 6962TIP3   OH242376   2.228   1.090   3.551 -0.4012  0.2839 -0.4039
 6962TIP3    H142377   2.286   1.014   3.548 -0.5321  0.1769 -0.2339
 6962TIP3    H242378   2.209   1.109   3.459 -0.0598  0.3498 -0.4631
 6963TIP3   OH242379   1.498   3.063   1.105 -0.1902  0.2688  0.3280
 6963TIP3    H142380   1.419   3.085   1.153 -0.0181 -2.4883  2.0855
 6963TIP3    H242381   1.478   3.084   1.014 -2.4253  0.8635  0.9042
 6964TIP3   OH242382   0.675   6.539  14.100 -0.1350 -0.2441  0.0379
 6964TIP3    H142383   0.689   6.448  14.074 -2.3451 -0.6874  0.2271
 6964TIP3    H242384   0.589   6.562  14.064  0.1940  1.6472  0.3380
 6965TIP3   OH242385   1.170   1.153  12.900  0.1226  0.5815  0.0296
 6965TIP3    H142386   1.252   1.111  12.875  1.3271  1.7555  1.7573
 6965TIP3    H242387   1.110   1.080  12.915  1.4984 -0.4434  0.8546
 6966TIP3   OH242388   6.078   6.385  14.500  0.0688  0.2899  0.1301
 6966TIP3    H142389   6.147   6.381  14.433  0.0064  0.6969  0.0382
 6966TIP3    H242390   6.006   6.333  14.464  0.5752 -0.7302  0.5298
 6967TIP3   OH242391   3.744   1.383  14.286 -0.2696 -0.2168 -0.1242
 6967TIP3    H142392   3.769   1.298  14.250 -0.9169  0.3695 -2.0307
 6967TIP3    H242393   3.769   1.447  14.219  1.5290  1.3111  1.8506
 6968TIP3   OH242394   2.887   4.489  13.292 -0.0077 -0.0604  0.0721
 6968TIP3    H142395   2.800   4.511  13.324  0.5646  1.0846  0.9211
 6968TIP3    H242396   2.922   4.572  13.258  0.9669 -0.3641  0.3008
 6969TIP3   OH242397   4.271   2.985   0.339  0.0033 -0.2183 -0.2229
 6969TIP3    H142398   4.204   3.053   0.328  0.7769  0.5401 -0.3890
 6969TIP3    H242399   4.259   2.926   0.265 -1.7503 -1.2394  0.7970
 6970TIP3   OH242400   6.202   0.948   1.623 -0.6506 -0.1547 -0.1498
 6970TIP3    H142401   6.233   0.872   1.573 -1.9667 -0.3087 -0.7619
 6970TIP3    H242402   6.247   1.022   1.583 -1.8397 -0.2449 -1.7623
 6971TIP3   OH242403   0.834   5.733   1.995  0.6551 -0.2206 -0.2877
 6971TIP3    H142404   0.864   5.721   2.085  1.5189  2.8515 -0.0521
 6971TIP3    H242405   0.913   5.722   1.942  0.2031 -1.7254 -0.7081
 6972TIP3   OH242406   3.451   2.048  13.372  0.0501  0.6161  0.4673
 6972TIP3    H142407   3.520   2.101  13.412 -0.2033  1.1628  0.1860
 6972TIP3    H242408   3.478   2.037  13.281  0.9254 -1.1241  0.8703
 6973TIP3   OH242409   6.398   4.994  11.106 -0.2611  0.2585  0.0496
 6973TIP3    H142410   6.353   4.951  11.033 -1.3057  0.7795  0.3573
 6973TIP3    H242411   6.408   5.085  11.078  1.9957 -0.1561 -0.6259
 6974TIP3   OH242412   4.125   6.482  16.853  0.3909  0.0674  0.3152
 6974TIP3    H142413   4.109   6.574  16.873 -0.7677 -0.2252  0.8197
 6974TIP3    H242414   4.206   6.461  16.900 -0.2140  0.4092  1.5444
 6975TIP3   OH242415   3.122   1.046   3.259  0.6477 -0.1401  0.0596
 6975TIP3    H142416   3.145   1.110   3.326 -0.3778 -0.4634  0.7448
 6975TIP3    H242417   3.083   1.098   3.189  3.0262  0.3740 -0.9696
 6976TIP3   OH242418   2.395   5.816   3.415 -0.1383  0.6986  0.4579
 6976TIP3    H142419   2.312   5.770   3.426  0.9934 -0.9554  2.9446
 6976TIP3    H242420   2.389   5.891   3.475 -0.0754  0.9981  0.0985
 6977TIP3   OH242421   0.051   4.596   5.889  0.0951 -0.3930 -0.8090
 6977TIP3    H142422   0.072   4.509   5.856  0.4567 -0.6557  0.0960
 6977TIP3    H242423   0.077   4.594   5.981 -0.6559  0.4088 -0.5672
 6978TIP3   OH242424   1.314   5.014  16.990  0.4471 -0.0278 -0.0033
 6978TIP3    H142425   1.234   5.022  17.042  0.4128 -0.9851  0.1123
 6978TIP3    H242426   1.384   5.009  17.055  0.4802 -0.3853 -0.0611
 6979TIP3   OH242427   4.123   3.693  17.022  0.0092  0.3909  0.6990
 6979TIP3    H142428   4.165   3.622  17.071 -0.5657  0.0789  0.7536
 6979TIP3    H242429   4.088   3.751  17.089 -0.6295  0.0524  0.6700
 6980TIP3   OH242430   1.187   0.152   5.298  0.5631 -0.2035 -0.1548
 6980TIP3    H142431   1.123   0.086   5.271  0.3047 -0.9323  2.0247
 6980TIP3    H242432   1.269   0.103   5.307  1.1137  0.4289 -1.4681
 6981TIP3   OH242433   3.677   4.246   2.840  0.0630 -0.4984 -0.3789
 6981TIP3    H142434   3.679   4.198   2.923 -0.5215  0.2120  0.0569
 6981TIP3    H242435   3.667   4.338   2.866 -0.9430 -0.3483 -1.2600
 6982TIP3   OH242436   1.292   1.089   1.506  0.1547 -0.0162 -0.6292
 6982TIP3    H142437   1.329   1.012   1.462 -0.2885 -1.0612  0.7584
 6982TIP3    H242438   1.365   1.123   1.557  0.0132 -0.2916 -0.2389
 6983TIP3   OH242439   2.555   5.036  10.728 -0.5814  0.2758  0.6880
 6983TIP3    H142440   2.527   5.042  10.637 -0.7045 -0.9895  0.6238
 6983TIP3    H242441   2.566   4.942  10.744 -1.5908  0.3821  2.2676
 6984TIP3   OH242442   0.396   3.062  13.624  0.6893  0.1470 -0.3164
 6984TIP3    H142443   0.430   2.989  13.676  0.8950 -0.2881 -1.0446
 6984TIP3    H242444   0.417   3.038  13.533 -0.4251  0.4773 -0.6791
 6985TIP3   OH242445   4.748   6.472  13.732  0.5774  0.2062 -0.1310
 6985TIP3    H142446   4.759   6.561  13.698 -3.0538  1.7834  2.2197
 6985TIP3    H242447   4.707   6.424  13.659 -0.3093  1.3886 -0.4435
 6986TIP3   OH242448   3.060   6.508  12.418  0.0777 -0.3683 -0.2855
 6986TIP3    H142449   2.998   6.475  12.483  0.6815 -0.1777  0.4045
 6986TIP3    H242450   3.144   6.510  12.464  0.4327  0.2069 -0.9376
 6987TIP3   OH242451   4.592   6.032   4.657  0.5356  0.6994  0.4861
 6987TIP3    H142452   4.617   5.988   4.738 -0.7188 -1.7762 -0.3718
 6987TIP3    H242453   4.510   5.991   4.632  0.1262  2.4641 -1.2845
 6988TIP3   OH242454   3.195   6.695  12.892  0.2660  0.1313  0.2264
 6988TIP3    H142455   3.223   6.675  12.802 -0.5146 -1.2848  0.2633
 6988TIP3    H242456   3.114   6.745  12.880  1.1428  1.5704  0.1467
 6989TIP3   OH242457   6.047   5.634  12.226  0.5640  0.0067  0.2525
 6989TIP3    H142458   5.972   5.648  12.168 -1.5912 -2.4765  2.1757
 6989TIP3    H242459   6.123   5.629  12.168 -1.0244  0.5169 -1.9888
 6990TIP3   OH242460   2.566   5.576  15.868 -0.3794  0.3043  0.7352
 6990TIP3    H142461   2.633   5.540  15.810 -1.7100 -0.4228 -0.4137
 6990TIP3    H242462   2.605   5.657  15.902  1.5039 -0.6600  1.0097
 6991TIP3   OH242463   1.394   2.144   3.191  0.3937  0.4626  0.0367
 6991TIP3    H142464   1.446   2.220   3.216 -0.8235  0.8325  1.6359
 6991TIP3    H242465   1.354   2.115   3.272 -0.2465 -1.0740 -0.7888
 6992TIP3   OH242466   5.357   1.144  11.845  0.1818  1.1899 -0.2840
 6992TIP3    H142467   5.368   1.232  11.811 -0.5542  1.0812 -0.8207
 6992TIP3    H242468   5.398   1.088  11.779  1.2836  1.1624  0.3939
 6993TIP3   OH242469   2.137   4.556   2.679 -0.0333  0.2537  0.3275
 6993TIP3    H142470   2.149   4.524   2.768 -3.6805 -0.0172  0.8890
 6993TIP3    H242471   2.141   4.651   2.686  1.3842  0.2082  0.4056
 6994TIP3   OH242472   6.561   5.289   2.932 -0.3170  0.1755  0.3720
 6994TIP3    H142473   6.608   5.344   2.868 -0.7502 -0.4836 -0.5424
 6994TIP3    H242474   6.488   5.344   2.961  0.1437  0.6510  0.6566
 6995TIP3   OH242475   3.179   6.688  14.143 -0.1980  0.1971  0.4442
 6995TIP3    H142476   3.169   6.680  14.238  1.3148  0.0742  0.6098
 6995TIP3    H242477   3.244   6.622  14.121 -1.2083 -0.4156 -0.8331
 6996TIP3   OH242478   1.277   3.957  15.628 -0.3205 -0.3135 -0.3910
 6996TIP3    H142479   1.201   3.986  15.577  0.3519 -0.5614 -1.5801
 6996TIP3    H242480   1.276   3.862  15.620 -0.1424 -0.3440 -0.0405
 6997TIP3   OH242481   6.085   1.670   4.996 -0.2090  0.6738 -0.5558
 6997TIP3    H142482   6.041   1.598   5.041  0.4700  1.6254  1.7646
 6997TIP3    H242483   6.017   1.709   4.941 -0.6383 -1.5704 -1.7624
 6998TIP3   OH242484   2.608   1.656   4.439 -0.5423 -0.1815 -0.0966
 6998TIP3    H142485   2.573   1.732   4.392 -2.0898 -0.7902  0.0359
 6998TIP3    H242486   2.659   1.608   4.373  0.3320  0.8613 -0.2152
 6999TIP3   OH242487   2.747   2.686   2.911 -0.1246 -0.4592 -0.1266
 6999TIP3    H142488   2.667   2.644   2.881 -0.1704 -0.3425 -0.1677
 6999TIP3    H242489   2.815   2.618   2.903 -0.4694 -0.9942  1.1808
 7000TIP3   OH242490   3.678   2.712   1.988  0.1501  0.0981  0.1953
 7000TIP3    H142491   3.667   2.621   2.015 -0.9962  0.1969  0.1192
 7000TIP3    H242492   3.764   2.714   1.945  1.0364 -0.5198  1.8412
 7001TIP3   OH242493   2.170   4.103   6.351 -0.2378  0.0344  0.3020
 7001TIP3    H142494   2.093   4.068   6.397 -1.0310  0.5365 -0.6282
 7001TIP3    H242495   2.168   4.197   6.368  1.1155 -0.1286  1.6303
 7002TIP3   OH242496   5.009   2.996  13.003 -0.5100 -0.7507  0.4060
 7002TIP3    H142497   5.044   3.025  13.087 -0.0970  0.5960 -0.1955
 7002TIP3    H242498   4.927   3.046  12.993  0.2590  0.3623 -0.6961
 7003TIP3   OH242499   4.681   4.853   6.032  0.2306 -0.0859  0.4527
 7003TIP3    H142500   4.777   4.857   6.038  0.3032 -2.0972  1.0991
 7003TIP3    H242501   4.652   4.837   6.121 -0.7970  1.3120  0.4030
 7004TIP3   OH242502   6.151   4.216  13.110  0.1936  0.0123  0.3288
 7004TIP3    H142503   6.111   4.296  13.075  2.0800 -0.0622 -2.2276
 7004TIP3    H242504   6.180   4.167  13.033 -0.1672 -2.8059  1.8450
 7005TIP3   OH242505   4.770   2.631  16.275 -0.0844  0.6715  0.1999
 7005TIP3    H142506   4.740   2.688  16.203  0.7411  1.5165  0.5051
 7005TIP3    H242507   4.834   2.684  16.322  0.8198 -0.5720  0.4171
 7006TIP3   OH242508   6.106   5.701  13.926 -0.1136  0.6527 -0.4961
 7006TIP3    H142509   6.013   5.681  13.919 -0.4111  2.0412 -0.7812
 7006TIP3    H242510   6.111   5.797  13.919  1.4332  0.5212 -1.8442
 7007TIP3   OH242511   4.361   6.285  11.918  0.0276 -0.0531 -0.5806
 7007TIP3    H142512   4.351   6.377  11.892 -1.4524  0.4620  1.5959
 7007TIP3    H242513   4.291   6.270  11.981  1.5403 -2.0740  0.7379
 7008TIP3   OH242514   3.203   3.719  14.961 -0.3156 -0.3490 -0.0996
 7008TIP3    H142515   3.202   3.636  15.008  0.4142 -0.0194  0.5224
 7008TIP3    H242516   3.295   3.733  14.938 -0.6295 -0.4307 -1.5194
 7009TIP3   OH242517   2.380   0.342   4.600  0.5189  0.3480  0.2400
 7009TIP3    H142518   2.430   0.394   4.537  0.2703  2.5177  1.6866
 7009TIP3    H242519   2.289   0.362   4.581  0.3694 -0.3787  0.1766
 7010TIP3   OH242520   2.431   0.120  14.301 -0.0026  0.0538 -0.1814
 7010TIP3    H142521   2.430   0.172  14.381  0.2215  0.2505 -0.3021
 7010TIP3    H242522   2.524   0.111  14.280  0.0405 -1.4075  0.4864
 7011TIP3   OH242523   2.504   0.759   6.470  0.0304  0.1068 -0.3893
 7011TIP3    H142524   2.563   0.807   6.412  0.2017 -0.3676 -0.6152
 7011TIP3    H242525   2.453   0.704   6.412 -1.0702  0.9547 -0.2491
 7012TIP3   OH242526   3.564   0.896   0.218  0.0089 -0.0540 -0.0455
 7012TIP3    H142527   3.500   0.841   0.173  0.2269  0.0057 -0.4301
 7012TIP3    H242528   3.547   0.984   0.184  0.4985 -0.0874 -0.3785
 7013TIP3   OH242529   6.079   5.500   0.636  0.4698  0.0867  0.4729
 7013TIP3    H142530   6.046   5.490   0.547  0.6988 -1.1246  0.5063
 7013TIP3    H242531   6.027   5.439   0.688 -0.1847  1.3365  1.3248
 7014TIP3   OH242532   4.740   1.633   2.622 -0.0344  0.1991  0.8877
 7014TIP3    H142533   4.660   1.607   2.666  0.1823  0.7213  1.6143
 7014TIP3    H242534   4.801   1.655   2.693  0.4311  0.7358  0.3387
 7015TIP3   OH242535   6.681   5.254   4.467 -0.5210 -0.1171 -0.0533
 7015TIP3    H142536   6.691   5.228   4.375 -1.0293  2.0626 -0.7974
 7015TIP3    H242537   6.609   5.201   4.500 -1.2743  0.0577 -1.3545
 7016TIP3   OH242538   0.233   0.749  16.256  1.0461 -0.2395 -0.6060
 7016TIP3    H142539   0.191   0.694  16.322  0.6693  1.0303  0.2652
 7016TIP3    H242540   0.172   0.822  16.245  2.3233  0.8826 -0.4291
 7017TIP3   OH242541   4.735   5.001  10.451  0.0752  0.0481 -0.0948
 7017TIP3    H142542   4.686   4.995  10.369  0.0027 -0.0402 -0.0456
 7017TIP3    H242543   4.794   4.926  10.449  0.3203  0.2469 -0.2266
 7018TIP3   OH242544   3.025   5.284   3.429 -0.1814 -0.1417  0.6491
 7018TIP3    H142545   3.106   5.269   3.478 -0.1875 -0.3387  0.6009
 7018TIP3    H242546   3.055   5.304   3.340 -0.1714  0.1868  0.7266
 7019TIP3   OH242547   3.046   5.348  15.639  0.5047  0.2402 -0.0230
 7019TIP3    H142548   2.974   5.340  15.577 -0.1774 -2.5640  0.9774
 7019TIP3    H242549   3.121   5.306  15.596  0.9974  1.3372 -0.2610
 7020TIP3   OH242550   1.001   2.552  14.527  0.0048 -0.2695  0.0993
 7020TIP3    H142551   1.017   2.629  14.583 -0.5692  0.4760 -0.7283
 7020TIP3    H242552   0.991   2.480  14.589  1.5572  0.1081  0.8627
 7021TIP3   OH242553   5.182   3.717  16.458 -0.2032  0.1292 -0.0216
 7021TIP3    H142554   5.202   3.716  16.364 -1.8865 -0.2839 -0.4171
 7021TIP3    H242555   5.263   3.743  16.500  0.6952 -0.0593 -1.5742
 7022TIP3   OH242556   6.321   4.017  11.499 -0.4826  0.0465 -1.5558
 7022TIP3    H142557   6.346   4.089  11.441  0.9662  0.6748 -0.2258
 7022TIP3    H242558   6.393   4.010  11.561 -1.2059 -1.7064 -0.8431
 7023TIP3   OH242559   3.016   0.228   3.688 -0.4605  0.3930  0.2859
 7023TIP3    H142560   2.938   0.198   3.641 -0.0666  0.9917 -0.7938
 7023TIP3    H242561   3.046   0.304   3.638  0.6772  0.3214  0.8230
 7024TIP3   OH242562   3.265   3.058   5.219  0.6017 -0.0346  0.0028
 7024TIP3    H142563   3.283   3.150   5.239 -0.0900  0.5735 -1.8935
 7024TIP3    H242564   3.272   3.053   5.124  0.0329 -1.8223  0.0216
 7025TIP3   OH242565   4.016   4.157  16.376  0.0660  0.3313 -0.1740
 7025TIP3    H142566   4.056   4.244  16.383 -1.8304  1.3543 -1.0412
 7025TIP3    H242567   4.056   4.106  16.446 -0.5264  2.6604  2.0252
 7026TIP3   OH242568   2.295   2.960   5.982  0.4741  0.0364  0.5356
 7026TIP3    H142569   2.321   3.051   5.996 -2.3265  1.4402 -2.1812
 7026TIP3    H242570   2.311   2.944   5.889 -2.0222 -1.1315  0.2325
 7027TIP3   OH242571   3.438   1.645  15.151 -0.3551 -0.0627  0.0226
 7027TIP3    H142572   3.421   1.616  15.061 -1.9953 -0.1475  0.3338
 7027TIP3    H242573   3.427   1.565  15.204 -1.7884  0.4563  0.5434
 7028TIP3   OH242574   1.886   6.557   1.327 -0.1998  0.0310 -0.4123
 7028TIP3    H142575   1.865   6.501   1.401  0.3773 -1.6405 -1.4659
 7028TIP3    H242576   1.801   6.591   1.297 -0.5872 -0.5240  0.0541
 7029TIP3   OH242577   0.197   6.446  13.849  0.6195 -0.0678 -0.1509
 7029TIP3    H142578   0.101   6.452  13.847  0.5128 -1.3899 -0.1997
 7029TIP3    H242579   0.220   6.453  13.942  0.7621  3.2071 -0.3235
 7030TIP3   OH242580   5.033   3.426  14.317  0.0973  0.3384  0.1773
 7030TIP3    H142581   5.114   3.457  14.356  1.9700 -1.6182 -1.8379
 7030TIP3    H242582   5.004   3.355  14.375 -1.2007  2.1252  1.8201
 7031TIP3   OH242583   5.250   5.430  13.181 -0.1985 -0.6437  0.5771
 7031TIP3    H142584   5.177   5.410  13.123 -1.1503 -1.0807  1.8822
 7031TIP3    H242585   5.265   5.524  13.169 -0.3176 -0.7396 -0.4128
 7032TIP3   OH242586   1.112   4.980  15.932 -0.4880 -0.2350 -0.0743
 7032TIP3    H142587   1.076   4.998  16.019  0.3785 -1.6248  0.6142
 7032TIP3    H242588   1.154   5.062  15.905 -1.6973  0.5432  0.3224
 7033TIP3   OH242589   5.100   4.434   0.505 -0.2880  0.1229 -0.0740
 7033TIP3    H142590   5.128   4.510   0.454 -1.6106  0.3502 -0.4838
 7033TIP3    H242591   5.136   4.359   0.458 -0.4699  0.4011 -0.6665
 7034TIP3   OH242592   4.829   6.331  14.163 -0.0587 -0.2759 -0.3651
 7034TIP3    H142593   4.924   6.341  14.151 -0.0878 -0.5132 -0.8191
 7034TIP3    H242594   4.803   6.407  14.214  0.4932 -0.5691  0.3752
 7035TIP3   OH242595   2.760   5.205  11.481 -0.5248 -0.0770 -0.5988
 7035TIP3    H142596   2.845   5.240  11.458  1.1115 -1.8606  2.1726
 7035TIP3    H242597   2.729   5.162  11.400  2.1645 -1.1392 -1.1582
 7036TIP3   OH242598   5.894   4.710  12.772 -0.2720  0.0861  0.0363
 7036TIP3    H142599   5.828   4.697  12.703 -0.1039 -0.4180 -0.0335
 7036TIP3    H242600   5.959   4.641  12.756  1.0048  1.4113 -0.7507
 7037TIP3   OH242601   4.393   0.391  11.668 -0.2827  0.0645 -0.4945
 7037TIP3    H142602   4.411   0.350  11.583 -2.4427  0.4431 -1.1896
 7037TIP3    H242603   4.299   0.410  11.666 -0.6784 -1.1347  2.5392
 7038TIP3   OH242604   4.320   6.373   5.769 -0.1471  0.1299 -0.0570
 7038TIP3    H142605   4.305   6.406   5.857  1.8391 -0.8980  0.7437
 7038TIP3    H242606   4.350   6.449   5.719  0.2468  0.4077  0.5975
 7039TIP3   OH242607   5.762   0.984  11.728  0.2159  0.1284 -0.6325
 7039TIP3    H142608   5.850   1.006  11.697  1.4838 -2.7385  0.5385
 7039TIP3    H242609   5.736   1.058  11.783  2.0175  0.9418 -0.8216
 7040TIP3   OH242610   2.635   0.343  12.479  0.2599 -0.0187 -0.1258
 7040TIP3    H142611   2.721   0.344  12.523  0.5497  0.5781 -0.6864
 7040TIP3    H242612   2.573   0.363  12.549  0.6116 -0.1015  0.2213
 7041TIP3   OH242613   5.833   0.211   6.779 -0.1412 -0.5496 -0.0040
 7041TIP3    H142614   5.860   0.286   6.831 -0.9789 -1.9724  2.6968
 7041TIP3    H242615   5.912   0.185   6.732  0.6003  0.9683  0.3412
 7042TIP3   OH242616   0.022   6.788   4.677 -0.1236  0.1840  0.7767
 7042TIP3    H142617   0.095   6.779   4.616 -0.5868  0.7803  0.1253
 7042TIP3    H242618   0.048   6.735   4.753  0.5437 -0.3990  0.1550
 7043TIP3   OH242619   6.074   2.979  13.775  0.2608  0.4480 -0.3829
 7043TIP3    H142620   6.107   3.039  13.708  0.1522  0.7272 -0.1845
 7043TIP3    H242621   6.138   2.986  13.846 -0.2150  0.9695 -0.0082
 7044TIP3   OH242622   0.644   5.281  15.252 -0.2273 -0.4821  0.2398
 7044TIP3    H142623   0.715   5.312  15.307  0.9362  3.1862 -2.8621
 7044TIP3    H242624   0.684   5.214  15.197 -0.4434 -1.6045  1.4169
 7045TIP3   OH242625   2.920   0.852  11.646 -0.4929  0.0769  0.0787
 7045TIP3    H142626   2.984   0.916  11.678  0.9148 -0.1985 -1.9836
 7045TIP3    H242627   2.860   0.903  11.591 -0.0404 -0.1865 -0.6659
 7046TIP3   OH242628   5.178   0.009  16.641 -0.6380 -0.3245 -0.8295
 7046TIP3    H142629   5.133  -0.020  16.720  0.0397 -1.5659 -0.8732
 7046TIP3    H242630   5.233   0.082  16.669 -0.7270 -0.4853 -0.2378
 7047TIP3   OH242631   4.127   3.302  17.166  0.1332  0.5845  0.8276
 7047TIP3    H142632   4.133   3.211  17.195  2.6105  0.8246  1.2177
 7047TIP3    H242633   4.053   3.338  17.215 -0.1867 -0.9176  1.4933
 7048TIP3   OH242634   0.896   5.127   4.159  0.1094 -0.2430  0.3310
 7048TIP3    H142635   0.830   5.147   4.225 -0.2219 -0.1842 -0.0127
 7048TIP3    H242636   0.852   5.067   4.098 -0.8683  2.5313 -1.9319
 7049TIP3   OH242637   3.183   0.990   5.042  0.9640 -0.1823  0.6649
 7049TIP3    H142638   3.153   0.918   4.986 -1.9501  1.0176  0.4671
 7049TIP3    H242639   3.197   1.063   4.981 -2.4101  1.1905  1.2698
 7050TIP3   OH242640   1.281   3.529   4.933 -0.5064  0.2775 -0.5725
 7050TIP3    H142641   1.369   3.560   4.911 -0.6541  0.6268 -0.6774
 7050TIP3    H242642   1.295   3.456   4.994 -0.1946  1.6781  1.1015
 7051TIP3   OH242643   6.484   3.700   3.219  0.4920  0.1927  0.0386
 7051TIP3    H142644   6.444   3.780   3.253 -0.4164 -0.0723 -0.3633
 7051TIP3    H242645   6.480   3.710   3.124 -0.5286 -0.7381 -0.0396
 7052TIP3   OH242646   5.526   1.336  12.396 -0.5055 -0.2677 -0.0165
 7052TIP3    H142647   5.582   1.275  12.443  0.3449 -2.1117 -3.1169
 7052TIP3    H242648   5.583   1.409  12.374 -0.0399 -0.8277 -0.7351
 7053TIP3   OH242649   5.959   1.450   0.868 -0.7703 -0.0874  0.0083
 7053TIP3    H142650   6.033   1.412   0.916  0.3996  0.6475 -1.1591
 7053TIP3    H242651   5.995   1.473   0.783 -1.9606  1.7349 -0.0516
 7054TIP3   OH242652   3.112   6.268   0.980  0.5566  0.6250  0.4166
 7054TIP3    H142653   3.144   6.342   1.031 -1.7354  2.6556 -0.9106
 7054TIP3    H242654   3.029   6.244   1.019 -0.1086  0.6779 -0.8987
 7055TIP3   OH242655   0.897   4.662   4.809 -0.6430  0.1567 -0.0246
 7055TIP3    H142656   0.945   4.744   4.824 -0.4461  0.2413 -1.0701
 7055TIP3    H242657   0.910   4.643   4.716 -0.5394 -1.1694  0.2515
 7056TIP3   OH242658   2.877   0.639  12.616 -0.1053 -0.4404  0.1905
 7056TIP3    H142659   2.878   0.552  12.656 -0.3295  0.1679  1.5732
 7056TIP3    H242660   2.809   0.633  12.550  1.6152 -2.0706 -1.5938
 7057TIP3   OH242661   5.075   3.598   3.559 -0.3799  0.3406 -0.0480
 7057TIP3    H142662   5.035   3.511   3.550 -0.5576  0.6335 -3.9789
 7057TIP3    H242663   5.010   3.658   3.521  1.2323  1.6489 -0.8673
 7058TIP3   OH242664   2.743   3.019  11.875  0.1839 -0.9384 -0.5754
 7058TIP3    H142665   2.760   3.094  11.818 -1.4911 -0.5822 -0.6401
 7058TIP3    H242666   2.772   2.943  11.825  1.0912 -0.4302 -0.8533
 7059TIP3   OH242667   2.844   5.731  11.630 -0.0005  0.5615  0.2512
 7059TIP3    H142668   2.755   5.766  11.636 -0.4555 -0.5333  0.1312
 7059TIP3    H242669   2.871   5.719  11.721 -0.0484  0.7187  0.2860
 7060TIP3   OH242670   0.739   6.373   2.787  0.9210 -0.0329 -0.5746
 7060TIP3    H142671   0.812   6.435   2.792 -0.0914  1.3865 -2.3027
 7060TIP3    H242672   0.770   6.296   2.834  2.5675  1.4421  0.9003
 7061TIP3   OH242673   1.277   0.850   2.192 -0.2866 -0.0827  0.6266
 7061TIP3    H142674   1.365   0.855   2.154 -0.5609  0.3537  0.0182
 7061TIP3    H242675   1.243   0.940   2.186 -1.0859 -0.4064  0.0722
 7062TIP3   OH242676   6.779   3.781   4.849  0.2206  0.6638 -0.1489
 7062TIP3    H142677   6.837   3.735   4.909 -1.7742 -1.3579  0.3506
 7062TIP3    H242678   6.778   3.728   4.769 -1.5583  0.1353  0.1705
 7063TIP3   OH242679   4.126   4.872   5.863  0.0428 -0.0545 -0.1990
 7063TIP3    H142680   4.085   4.870   5.950 -0.3244 -0.2947 -0.3736
 7063TIP3    H242681   4.070   4.816   5.809 -0.4446  1.0419 -0.8874
 7064TIP3   OH242682   4.416   3.498  15.383  0.1887  0.1318 -0.5018
 7064TIP3    H142683   4.399   3.463  15.296  0.6246 -0.2077 -0.4540
 7064TIP3    H242684   4.431   3.591  15.370 -0.2562  0.1765 -0.7229
 7065TIP3   OH242685   0.588   5.242  16.825  0.2790  0.4193  0.0268
 7065TIP3    H142686   0.498   5.248  16.854 -0.6238  2.3032 -2.7360
 7065TIP3    H242687   0.601   5.149  16.805 -0.6144 -0.0651  1.5494
 7066TIP3   OH242688   4.596   2.652  15.369 -0.2011  0.2855 -0.8069
 7066TIP3    H142689   4.686   2.675  15.392 -0.6844  0.5948  0.8796
 7066TIP3    H242690   4.599   2.636  15.275  1.6040  0.3469 -0.7929
 7067TIP3   OH242691   5.237   6.738  16.191 -0.5164 -0.1222 -0.2368
 7067TIP3    H142692   5.205   6.761  16.279  2.0528  0.5534  0.6191
 7067TIP3    H242693   5.278   6.652  16.203 -1.5243 -0.7494 -1.1722
 7068TIP3   OH242694   2.475   0.456   0.204  0.4985 -0.3542  0.1556
 7068TIP3    H142695   2.509   0.516   0.137 -1.0036 -0.2704 -0.5693
 7068TIP3    H242696   2.524   0.375   0.189  0.2977 -0.2903 -0.9500
 7069TIP3   OH242697   0.073   3.196  12.887  0.3282 -0.0728 -0.2562
 7069TIP3    H142698   0.014   3.210  12.961 -0.8613 -1.0887 -0.9684
 7069TIP3    H242699   0.028   3.235  12.812 -0.2289 -2.1561 -1.1004
 7070TIP3   OH242700   0.708   0.444  13.608  0.0535  0.2633  0.5627
 7070TIP3    H142701   0.781   0.428  13.667  0.1615 -1.8495 -0.0508
 7070TIP3    H242702   0.749   0.463  13.524  0.0054 -2.1189 -0.0824
 7071TIP3   OH242703   0.394   4.278  12.322 -0.2759 -0.1414  0.5297
 7071TIP3    H142704   0.487   4.282  12.343  0.4136 -0.8682 -2.0030
 7071TIP3    H242705   0.384   4.340  12.250 -1.1848 -1.8930 -0.9293
 7072TIP3   OH242706   5.211   2.419   5.771 -0.5469  0.0532  0.2230
 7072TIP3    H142707   5.246   2.386   5.854  1.4068 -0.6936 -0.8330
 7072TIP3    H242708   5.131   2.369   5.757 -0.9530  0.2488  1.6753
 7073TIP3   OH242709   1.001   6.679   1.202  0.2376 -0.2457 -0.0729
 7073TIP3    H142710   1.016   6.732   1.280  0.1259  0.2977 -0.4115
 7073TIP3    H242711   0.931   6.619   1.226 -1.1697  1.1998 -0.3258
 7074TIP3   OH242712   1.656   3.494   0.667  0.0845  0.6105 -0.0115
 7074TIP3    H142713   1.629   3.441   0.592 -0.5977  2.5951 -1.2461
 7074TIP3    H242714   1.588   3.478   0.733  0.3963 -0.7204  0.0225
 7075TIP3   OH242715   3.183   6.829   3.691 -0.0891 -0.3042 -0.0419
 7075TIP3    H142716   3.238   6.897   3.652 -0.9470  0.0670 -0.6393
 7075TIP3    H242717   3.096   6.867   3.693 -0.9312 -1.9179 -1.8905
 7076TIP3   OH242718   5.432   5.213  13.254  0.5208 -0.5780 -0.5027
 7076TIP3    H142719   5.374   5.284  13.227  1.1776 -0.4791 -1.7556
 7076TIP3    H242720   5.380   5.161  13.315 -0.5205  0.0878 -0.7955
 7077TIP3   OH242721   0.577   4.283  14.873 -0.1189 -0.2347  0.1367
 7077TIP3    H142722   0.591   4.303  14.780  1.2431  0.3801  0.4369
 7077TIP3    H242723   0.487   4.252  14.878 -1.2364  2.4999 -0.9652
 7078TIP3   OH242724   5.419   5.294   4.214  0.4300 -0.4611 -0.1901
 7078TIP3    H142725   5.479   5.249   4.273 -0.1906 -1.3462 -0.2164
 7078TIP3    H242726   5.341   5.239   4.212 -0.3370  0.5925 -0.2634
 7079TIP3   OH242727   3.470   3.316   3.310  0.3237  0.0359 -0.1563
 7079TIP3    H142728   3.394   3.319   3.251  0.4146  0.8532 -0.2494
 7079TIP3    H242729   3.546   3.326   3.251  0.4024  1.1536  0.1080
 7080TIP3   OH242730   3.122   1.537   3.419 -0.3315 -0.3654  0.1032
 7080TIP3    H142731   3.120   1.448   3.385 -1.5157  0.2365 -1.5018
 7080TIP3    H242732   3.085   1.529   3.507 -3.0483 -1.1160 -1.0045
 7081TIP3   OH242733   5.645   1.474   5.977  0.2129  0.3642  0.4246
 7081TIP3    H142734   5.682   1.493   5.891  2.4704  2.3092  1.7050
 7081TIP3    H242735   5.578   1.542   5.989  1.4876  1.5628  1.0543
 7082TIP3   OH242736   3.365   2.948   3.278 -0.3841  0.0977 -1.0287
 7082TIP3    H142737   3.441   2.989   3.236 -0.7938  0.2204 -1.6685
 7082TIP3    H242738   3.357   2.863   3.234  0.6048 -0.8070  0.4492
 7083TIP3   OH242739   0.956   4.894   3.244  0.0316  0.1446  0.1452
 7083TIP3    H142740   0.991   4.811   3.211 -0.9667  0.3164 -1.4672
 7083TIP3    H242741   0.861   4.880   3.246 -0.0194  0.4936  2.1013
 7084TIP3   OH242742   3.385   4.851   1.622  0.1863 -0.0902  0.1531
 7084TIP3    H142743   3.329   4.840   1.544 -1.0794  0.6263  0.9246
 7084TIP3    H242744   3.358   4.780   1.681  0.6099 -0.1729  0.2510
 7085TIP3   OH242745   2.087   5.385  16.922  0.0728 -0.5253 -0.1083
 7085TIP3    H142746   2.173   5.426  16.925 -0.0029 -0.4330  1.6567
 7085TIP3    H242747   2.103   5.297  16.888  0.8000 -0.3708 -0.1734
 7086TIP3   OH242748   5.438   5.603   3.323  0.1909 -0.5065  0.3054
 7086TIP3    H142749   5.498   5.528   3.321 -0.1273 -0.7513 -0.4424
 7086TIP3    H242750   5.372   5.579   3.388  0.3201 -0.7021  0.3661
 7087TIP3   OH242751   2.739   4.779  11.547  0.3439 -0.1837  0.7283
 7087TIP3    H142752   2.801   4.790  11.618  0.2040  0.2354  0.7855
 7087TIP3    H242753   2.718   4.685  11.548  0.9158 -0.3184  0.7499
 7088TIP3   OH242754   1.790   1.661  12.913  0.3749  0.4607 -0.8089
 7088TIP3    H142755   1.853   1.677  12.982  0.9334  0.2046 -1.2483
 7088TIP3    H242756   1.705   1.654  12.958  0.8058 -0.2779 -0.0893
 7089TIP3   OH242757   0.090   6.283   4.942 -0.0007  0.3568 -0.1451
 7089TIP3    H142758   0.001   6.256   4.965  0.4485 -0.1263  1.1298
 7089TIP3    H242759   0.118   6.220   4.876  0.2078 -0.9851  1.1486
 7090TIP3   OH242760   6.410   3.121  12.694 -0.0390 -0.1212 -0.2353
 7090TIP3    H142761   6.476   3.052  12.701  0.6468  0.3321 -1.8357
 7090TIP3    H242762   6.361   3.115  12.776  0.3072 -2.1849 -0.1094
 7091TIP3   OH242763   3.424   1.950   4.839 -0.4685 -0.0558 -0.2862
 7091TIP3    H142764   3.336   1.980   4.863 -0.4638  0.8886 -1.3961
 7091TIP3    H242765   3.439   1.986   4.752  0.9529 -0.3721 -0.1933
 7092TIP3   OH242766   5.891   5.355  13.491 -0.0081  0.5727  0.6162
 7092TIP3    H142767   5.952   5.302  13.440  0.3505 -0.1379  1.7466
 7092TIP3    H242768   5.808   5.348  13.443  0.0461 -0.9699  0.6935
 7093TIP3   OH242769   3.613   5.980   1.717 -0.2990 -0.7789 -0.5367
 7093TIP3    H142770   3.528   5.987   1.673 -0.1246  1.2865 -0.6045
 7093TIP3    H242771   3.590   5.969   1.809 -0.6326 -0.7480 -0.6126
 7094TIP3   OH242772   4.560   5.441  16.976 -0.0296 -0.1120  0.5165
 7094TIP3    H142773   4.605   5.496  17.040  1.6780  0.0124 -0.7231
 7094TIP3    H242774   4.608   5.359  16.976 -2.2666 -1.5271  1.9951
 7095TIP3   OH242775   5.504   1.579   2.835 -0.5405 -0.5853  0.0009
 7095TIP3    H142776   5.412   1.556   2.838 -0.1925 -2.2561 -1.1640
 7095TIP3    H242777   5.506   1.673   2.852 -2.3387 -0.7302  1.1978
 7096TIP3   OH242778   0.103   0.012   0.999 -0.0933  0.4766  0.5051
 7096TIP3    H142779   0.069  -0.072   1.030  0.6092  0.8278  2.3492
 7096TIP3    H242780   0.170  -0.011   0.935 -1.8510 -0.2680 -1.1528
 7097TIP3   OH242781   5.593   2.372  14.222 -0.1008  0.2295 -0.7304
 7097TIP3    H142782   5.624   2.312  14.155 -2.9997 -2.2229 -0.0530
 7097TIP3    H242783   5.507   2.401  14.191 -0.8575  0.1989  1.1995
 7098TIP3   OH242784   3.727   5.838  10.183 -0.0976  0.6387  0.0457
 7098TIP3    H142785   3.693   5.922  10.215 -0.9621  0.3744 -0.1489
 7098TIP3    H242786   3.659   5.775  10.206  0.0555  0.1686 -0.7574
 7099TIP3   OH242787   5.510   4.312  14.922  0.0096  0.4133  0.0102
 7099TIP3    H142788   5.513   4.379  14.854  1.1888 -1.1216 -1.5441
 7099TIP3    H242789   5.600   4.282  14.931 -0.5887 -1.5626 -0.0064
 7100TIP3   OH242790   6.261   1.898  15.580  0.1353 -0.5917  0.4258
 7100TIP3    H142791   6.252   1.878  15.674 -1.0462 -1.8791  0.0638
 7100TIP3    H242792   6.227   1.987  15.572 -0.0431 -0.5826  1.1688
 7101TIP3   OH242793   4.234   3.356   0.354 -0.4180 -0.3300  0.1689
 7101TIP3    H142794   4.187   3.436   0.331 -0.3098 -0.0405  0.9329
 7101TIP3    H242795   4.171   3.305   0.405  0.0461  0.0102  1.1051
 7102TIP3   OH242796   6.758   3.159   2.493  0.0507 -0.2536  0.0289
 7102TIP3    H142797   6.732   3.251   2.500 -0.8740 -0.6213  1.8622
 7102TIP3    H242798   6.851   3.159   2.516  0.4176  0.3575 -1.3104
 7103TIP3   OH242799   1.739   0.618  14.883  0.1093 -0.2610 -0.2259
 7103TIP3    H142800   1.643   0.618  14.880  0.0110  1.2440  1.3539
 7103TIP3    H242801   1.760   0.537  14.930 -0.4100 -0.4134 -0.2381
 7104TIP3   OH242802   2.539   1.860  11.670 -0.5420  0.2630  0.4290
 7104TIP3    H142803   2.601   1.793  11.643  0.3664  0.9517  0.7835
 7104TIP3    H242804   2.536   1.921  11.597 -0.9828  0.1099  0.3169
 7105TIP3   OH242805   4.300   5.331   6.363 -0.2156  0.4127  0.7222
 7105TIP3    H142806   4.355   5.256   6.389 -0.0283  0.7714  1.3903
 7105TIP3    H242807   4.224   5.325   6.422 -0.7869  0.0597 -0.0344
 7106TIP3   OH242808   4.565   1.758   6.159 -0.1290 -0.1927 -0.1440
 7106TIP3    H142809   4.529   1.703   6.229 -0.9478  1.5329  0.8516
 7106TIP3    H242810   4.634   1.705   6.120 -0.8101 -1.8760  0.8344
 7107TIP3   OH242811   4.314   0.269   1.110  0.4571 -0.2987 -0.3574
 7107TIP3    H142812   4.250   0.276   1.181  1.3993  0.2512  0.4407
 7107TIP3    H242813   4.309   0.353   1.064 -0.3677 -0.7612 -1.1556
 7108TIP3   OH242814   4.795   0.159  13.014 -0.2199 -0.3567  0.2539
 7108TIP3    H142815   4.854   0.152  12.939 -0.5984  0.1099 -0.0913
 7108TIP3    H242816   4.707   0.160  12.975 -0.4378 -0.5323  0.7327
 7109TIP3   OH242817   5.814   5.187   4.861  0.0940 -0.1052  0.3989
 7109TIP3    H142818   5.899   5.172   4.819 -1.3903 -2.7590 -1.9877
 7109TIP3    H242819   5.765   5.106   4.846 -3.6082  1.9977 -0.1153
 7110TIP3   OH242820   5.391   4.126  16.896 -0.2005  0.9928  0.5683
 7110TIP3    H142821   5.420   4.154  16.982  0.6432  0.6293  0.4140
 7110TIP3    H242822   5.343   4.201  16.861  1.6741  2.1654  0.3112
 7111TIP3   OH242823   0.406   5.670  13.101 -0.3701 -0.1498 -0.2713
 7111TIP3    H142824   0.479   5.647  13.158  0.4780  0.4060 -1.0931
 7111TIP3    H242825   0.398   5.596  13.041  0.4761  0.4014 -1.0901
 7112TIP3   OH242826   4.196   5.033  13.759 -0.2189 -0.1690  0.2164
 7112TIP3    H142827   4.247   5.052  13.838 -1.8470  3.4917  0.5547
 7112TIP3    H242828   4.112   5.002  13.791 -0.5625  0.4274 -0.0918
 7113TIP3   OH242829   6.643   1.487  12.916  0.8246 -0.1898  0.4541
 7113TIP3    H142830   6.711   1.467  12.981  0.7487 -0.8863  0.3326
 7113TIP3    H242831   6.634   1.406  12.866 -0.7892 -0.4411  1.0984
 7114TIP3   OH242832   6.517   3.605  15.882 -0.3204  0.5409  0.4298
 7114TIP3    H142833   6.496   3.582  15.791  0.2005  1.7952 -0.0220
 7114TIP3    H242834   6.574   3.681  15.875  2.9581 -1.5586  1.6295
 7115TIP3   OH242835   5.347   5.189  12.580  0.3355  0.2425 -0.3164
 7115TIP3    H142836   5.423   5.149  12.621  0.9652  1.5944 -0.1398
 7115TIP3    H242837   5.280   5.121  12.583  1.8035 -1.3432 -1.3610
 7116TIP3   OH242838   1.487   2.018   2.986  0.0611 -0.1014 -0.1259
 7116TIP3    H142839   1.570   2.030   3.032  0.0073 -1.2565  0.3131
 7116TIP3    H242840   1.423   2.065   3.040  0.3962  0.6864 -0.4002
 7117TIP3   OH242841   1.175   4.697  13.185  0.0954 -0.1202 -0.4841
 7117TIP3    H142842   1.188   4.791  13.193 -1.0158  0.0261 -0.2912
 7117TIP3    H242843   1.256   4.659  13.220  0.5783  0.7562 -0.6250
 7118TIP3   OH242844   1.877   5.885   2.175  0.0955 -0.3665  0.5248
 7118TIP3    H142845   1.870   5.894   2.080  1.2495  0.7671  0.5125
 7118TIP3    H242846   1.787   5.893   2.207 -0.1332  0.8526 -0.3716
 7119TIP3   OH242847   0.507   2.484  15.355  0.0604  0.2398  0.2685
 7119TIP3    H142848   0.592   2.460  15.318  0.2700  1.8822 -0.3832
 7119TIP3    H242849   0.461   2.527  15.284 -1.2569 -0.4271  0.6873
 7120TIP3   OH242850   4.319   0.946   4.680  0.0436 -0.3785 -0.0124
 7120TIP3    H142851   4.301   0.908   4.595 -2.1656  0.2283  0.1277
 7120TIP3    H242852   4.337   1.038   4.662  1.6441 -0.6437  0.0254
 7121TIP3   OH242853   4.589   2.302   2.954 -0.5794  0.7333 -0.2800
 7121TIP3    H142854   4.560   2.380   3.001 -2.5025 -0.2544  0.2814
 7121TIP3    H242855   4.615   2.334   2.867 -1.6667  1.9546 -0.1843
 7122TIP3   OH242856   6.635   1.499   0.246  0.3165 -0.7027  0.4866
 7122TIP3    H142857   6.637   1.594   0.234 -1.3670 -0.7397 -0.3770
 7122TIP3    H242858   6.715   1.468   0.204  0.2653  0.2364 -0.3431
 7123TIP3   OH242859   6.534   6.430  14.513  0.1906  0.2615 -0.0736
 7123TIP3    H142860   6.523   6.339  14.487 -1.5641  0.7639 -1.2215
 7123TIP3    H242861   6.625   6.451  14.488  0.7546 -1.2556  0.5905
 7124TIP3   OH242862   1.598   3.920  13.361  0.1460 -0.6940  0.5518
 7124TIP3    H142863   1.546   3.840  13.359 -1.6637  0.3083 -3.4257
 7124TIP3    H242864   1.689   3.890  13.359 -0.4884 -2.8015 -1.6780
 7125TIP3   OH242865   0.982   4.908  13.905  0.1485  0.3288 -0.1464
 7125TIP3    H142866   0.900   4.859  13.902 -0.6390  1.5970 -0.6434
 7125TIP3    H242867   0.964   4.981  13.965  1.1108  0.3013  0.1893
 7126TIP3   OH242868   5.676   2.775  14.173 -0.0740 -0.1660 -0.0812
 7126TIP3    H142869   5.734   2.790  14.248  0.7381 -2.0833 -0.2965
 7126TIP3    H242870   5.730   2.795  14.096 -0.9114  1.8155 -0.2183
 7127TIP3   OH242871   5.789   6.333  12.933  0.3702  0.6009  0.1411
 7127TIP3    H142872   5.866   6.375  12.971  1.4241  1.8467 -3.0787
 7127TIP3    H242873   5.715   6.377  12.975  1.2172 -0.8579  3.5640
 7128TIP3   OH242874   0.213   2.070   1.964 -0.7304 -0.3939  0.3187
 7128TIP3    H142875   0.258   2.100   2.043 -1.0782 -0.8009  0.6752
 7128TIP3    H242876   0.243   1.980   1.952  0.6963  0.2235 -1.0288
 7129TIP3   OH242877   5.794   4.012  11.923  0.2750 -0.1236 -0.3357
 7129TIP3    H142878   5.722   4.019  11.861  0.7766 -0.2906 -0.9526
 7129TIP3    H242879   5.752   4.003  12.009 -0.4229  0.7391 -0.5768
 7130TIP3   OH242880   4.191   1.465  15.714  0.0554 -0.2647 -0.5485
 7130TIP3    H142881   4.102   1.494  15.696 -0.1943 -1.4983 -1.3959
 7130TIP3    H242882   4.219   1.422  15.634  1.9029  1.2111 -0.7876
 7131TIP3   OH242883   2.685   6.136  15.371 -0.1416 -0.2429  0.0923
 7131TIP3    H142884   2.738   6.071  15.323 -0.4023 -0.8711  0.6429
 7131TIP3    H242885   2.599   6.095  15.381 -0.5000  0.4469 -0.0913
 7132TIP3   OH242886   2.479   3.216  16.051 -0.8023  0.3343 -0.4469
 7132TIP3    H142887   2.502   3.232  16.143  2.1809  0.0653 -1.0211
 7132TIP3    H242888   2.410   3.280  16.032 -0.7613  1.1132  1.6909
 7133TIP3   OH242889   2.843   6.102   2.340 -0.5489 -0.0528 -0.1222
 7133TIP3    H142890   2.905   6.034   2.312 -1.0600 -1.2824  1.5521
 7133TIP3    H242891   2.778   6.106   2.271  0.5433  0.1417 -1.1630
 7134TIP3   OH242892   6.026   5.756  15.003 -0.1479  0.1626 -0.2935
 7134TIP3    H142893   6.084   5.687  15.035  0.5644  1.0884  0.4984
 7134TIP3    H242894   6.040   5.758  14.908  0.1568 -0.4839 -0.2666
 7135TIP3   OH242895   2.417   2.839  15.474 -0.1379 -0.2560 -0.0261
 7135TIP3    H142896   2.370   2.877  15.548  0.1577 -0.4026  0.2345
 7135TIP3    H242897   2.509   2.849  15.496 -0.0307  0.5831 -0.8165
 7136TIP3   OH242898   3.598   3.835   1.705  0.5805  0.4467  0.2552
 7136TIP3    H142899   3.669   3.873   1.757  0.0642  0.5084  0.9287
 7136TIP3    H242900   3.532   3.904   1.700  0.1973  0.0994  0.3823
 7137TIP3   OH242901   6.627   6.653  13.112  0.2127  0.0707 -0.0953
 7137TIP3    H142902   6.658   6.688  13.195  1.1847 -0.0398 -0.3915
 7137TIP3    H242903   6.535   6.677  13.108  0.4385  1.0836  0.4863
 7138TIP3   OH242904   1.058   2.374  10.859 -0.8058 -0.0077  0.0416
 7138TIP3    H142905   1.148   2.408  10.858 -1.2171  1.1733  1.1838
 7138TIP3    H242906   1.003   2.450  10.840 -1.5600 -0.8998 -1.6289
 7139TIP3   OH242907   1.342   0.236   4.363 -0.4308  0.0743 -0.1530
 7139TIP3    H142908   1.437   0.231   4.353 -0.2698 -1.1433  1.6714
 7139TIP3    H242909   1.307   0.188   4.287  0.4652 -1.1032  0.1658
 7140TIP3   OH242910   0.760   0.015  14.487 -0.4067 -0.6960  0.0781
 7140TIP3    H142911   0.850   0.040  14.466 -0.0477 -1.3140  0.8133
 7140TIP3    H242912   0.729  -0.031  14.409  0.3188 -1.4817  0.2265
 7141TIP3   OH242913   2.315   2.778   4.278  0.8586  0.0414 -0.2714
 7141TIP3    H142914   2.267   2.759   4.197 -1.6572  0.7179  0.9398
 7141TIP3    H242915   2.285   2.711   4.340  1.4510  0.5095  0.5403
 7142TIP3   OH242916   4.361   1.897   1.381  0.1138 -0.5206  0.5832
 7142TIP3    H142917   4.337   1.988   1.362  0.1275 -0.3824  1.2261
 7142TIP3    H242918   4.316   1.876   1.463 -2.4809 -2.1078 -1.0755
 7143TIP3   OH242919   0.485   3.286  13.765 -0.4788  0.7033  0.5279
 7143TIP3    H142920   0.404   3.301  13.814 -0.6166  0.8053  0.2762
 7143TIP3    H242921   0.463   3.217  13.702 -0.5306  1.0988  0.0998
 7144TIP3   OH242922   3.801   2.417   4.131 -0.7624  0.2387  0.7377
 7144TIP3    H142923   3.709   2.409   4.157 -1.0185  0.9970  0.1208
 7144TIP3    H242924   3.813   2.352   4.062 -0.9215  0.3569  0.5986
 7145TIP3   OH242925   5.095   6.480   1.641  0.0528 -0.2995  0.0081
 7145TIP3    H142926   5.128   6.523   1.562  0.1333 -0.1650  0.1131
 7145TIP3    H242927   5.040   6.409   1.609 -0.5260  0.2199 -0.1756
 7146TIP3   OH242928   0.389   0.447   4.037  0.2048  0.6954  0.2504
 7146TIP3    H142929   0.300   0.478   4.021 -0.7236 -1.5107  0.7881
 7146TIP3    H242930   0.416   0.408   3.954  0.0943  0.0474  0.5179
 7147TIP3   OH242931   3.271   1.174  13.303  0.3426 -1.0150 -0.5661
 7147TIP3    H142932   3.262   1.128  13.386 -0.6941 -0.0639 -0.1391
 7147TIP3    H242933   3.295   1.263  13.327 -1.2462 -0.3802 -1.1877
 7148TIP3   OH242934   4.338   1.689  13.331 -0.1862  0.4845 -0.5941
 7148TIP3    H142935   4.337   1.595  13.315 -1.2216  0.4960 -0.7102
 7148TIP3    H242936   4.311   1.727  13.247 -0.2016  0.8531 -0.4252
 7149TIP3   OH242937   0.932   6.690  12.030 -0.4818  0.6427 -0.1459
 7149TIP3    H142938   0.893   6.619  12.081  1.4441 -0.2249  0.2122
 7149TIP3    H242939   0.875   6.765  12.046 -2.9597 -0.9374 -1.0767
 7150TIP3   OH242940   4.318   3.009  11.654 -0.5378 -0.3454 -0.4809
 7150TIP3    H142941   4.352   2.924  11.679 -0.9273 -0.2086  0.5680
 7150TIP3    H242942   4.256   2.991  11.584 -1.2070 -1.0269  0.2701
 7151TIP3   OH242943   4.619   5.386  11.305  0.2529  0.4356 -0.5132
 7151TIP3    H142944   4.551   5.413  11.244 -0.7903  0.9769  0.8321
 7151TIP3    H242945   4.620   5.290  11.299 -0.8491  0.3976 -0.3449
 7152TIP3   OH242946   2.495   2.801   3.325  0.2219  0.5784 -0.6433
 7152TIP3    H142947   2.483   2.842   3.410 -0.7397 -0.2864 -0.3483
 7152TIP3    H242948   2.547   2.723   3.343 -1.7559 -0.7750 -0.4779
 7153TIP3   OH242949   5.666   0.700  14.188  0.6628 -0.4292 -0.2888
 7153TIP3    H142950   5.719   0.620  14.179 -0.3292 -1.0534 -0.8170
 7153TIP3    H242951   5.583   0.677  14.147  1.1121  1.6227 -2.5198
 7154TIP3   OH242952   3.179   5.935  13.362 -0.2465  0.1141 -0.0767
 7154TIP3    H142953   3.179   6.030  13.348 -0.2019 -0.1077 -1.8839
 7154TIP3    H242954   3.131   5.922  13.444  0.3726  1.7336  0.5802
 7155TIP3   OH242955   1.663   0.621  12.515 -0.0811 -0.5369 -0.5054
 7155TIP3    H142956   1.719   0.544  12.507  1.6857  0.7672 -1.4475
 7155TIP3    H242957   1.620   0.611  12.600 -0.1675 -2.6891 -0.7539
 7156TIP3   OH242958   2.354   2.453  15.042 -0.0485 -0.0285 -0.1358
 7156TIP3    H142959   2.393   2.535  15.073 -1.0158 -0.3192  2.0168
 7156TIP3    H242960   2.358   2.395  15.118 -2.0404 -1.0085 -0.7137
 7157TIP3   OH242961   3.619   4.686  14.031  0.3634  0.2741 -0.0904
 7157TIP3    H142962   3.561   4.621  13.990  0.9505 -0.5799  0.3915
 7157TIP3    H242963   3.607   4.765  13.979 -0.4668 -0.1835 -0.6215
 7158TIP3   OH242964   1.375   4.615   4.670 -0.2540  0.3735 -0.3594
 7158TIP3    H142965   1.365   4.638   4.763  0.7107  2.0237 -0.6249
 7158TIP3    H242966   1.336   4.689   4.623  0.6156  0.2643 -1.2765
 7159TIP3   OH242967   4.785   3.378   1.513 -0.5038  0.1428 -0.5855
 7159TIP3    H142968   4.737   3.296   1.502 -0.0604 -0.0435 -1.2194
 7159TIP3    H242969   4.813   3.401   1.425 -1.4988  1.5328 -0.5627
 7160TIP3   OH242970   5.949   0.275   0.623  0.0333  0.0412  0.1567
 7160TIP3    H142971   5.914   0.264   0.711  1.7287  0.7445  0.9585
 7160TIP3    H242972   6.021   0.337   0.633 -0.2734  0.8023 -1.8759
 7161TIP3   OH242973   1.160   3.428  11.969 -0.6484  0.4929  0.2576
 7161TIP3    H142974   1.076   3.435  11.923 -0.6483 -0.5537  0.0597
 7161TIP3    H242975   1.142   3.370  12.042  0.1100 -0.5352 -0.3482
 7162TIP3   OH242976   4.389   5.075   3.354 -0.1076 -0.1945  0.2622
 7162TIP3    H142977   4.359   5.119   3.275 -1.1576 -1.1455  0.0843
 7162TIP3    H242978   4.311   5.029   3.386  0.2896  0.1740  1.8590
 7163TIP3   OH242979   5.744   2.672   0.142 -0.1160 -0.2270 -0.0899
 7163TIP3    H142980   5.817   2.687   0.082  2.2178 -0.1412  2.5395
 7163TIP3    H242981   5.755   2.582   0.172  1.7461  0.9827  3.5503
 7164TIP3   OH242982   4.196   4.687  14.547 -0.1632  0.3225  0.3166
 7164TIP3    H142983   4.245   4.731  14.478 -0.5473 -1.4955 -1.2358
 7164TIP3    H242984   4.113   4.662  14.505 -0.2927 -1.0917  1.3373
 7165TIP3   OH242985   0.476   0.309  17.022 -0.4761  0.1012  0.3534
 7165TIP3    H142986   0.468   0.297  16.928 -0.0009 -0.0851  0.3355
 7165TIP3    H242987   0.570   0.304  17.039 -0.4161  1.6090  0.6309
 7166TIP3   OH242988   5.041   5.288  12.665 -0.3425 -0.4347 -0.5871
 7166TIP3    H142989   5.100   5.359  12.638 -0.8164  0.7010  1.1825
 7166TIP3    H242990   5.056   5.219  12.601  1.7370  0.4324 -1.1350
 7167TIP3   OH242991   6.740   4.732  12.146 -0.2842 -0.0446  0.3191
 7167TIP3    H142992   6.802   4.665  12.174  0.7616  0.1685 -1.3311
 7167TIP3    H242993   6.712   4.703  12.058  0.6083  1.9028 -0.6619
 7168TIP3   OH242994   5.679   4.221   2.986  0.1911  0.2819 -0.2202
 7168TIP3    H142995   5.758   4.185   3.027 -1.1609 -0.0634  2.2408
 7168TIP3    H242996   5.646   4.285   3.049  0.3407  3.1024 -2.7424
 7169TIP3   OH242997   5.190   4.587  16.954  0.2823 -0.1052 -0.0890
 7169TIP3    H142998   5.110   4.611  17.001  0.3078 -2.3074  1.2469
 7169TIP3    H242999   5.161   4.521  16.891  0.9358 -0.5244  0.0424
 7170TIP3   OH243000   2.662   0.146  12.784 -0.0208  0.0652 -0.5251
 7170TIP3    H143001   2.570   0.163  12.768 -0.1362  0.5172  0.5453
 7170TIP3    H243002   2.698   0.125  12.698 -0.7731  1.5127 -1.2242
 7171TIP3   OH243003   3.155   2.679   3.454 -0.3325  0.2865 -0.5813
 7171TIP3    H143004   3.180   2.736   3.527 -1.1575 -0.4201  0.2826
 7171TIP3    H243005   3.224   2.693   3.389  1.1976 -0.0628  0.8696
 7172TIP3   OH243006   0.830   1.163  17.188  0.3629  0.2771 -0.1744
 7172TIP3    H143007   0.740   1.195  17.190  0.1945 -0.1919 -0.1135
 7172TIP3    H243008   0.883   1.238  17.214 -0.1105  0.2243  0.9792
 7173TIP3   OH243009   3.016   6.767   0.511  0.1667  0.4857 -0.1977
 7173TIP3    H143010   3.066   6.729   0.583 -0.9771 -1.2197 -0.2411
 7173TIP3    H243011   3.033   6.709   0.437 -0.8730  0.6079 -0.5441
 7174TIP3   OH243012   6.614   6.188   0.866  0.3509 -0.5474  0.5136
 7174TIP3    H143013   6.524   6.163   0.887  0.1255  0.7638  1.1420
 7174TIP3    H243014   6.606   6.269   0.817  1.2702  1.0779  2.8875
 7175TIP3   OH243015   4.018   2.335  12.228  0.2376 -0.0693  0.6059
 7175TIP3    H143016   3.959   2.263  12.207 -0.0667  0.4793 -0.4495
 7175TIP3    H243017   4.095   2.319  12.174  0.1484  0.4248  0.3327
 7176TIP3   OH243018   4.944   5.467  11.465  0.5327  0.0297 -0.5101
 7176TIP3    H143019   5.007   5.409  11.421  0.3285 -0.5554 -0.0445
 7176TIP3    H243020   4.990   5.498  11.543  0.0715 -0.8238  0.1179
 7177TIP3   OH243021   1.808   3.596  16.208 -0.0356  0.2991  0.5574
 7177TIP3    H143022   1.712   3.597  16.210 -0.0431  2.0745  1.4211
 7177TIP3    H243023   1.831   3.508  16.240 -1.3434 -0.6380 -0.9080
 7178TIP3   OH243024   4.324   6.342  16.319 -0.6462 -0.0810  0.2097
 7178TIP3    H143025   4.414   6.314  16.304 -0.9043 -0.8106 -0.0236
 7178TIP3    H243026   4.273   6.294  16.253 -1.2176  0.2298  0.4209
 7179TIP3   OH243027   4.772   2.064  14.070  0.0671 -0.1771  0.1492
 7179TIP3    H143028   4.864   2.069  14.043  0.6068 -0.4945  1.7661
 7179TIP3    H243029   4.744   2.156  14.072 -0.5249 -0.2021 -2.9237
 7180TIP3   OH243030   0.105   0.135  16.829 -0.3518  0.0766 -0.0020
 7180TIP3    H143031   0.032   0.092  16.874  1.6121 -0.6834  2.7617
 7180TIP3    H243032   0.083   0.228  16.831  0.3235  0.3518  4.4091
 7181TIP3   OH243033   2.611   4.369   1.402 -0.3581 -0.5331 -0.2318
 7181TIP3    H143034   2.603   4.284   1.446 -0.1060 -0.5482 -0.2172
 7181TIP3    H243035   2.525   4.384   1.363 -0.0221 -1.3969 -1.3433
 7182TIP3   OH243036   3.518   5.093  12.740  0.3303  0.1194 -0.2661
 7182TIP3    H143037   3.465   5.027  12.693  1.1879 -0.8003  0.0217
 7182TIP3    H243038   3.603   5.051  12.751  1.9558  2.4486 -2.8001
 7183TIP3   OH243039   4.126   0.929   5.251  0.7328  0.6080 -0.0365
 7183TIP3    H143040   4.143   0.847   5.299  2.5530  1.2881  0.5656
 7183TIP3    H243041   4.205   0.943   5.199  1.5000  3.1456  1.6530
 7184TIP3   OH243042   1.504   3.237   0.139  0.5812 -0.0436 -0.0942
 7184TIP3    H143043   1.493   3.154   0.184  0.7065 -0.3614 -0.6378
 7184TIP3    H243044   1.547   3.214   0.056 -1.8703  0.1821 -1.5391
 7185TIP3   OH243045   3.014   2.115  12.551 -0.0786  0.0820 -0.2262
 7185TIP3    H143046   3.100   2.129  12.591 -0.9068  2.7363  0.8589
 7185TIP3    H243047   3.008   2.183  12.484 -1.1472 -0.3896 -0.6199
 7186TIP3   OH243048   4.852   2.452   2.630  0.5035  0.0593  0.1934
 7186TIP3    H143049   4.884   2.445   2.720  1.0363 -0.3319 -0.0182
 7186TIP3    H243050   4.817   2.365   2.609 -0.9630  0.5479  0.5025
 7187TIP3   OH243051   6.339   3.983  11.828 -0.5875  0.2474 -0.0504
 7187TIP3    H143052   6.355   3.912  11.767 -0.7332 -1.6884  2.0306
 7187TIP3    H243053   6.246   4.006  11.816 -0.4242  0.4085 -1.0303
 7188TIP3   OH243054   0.977   6.582  16.894 -0.0628  0.1941 -0.2201
 7188TIP3    H143055   0.963   6.646  16.824 -1.3700 -0.8015 -0.9122
 7188TIP3    H243056   1.039   6.625  16.954  0.0566  1.5918 -1.2968
 7189TIP3   OH243057   0.782   1.079   1.563  0.0542 -0.1005  0.0975
 7189TIP3    H143058   0.774   1.161   1.612 -2.0700  0.3288 -0.8565
 7189TIP3    H243059   0.816   1.105   1.478 -0.4098 -0.2303 -0.1304
 7190TIP3   OH243060   2.930   5.940  10.451  0.1279 -0.3812 -0.0442
 7190TIP3    H143061   3.010   5.962  10.498  0.1604  0.4419 -0.4617
 7190TIP3    H243062   2.880   6.021  10.448  0.2011 -0.3510 -1.5513
 7191TIP3   OH243063   2.100   2.871   4.796 -0.2284 -0.2387 -0.0957
 7191TIP3    H143064   2.064   2.785   4.775 -1.1437  0.2108 -0.4324
 7191TIP3    H243065   2.182   2.876   4.746 -1.3845  0.0352 -2.0705
 7192TIP3   OH243066   0.246   2.236   6.054 -0.4793 -0.3194  0.6141
 7192TIP3    H143067   0.276   2.272   6.138 -1.4294  1.6726  0.1725
 7192TIP3    H243068   0.159   2.200   6.073 -0.1034 -1.1658  0.7639
 7193TIP3   OH243069   0.849   4.790   0.184  0.1787  0.9716 -0.1442
 7193TIP3    H143070   0.902   4.716   0.215  1.2014  1.2720 -1.1234
 7193TIP3    H243071   0.764   4.778   0.228  0.5580 -0.3662  0.2872
 7194TIP3   OH243072   0.662   5.622   1.785  0.0519  0.7598 -0.4523
 7194TIP3    H143073   0.591   5.683   1.802 -0.0231  0.0697  2.0632
 7194TIP3    H243074   0.738   5.659   1.829  0.8518  0.6109 -1.6355
 7195TIP3   OH243075   0.166   4.056  14.388 -0.1654 -0.2922 -0.4449
 7195TIP3    H143076   0.100   4.011  14.336 -0.2079 -0.9383  0.1617
 7195TIP3    H243077   0.123   4.075  14.472 -0.1890  0.9860 -0.7277
 7196TIP3   OH243078   0.778   2.796  16.070 -0.1430  0.5509 -0.2078
 7196TIP3    H143079   0.827   2.719  16.039  1.5744  1.6103 -0.2379
 7196TIP3    H243080   0.729   2.763  16.145 -1.6152 -1.2111 -1.8085
 7197TIP3   OH243081   5.984   2.850  16.048 -0.0572 -0.8645  0.2744
 7197TIP3    H143082   6.038   2.835  15.971 -0.2999 -0.6918  0.0724
 7197TIP3    H243083   6.000   2.941  16.072 -0.5798 -0.6926 -0.0312
 7198TIP3   OH243084   6.480   3.520  13.347 -0.3870  0.5691 -0.1808
 7198TIP3    H143085   6.501   3.428  13.328 -3.6959 -0.1902 -0.8898
 7198TIP3    H243086   6.531   3.541  13.425 -0.3513 -2.2581  0.6617
 7199TIP3   OH243087   1.936   4.239  14.677  0.3530 -0.0455  0.5247
 7199TIP3    H143088   1.898   4.245  14.765 -0.8604 -0.3190  0.0484
 7199TIP3    H243089   1.958   4.329  14.655  0.2692  0.0846  0.9480
 7200TIP3   OH243090   4.141   3.325  15.735  0.1154  0.7304  0.0638
 7200TIP3    H143091   4.201   3.264  15.694  0.6983  2.0399 -1.1009
 7200TIP3    H243092   4.194   3.373  15.799  0.2491  1.6204 -0.6918
 7201TIP3   OH243093   0.746   2.755  12.065  0.2469 -0.2991 -0.1131
 7201TIP3    H143094   0.704   2.827  12.017  0.6937 -0.2855 -0.4794
 7201TIP3    H243095   0.783   2.699  11.998  0.1873 -0.7024  0.1865
 7202TIP3   OH243096   3.596   2.821   0.731  0.0010  0.6643 -0.1999
 7202TIP3    H143097   3.509   2.805   0.768  0.3872 -2.3046 -0.3318
 7202TIP3    H243098   3.580   2.846   0.640 -0.7335  0.5275 -0.1125
 7203TIP3   OH243099   3.456   6.632  10.882  0.5507 -0.0469 -0.2245
 7203TIP3    H143100   3.531   6.652  10.825  0.3444 -0.5583 -0.6909
 7203TIP3    H243101   3.495   6.610  10.966  0.8996  0.1453 -0.3345
 7204TIP3   OH243102   5.306   4.642   0.655  0.2413 -0.1848 -0.1045
 7204TIP3    H143103   5.313   4.723   0.603 -2.2077 -1.7356 -3.2400
 7204TIP3    H243104   5.335   4.573   0.596 -0.4888 -1.8927  1.4330
 7205TIP3   OH243105   3.422   1.226   4.142 -0.1626  0.0240 -0.0092
 7205TIP3    H143106   3.511   1.224   4.108 -1.0834 -2.2193 -2.6121
 7205TIP3    H243107   3.392   1.315   4.126  1.1536  0.4252 -0.3545
 7206TIP3   OH243108   5.602   4.245  11.952 -0.3066  0.2665  0.0933
 7206TIP3    H143109   5.515   4.282  11.968  0.1540  1.1770  0.5570
 7206TIP3    H243110   5.588   4.150  11.954 -1.1955  0.3950  0.7250
 7207TIP3   OH243111   1.076   2.100  13.316  0.1938 -0.2909 -0.0608
 7207TIP3    H143112   1.172   2.095  13.315  0.1519 -4.7716  0.2918
 7207TIP3    H243113   1.054   2.128  13.404  1.1081  0.9777 -0.2021
 7208TIP3   OH243114   6.672   2.060   0.946 -0.1752 -0.0564 -0.2788
 7208TIP3    H143115   6.708   2.026   1.027  1.7312 -0.0543 -1.0747
 7208TIP3    H243116   6.729   2.134   0.923 -1.9830  1.3309 -0.5114
 7209TIP3   OH243117   0.969   1.489  13.591 -0.1330 -0.0797  0.4129
 7209TIP3    H143118   0.910   1.416  13.570 -0.3490 -0.7007  2.8619
 7209TIP3    H243119   0.917   1.567  13.575 -0.6535 -0.5263 -0.1359
 7210TIP3   OH243120   2.142   0.540  12.825 -0.1679 -0.3646  0.0677
 7210TIP3    H143121   2.223   0.510  12.785  0.8413  0.8908  1.0505
 7210TIP3    H243122   2.105   0.463  12.867 -2.0982 -2.1685 -4.3128
 7211TIP3   OH243123   2.640   5.500   3.991  0.5346 -0.4698  0.1043
 7211TIP3    H143124   2.714   5.463   4.039 -1.1725 -1.6713  1.9742
 7211TIP3    H243125   2.659   5.594   3.987  1.9652 -0.7022  0.9109
 7212TIP3   OH243126   0.219   1.223  13.839 -0.0172 -0.5700 -0.1174
 7212TIP3    H143127   0.236   1.136  13.874 -1.3909 -0.6021  0.5129
 7212TIP3    H243128   0.136   1.250  13.878 -0.1021  0.6341 -1.0474
 7213TIP3   OH243129   5.370   1.375   0.687  0.1676 -0.3071  0.3905
 7213TIP3    H143130   5.302   1.374   0.754  1.2272 -0.6472  1.4738
 7213TIP3    H243131   5.324   1.406   0.608 -0.8012  1.3901  1.5546
 7214TIP3   OH243132   3.509   2.530   4.334  0.3273  0.0428 -0.6520
 7214TIP3    H143133   3.439   2.470   4.310 -0.9358  1.1902  0.0156
 7214TIP3    H243134   3.549   2.556   4.251 -0.6610  0.0867 -1.1261
 7215TIP3   OH243135   4.008   1.362   5.205 -0.2286  0.2745 -0.7860
 7215TIP3    H143136   3.960   1.283   5.181  0.8854 -0.8181  0.4063
 7215TIP3    H243137   3.964   1.394   5.284  1.6220 -1.4546  1.0765
 7216TIP3   OH243138   3.602   1.460  13.562 -0.5966 -1.0400  0.4738
 7216TIP3    H143139   3.684   1.500  13.532 -1.9053 -0.1879 -2.3321
 7216TIP3    H243140   3.627   1.373  13.592  1.3323 -0.8306 -0.3715
 7217TIP3   OH243141   2.704   5.576   4.402  0.0328  0.7549  0.2407
 7217TIP3    H143142   2.760   5.500   4.390  1.3059  1.7984 -0.8814
 7217TIP3    H243143   2.687   5.607   4.313 -0.6207  1.6569  0.6647
 7218TIP3   OH243144   2.352   4.431   0.209 -0.0278  0.5886 -0.4251
 7218TIP3    H143145   2.404   4.359   0.175 -0.4338  0.8271 -1.5998
 7218TIP3    H243146   2.411   4.477   0.269  0.5062 -0.2112 -0.3181
 7219TIP3   OH243147   2.545   3.928  15.408 -0.2093 -0.5125 -0.1866
 7219TIP3    H143148   2.481   3.857  15.400 -1.9000  0.8266  0.6572
 7219TIP3    H243149   2.501   4.004  15.369  0.1522  0.8528  1.9253
 7220TIP3   OH243150   2.812   1.367  12.210 -0.0208  0.4395 -0.0219
 7220TIP3    H143151   2.818   1.332  12.121  0.4572 -1.2384  0.6460
 7220TIP3    H243152   2.902   1.395  12.230 -0.2881  1.5739 -0.3422
 7221TIP3   OH243153   6.595   0.952  15.325 -0.0210 -0.1243  0.4350
 7221TIP3    H143154   6.653   1.027  15.338  1.0085 -0.6960 -0.6563
 7221TIP3    H243155   6.652   0.883  15.292 -1.2160 -0.9159 -0.0427
 7222TIP3   OH243156   1.193   1.923  14.417 -0.0059  0.3053 -0.3485
 7222TIP3    H143157   1.225   1.952  14.502  1.5718  0.1593 -0.8707
 7222TIP3    H243158   1.106   1.886  14.435  0.0911  0.7544  1.0975
 7223TIP3   OH243159   4.550   0.412  14.397  0.0717  0.1838 -0.6079
 7223TIP3    H143160   4.541   0.492  14.450 -1.6839  0.5102 -1.3179
 7223TIP3    H243161   4.541   0.340  14.459  1.7005  0.5085  0.0458
 7224TIP3   OH243162   1.841   0.922  10.891  0.0671 -0.1748 -0.0089
 7224TIP3    H143163   1.854   0.828  10.896  0.1845 -0.1699 -0.1917
 7224TIP3    H243164   1.890   0.958  10.965  2.3971 -0.0330 -1.5351
 7225TIP3   OH243165   2.321   6.700  12.981  0.1218 -0.1559 -0.2382
 7225TIP3    H143166   2.346   6.729  13.069 -0.4296  1.2182 -0.5123
 7225TIP3    H243167   2.389   6.638  12.956 -0.0049 -0.9870  1.3682
 7226TIP3   OH243168   5.545   0.432   2.142 -0.3320  0.1065 -0.7774
 7226TIP3    H143169   5.618   0.459   2.086 -0.2324  0.2983 -0.5532
 7226TIP3    H243170   5.524   0.344   2.111 -0.1333  0.1256 -0.9733
 7227TIP3   OH243171   3.745   2.899   1.173  0.1162  0.6090 -0.0467
 7227TIP3    H143172   3.733   2.982   1.127  0.6827  0.8444  0.2274
 7227TIP3    H243173   3.784   2.923   1.257 -1.1990  0.2159  0.7046
 7228TIP3   OH243174   6.267   6.287  14.324 -0.3864 -0.0579  0.2458
 7228TIP3    H143175   6.204   6.220  14.295 -0.2054  0.7502 -2.1788
 7228TIP3    H243176   6.352   6.245  14.315 -0.3905 -0.3112  1.1863
 7229TIP3   OH243177   0.874   4.999   5.566 -0.2270 -0.2515 -0.0269
 7229TIP3    H143178   0.826   4.928   5.610  0.2667 -0.5352  0.0544
 7229TIP3    H243179   0.966   4.983   5.587 -0.2494  1.5169  1.6192
 7230TIP3   OH243180   1.103   3.217   0.894 -0.2762 -0.2014  0.0368
 7230TIP3    H143181   1.051   3.254   0.823  0.7714  0.3250 -0.4866
 7230TIP3    H243182   1.100   3.123   0.879  0.5607 -0.0597 -1.1898
 7231TIP3   OH243183   5.240   2.725  15.831  0.2162  0.9412 -0.0052
 7231TIP3    H143184   5.174   2.733  15.762 -0.9177 -1.2668  0.7167
 7231TIP3    H243185   5.217   2.794  15.893 -0.0754  1.5730 -0.7873
 7232TIP3   OH243186   0.595   2.968  12.908 -0.0959  1.0072 -0.2167
 7232TIP3    H143187   0.507   2.932  12.906 -0.2705  1.4333 -0.5262
 7232TIP3    H243188   0.585   3.058  12.877  0.3471  1.2773  0.3776
 7233TIP3   OH243189   2.387   6.113  15.867 -0.2571  0.0533 -0.0683
 7233TIP3    H143190   2.322   6.066  15.920 -0.7743  0.3766 -0.4107
 7233TIP3    H243191   2.440   6.161  15.932 -0.1268 -0.4948  0.2357
 7234TIP3   OH243192   1.083   0.454   5.513  0.2821  0.3158  0.0939
 7234TIP3    H143193   1.081   0.416   5.426 -1.3276 -0.4025  0.4171
 7234TIP3    H243194   0.993   0.479   5.531  0.0664 -1.7371  2.4621
 7235TIP3   OH243195   1.778   4.138   2.657 -0.5046  0.0820 -0.3019
 7235TIP3    H143196   1.773   4.144   2.561  0.6371 -3.1647 -0.6615
 7235TIP3    H243197   1.687   4.131   2.685 -0.7839 -0.2770 -1.2610
 7236TIP3   OH243198   1.558   0.927   3.443  0.2434 -0.3457  0.2156
 7236TIP3    H143199   1.616   0.957   3.513 -0.4710  1.6813  0.0084
 7236TIP3    H243200   1.604   0.854   3.402  0.9166 -1.2520  2.4492
 7237TIP3   OH243201   1.239   1.944   5.142 -0.3439  0.1464 -0.2978
 7237TIP3    H143202   1.259   2.037   5.143 -0.5956  0.2108 -0.7841
 7237TIP3    H243203   1.190   1.931   5.061 -0.1435 -0.4447 -0.3290
 7238TIP3   OH243204   4.450   0.899   6.108  0.6646  0.1990  0.1145
 7238TIP3    H143205   4.360   0.878   6.133  0.5764  1.7750  1.2796
 7238TIP3    H243206   4.490   0.931   6.189  1.7474  1.1797 -0.7773
 7239TIP3   OH243207   1.952   2.356   4.376  0.2640  0.0807  0.1758
 7239TIP3    H143208   1.954   2.267   4.340 -2.8442 -0.8429  1.8395
 7239TIP3    H243209   1.887   2.402   4.323  0.3596  0.7002  0.5853
 7240TIP3   OH243210   1.576   5.790   2.684 -0.5466  0.5068 -0.3950
 7240TIP3    H143211   1.570   5.695   2.689 -0.1704  0.5354  0.7734
 7240TIP3    H243212   1.490   5.822   2.711  0.0227  0.5312  1.5525
 7241TIP3   OH243213   1.217   4.579   2.128  0.2745 -0.2187  0.2711
 7241TIP3    H143214   1.143   4.527   2.096 -0.6081  1.2786 -0.2374
 7241TIP3    H243215   1.232   4.548   2.217  0.8997 -2.4845 -0.5773
 7242TIP3   OH243216   5.621   0.693  15.146  0.0564 -0.1894 -0.4570
 7242TIP3    H143217   5.693   0.734  15.194  0.9368 -0.1691 -1.7610
 7242TIP3    H243218   5.549   0.755  15.153  0.5998  0.4341 -0.3057
 7243TIP3   OH243219   6.761   5.343   0.265 -0.1180 -0.2777 -0.6863
 7243TIP3    H143220   6.680   5.306   0.301 -0.1965 -0.9935 -1.5591
 7243TIP3    H243221   6.797   5.396   0.336 -1.4537  0.2171 -0.3489
 7244TIP3   OH243222   2.178   1.149   1.694  0.4023 -0.3595  0.3992
 7244TIP3    H143223   2.149   1.153   1.785 -0.1956 -0.6056  0.2213
 7244TIP3    H243224   2.245   1.217   1.688 -0.1724  0.2560  0.7976
 7245TIP3   OH243225   4.773   3.447  16.214 -0.1496 -0.0136 -0.6654
 7245TIP3    H143226   4.797   3.373  16.271 -2.1809  1.3362  2.2177
 7245TIP3    H243227   4.854   3.497  16.204  0.1449  0.2013  1.9909
 7246TIP3   OH243228   0.132   6.402  15.365  0.0943 -0.3143  0.1200
 7246TIP3    H143229   0.108   6.430  15.453  0.5919 -0.0462  0.1705
 7246TIP3    H243230   0.048   6.381  15.323 -0.3000  1.2510  0.0786
 7247TIP3   OH243231   6.590   4.878   0.822 -0.8551 -0.4351 -0.1174
 7247TIP3    H143232   6.632   4.842   0.744 -1.9306 -1.2021 -0.3751
 7247TIP3    H243233   6.561   4.965   0.796 -0.0187 -0.1504 -0.1315
 7248TIP3   OH243234   6.245   0.856  14.081 -0.1310 -0.0798 -0.2350
 7248TIP3    H143235   6.152   0.851  14.061 -0.6136  2.4955  1.0476
 7248TIP3    H243236   6.255   0.803  14.161 -0.4942 -0.2880 -0.3238
 7249TIP3   OH243237   0.671   4.340  14.154 -0.5207 -0.2233  0.4786
 7249TIP3    H143238   0.757   4.361  14.190 -0.5226  0.6521 -0.0073
 7249TIP3    H243239   0.688   4.314  14.064 -0.5317 -2.2746  1.0135
 7250TIP3   OH243240   2.198   4.970  15.489 -0.1707  0.3531  0.9346
 7250TIP3    H143241   2.166   5.053  15.452  2.7256  1.5179  0.7825
 7250TIP3    H243242   2.175   4.904  15.423 -1.9759  1.0916  0.7661
 7251TIP3   OH243243   2.561   2.602  14.818 -0.2545 -0.4601  0.2768
 7251TIP3    H143244   2.508   2.522  14.817 -2.0034  0.6662  0.1146
 7251TIP3    H243245   2.596   2.608  14.729  0.1728 -1.1938  0.3801
 7252TIP3   OH243246   2.676   5.216   1.505  0.2399  0.5094  0.0593
 7252TIP3    H143247   2.739   5.284   1.531  0.6654  1.3393 -2.8297
 7252TIP3    H243248   2.630   5.254   1.430 -1.7287 -1.2209  0.3287
 7253TIP3   OH243249   3.327   4.707  16.395 -0.4565 -1.0297  0.3594
 7253TIP3    H143250   3.254   4.647  16.411  0.6971 -2.1717  1.5893
 7253TIP3    H243251   3.385   4.660  16.335  0.1476 -0.8938  0.8220
 7254TIP3   OH243252   3.181   3.983  14.009 -0.1850 -0.3394  0.5329
 7254TIP3    H143253   3.230   4.008  14.087  2.3433  0.5573 -1.2191
 7254TIP3    H243254   3.210   4.045  13.942 -1.1978 -1.9261 -1.4741
 7255TIP3   OH243255   5.758   5.799   5.612 -0.0426 -0.0638  0.5126
 7255TIP3    H143256   5.803   5.856   5.549  1.0042 -1.9622 -0.5221
 7255TIP3    H243257   5.800   5.818   5.696 -0.0123  0.9726  0.2873
 7256TIP3   OH243258   1.410   6.668  12.093 -0.1402  0.1327 -0.3935
 7256TIP3    H143259   1.326   6.657  12.050 -0.1410 -0.5531 -0.2266
 7256TIP3    H243260   1.464   6.715  12.029  0.1201 -1.5620 -1.5057
 7257TIP3   OH243261   4.128   0.184   2.096 -0.1288 -0.4128  0.6787
 7257TIP3    H143262   4.116   0.268   2.140  1.5902  0.7170 -0.8397
 7257TIP3    H243263   4.104   0.201   2.005  1.8162 -1.0560 -0.0050
 7258TIP3   OH243264   0.675   0.574  16.717  0.0019 -0.3652 -0.1364
 7258TIP3    H143265   0.677   0.636  16.644  2.6657  0.2283  0.3266
 7258TIP3    H243266   0.667   0.628  16.795  4.0190 -0.2490  0.3994
 7259TIP3   OH243267   3.081   5.908   3.588 -0.1372  0.2752 -0.1272
 7259TIP3    H143268   2.986   5.899   3.573  0.1388 -2.6228 -0.6750
 7259TIP3    H243269   3.110   5.969   3.521 -1.5333  0.7942 -0.2895
 7260TIP3   OH243270   2.658   2.748   5.310  0.1869 -0.6752  0.6562
 7260TIP3    H143271   2.675   2.816   5.375  2.1770 -0.2141 -0.2920
 7260TIP3    H243272   2.634   2.796   5.231 -2.2420 -1.2320  0.9776
 7261TIP3   OH243273   2.831   6.339   6.260  0.5181  0.2022  0.4611
 7261TIP3    H143274   2.745   6.300   6.245  0.1630  1.9612 -2.7572
 7261TIP3    H243275   2.813   6.416   6.313  0.1471  0.3829  0.0776
 7262TIP3   OH243276   4.555   6.416   4.219  0.0935 -0.2578 -0.1451
 7262TIP3    H143277   4.555   6.322   4.200  0.2439 -1.1709  3.5249
 7262TIP3    H243278   4.636   6.449   4.179 -0.1409 -1.5912 -1.7823
 7263TIP3   OH243279   2.416   6.192  16.546 -0.5568 -0.1072  0.2865
 7263TIP3    H143280   2.413   6.203  16.641  0.5569  0.7168  0.2434
 7263TIP3    H243281   2.456   6.107  16.532 -0.3399 -0.0459  0.5466
 7264TIP3   OH243282   6.319   2.803   3.892  0.0416  0.3604 -0.1228
 7264TIP3    H143283   6.250   2.860   3.857  0.7032  0.8304 -0.7059
 7264TIP3    H243284   6.374   2.862   3.944 -0.2343 -0.0947  0.6879
 7265TIP3   OH243285   2.023   0.121   3.860  0.3345  0.1015 -0.7426
 7265TIP3    H143286   1.954   0.187   3.872 -1.4516 -1.9397  1.1059
 7265TIP3    H243287   2.052   0.133   3.769 -0.5656  2.7342 -0.7807
 7266TIP3   OH243288   4.475   1.723  16.942  0.4024 -0.4236 -0.6663
 7266TIP3    H143289   4.466   1.741  17.035  0.7756  3.3449 -1.2090
 7266TIP3    H243290   4.559   1.677  16.935  2.0221  2.0615  0.7033
 7267TIP3   OH243291   1.906   5.637  16.646  0.1939 -0.3565  0.4773
 7267TIP3    H143292   1.903   5.544  16.669 -0.5544 -0.6564 -0.7433
 7267TIP3    H243293   1.822   5.672  16.675  0.7633  0.1257  1.5993
 7268TIP3   OH243294   0.806   0.230  16.910 -0.4134 -0.2727 -0.0791
 7268TIP3    H143295   0.797   0.240  16.816  0.5724 -1.1938 -0.3019
 7268TIP3    H243296   0.853   0.309  16.938  0.0452 -0.3870 -0.5044
 7269TIP3   OH243297   2.037   4.162   3.558  0.2214  0.2938  0.2581
 7269TIP3    H143298   2.031   4.089   3.496  1.2115  0.1069  0.3727
 7269TIP3    H243299   1.960   4.215   3.539 -0.0056 -0.2775 -0.4733
 7270TIP3   OH243300   5.664   2.061   1.940  0.0063  0.0677 -0.1115
 7270TIP3    H143301   5.737   2.085   1.883  1.5190 -0.9784  1.2765
 7270TIP3    H243302   5.632   1.979   1.905 -0.0090  0.1531 -0.2958
 7271TIP3   OH243303   5.152   4.463  10.626  0.0416  0.4910  0.0913
 7271TIP3    H143304   5.076   4.406  10.637  0.5625 -0.0530  1.0512
 7271TIP3    H243305   5.220   4.406  10.591  0.4245  0.6219  0.6022
 7272TIP3   OH243306   3.150   6.642   2.618 -0.1999 -0.1032 -0.3035
 7272TIP3    H143307   3.131   6.649   2.711 -2.1397 -0.6712 -0.6179
 7272TIP3    H243308   3.222   6.704   2.603 -0.9434  1.1894  1.2509
 7273TIP3   OH243309   5.696   5.544  12.665 -0.2050  0.4520  0.5888
 7273TIP3    H143310   5.622   5.600  12.642  0.3542  0.3545 -1.6960
 7273TIP3    H243311   5.737   5.523  12.581  2.5934  0.7247  1.7700
 7274TIP3   OH243312   2.946   6.030  16.502  1.2617 -0.0501  0.0344
 7274TIP3    H143313   2.886   5.956  16.515 -0.4638  0.5942 -3.2120
 7274TIP3    H243314   3.022   5.993  16.458  1.3575 -0.2180  0.3418
 7275TIP3   OH243315   5.335   1.917   1.471 -0.3008  0.0154 -0.6715
 7275TIP3    H143316   5.296   2.004   1.464 -2.0704 -0.6186  0.6134
 7275TIP3    H243317   5.429   1.933   1.476 -0.6750  2.0207  1.6086
 7276TIP3   OH243318   1.818   0.865   4.661 -0.1213 -0.4634 -0.2795
 7276TIP3    H143319   1.735   0.837   4.623 -0.7194 -1.2755  1.4922
 7276TIP3    H243320   1.832   0.953   4.626 -0.4763 -1.2268 -2.4962
 7277TIP3   OH243321   6.290   1.519   2.703  0.7332 -0.3692  0.2484
 7277TIP3    H143322   6.264   1.428   2.714 -1.0910  0.0950  0.0322
 7277TIP3    H243323   6.356   1.517   2.634 -1.0724 -1.3085 -1.5581
 7278TIP3   OH243324   6.401   6.557   2.047  0.5169 -0.8180 -0.2493
 7278TIP3    H143325   6.374   6.533   2.135  2.0401  1.8604  1.0864
 7278TIP3    H243326   6.328   6.609   2.012  0.6691 -0.2948  0.2006
 7279TIP3   OH243327   0.721   5.495  17.076  0.2342  0.3650  0.0209
 7279TIP3    H143328   0.669   5.463  17.150 -0.6834 -0.0459 -0.7908
 7279TIP3    H243329   0.767   5.418  17.044  1.0270  0.6407  0.4517
 7280TIP3   OH243330   0.676   6.476   0.409  0.0957  0.3819 -0.1830
 7280TIP3    H143331   0.647   6.552   0.459 -0.8208 -0.2899  0.3353
 7280TIP3    H243332   0.686   6.508   0.320  1.5647  1.5580  0.3541
 7281TIP3   OH243333   0.532   1.858  16.807 -0.3374 -0.0762 -0.1973
 7281TIP3    H143334   0.568   1.819  16.887  0.2068 -0.7835 -0.7841
 7281TIP3    H243335   0.472   1.926  16.839 -0.4393 -0.6256  0.8192
 7282TIP3   OH243336   5.545   6.142  14.292  0.1385 -0.3991 -0.6046
 7282TIP3    H143337   5.502   6.227  14.283  2.8541  1.1641  0.0948
 7282TIP3    H243338   5.551   6.128  14.386  0.2517 -1.0925 -0.7094
 7283TIP3   OH243339   5.286   0.111   2.312  0.2632 -0.3836 -0.0038
 7283TIP3    H143340   5.235   0.062   2.249  1.5171 -3.6246  1.2753
 7283TIP3    H243341   5.228   0.180   2.343 -1.0420  0.0513 -3.1302
 7284TIP3   OH243342   5.991   5.945   0.679 -0.3405 -0.0214  0.4282
 7284TIP3    H143343   6.051   5.898   0.621  0.3625  0.3137  0.8719
 7284TIP3    H243344   6.015   6.037   0.669  0.4352 -0.0416  1.9712
 7285TIP3   OH243345   5.111   3.164   4.783  0.2193 -0.0601 -0.2585
 7285TIP3    H143346   5.155   3.099   4.728 -0.9933 -0.7928 -0.3892
 7285TIP3    H243347   5.024   3.128   4.799 -0.3233  1.3203  0.0575
 7286TIP3   OH243348   3.572   5.141  16.409 -0.3934 -0.2377  0.3398
 7286TIP3    H143349   3.579   5.136  16.314 -1.1418  1.2038  0.1792
 7286TIP3    H243350   3.497   5.084  16.430 -1.9858  1.5101 -0.2666
 7287TIP3   OH243351   0.158   6.814   4.420 -0.0679 -0.2466  0.6390
 7287TIP3    H143352   0.096   6.785   4.353 -1.0130 -0.1870  1.4651
 7287TIP3    H243353   0.161   6.909   4.412  2.9406 -0.3922 -1.9901
 7288TIP3   OH243354   4.640   0.629  14.552  0.2693  0.4211 -0.0542
 7288TIP3    H143355   4.607   0.666  14.633 -0.0274 -0.3122  0.1678
 7288TIP3    H243356   4.687   0.701  14.510  3.2522  0.0161  2.2583
 7289TIP3   OH243357   4.197   4.208  12.573  0.1162  0.4473 -0.5771
 7289TIP3    H143358   4.133   4.259  12.623 -1.2505 -2.0758  0.4146
 7289TIP3    H243359   4.196   4.247  12.485 -1.9031  1.1933 -0.2700
 7290TIP3   OH243360   6.527   2.310  15.640  0.5329 -1.2612  0.2414
 7290TIP3    H143361   6.433   2.314  15.658 -0.0471 -2.4466 -2.1780
 7290TIP3    H243362   6.541   2.223  15.603  2.2693 -0.5230 -0.9803
 7291TIP3   OH243363   5.161   1.712  14.111 -0.0263  0.3106 -0.0604
 7291TIP3    H143364   5.098   1.662  14.058 -0.4388  0.5696  0.1797
 7291TIP3    H243365   5.167   1.664  14.193 -0.9941  1.0430  0.4605
 7292TIP3   OH243366   6.724   0.529  11.374 -0.0047 -0.2377  0.3649
 7292TIP3    H143367   6.773   0.575  11.306 -1.1317 -0.3155 -0.5137
 7292TIP3    H243368   6.703   0.596  11.439 -0.1258  0.1228 -0.0481
 7293TIP3   OH243369   5.426   3.495   6.425 -0.6623 -0.0964  0.4889
 7293TIP3    H143370   5.470   3.411   6.410 -1.9105 -0.6979  0.0577
 7293TIP3    H243371   5.456   3.550   6.353  1.6181  0.4932  1.7732
 7294TIP3   OH243372   2.642   4.240   3.747 -0.2685  0.6767 -0.0636
 7294TIP3    H143373   2.599   4.161   3.715  0.1609  0.7413 -0.8117
 7294TIP3    H243374   2.641   4.300   3.672  2.5512  0.1173 -0.6619
 7295TIP3   OH243375   0.843   3.412  11.851 -0.6764  0.2354 -0.3042
 7295TIP3    H143376   0.851   3.324  11.887 -0.1725  0.2660 -0.3410
 7295TIP3    H243377   0.860   3.402  11.757  1.7424  0.7001  0.0117
 7296TIP3   OH243378   3.827   0.183  15.347  0.2167 -0.1014  0.4803
 7296TIP3    H143379   3.812   0.090  15.364 -2.7297  0.0305 -0.8054
 7296TIP3    H243380   3.824   0.224  15.433 -0.5625 -1.0014  0.9022
 7297TIP3   OH243381   4.417   5.518  11.135 -0.0388 -0.0845 -0.0418
 7297TIP3    H143382   4.399   5.455  11.065 -0.7605  2.0946 -1.9260
 7297TIP3    H243383   4.332   5.557  11.155  0.0877 -0.9145  2.3825
 7298TIP3   OH243384   5.772   4.911  16.141 -0.8064  0.1693  0.0851
 7298TIP3    H143385   5.677   4.907  16.149 -1.1741  0.3212 -3.0491
 7298TIP3    H243386   5.788   4.968  16.066  1.8311  0.9710  1.1166
 7299TIP3   OH243387   4.755   2.361  14.022 -0.2934  0.0929 -0.2550
 7299TIP3    H143388   4.670   2.389  13.988 -1.3108 -1.5838  0.7868
 7299TIP3    H243389   4.792   2.440  14.062 -0.6149  1.2267 -2.0628
 7300TIP3   OH243390   2.079   3.752  16.280 -0.3824 -0.3673 -0.7555
 7300TIP3    H143391   2.109   3.841  16.261  1.1822 -0.8191 -0.5307
 7300TIP3    H243392   2.027   3.727  16.204 -0.8456  0.7341 -0.8167
 7301TIP3   OH243393   5.057   4.121   6.081 -0.1071  0.0716 -0.1618
 7301TIP3    H143394   5.043   4.188   6.147 -0.9129 -1.5474  1.4018
 7301TIP3    H243395   5.071   4.041   6.131 -5.2645 -2.2299 -1.7404
 7302TIP3   OH243396   1.575   3.000  14.353  0.0244 -0.0410 -0.0697
 7302TIP3    H143397   1.523   2.940  14.300  2.1010 -1.5592 -0.5235
 7302TIP3    H243398   1.598   3.071  14.293 -0.4311 -0.0426 -0.2463
 7303TIP3   OH243399   6.756   6.187  14.599  0.3509  0.1916  0.6597
 7303TIP3    H143400   6.689   6.184  14.531  1.2880 -2.8535 -0.3110
 7303TIP3    H243401   6.720   6.134  14.671 -0.3514  2.8218  2.3671
 7304TIP3   OH243402   5.704   1.350  14.473  0.2243  0.2333 -0.1540
 7304TIP3    H143403   5.639   1.401  14.521 -0.3563  0.4651 -1.1612
 7304TIP3    H243404   5.694   1.377  14.382  0.6840 -0.8553 -0.5479
 7305TIP3   OH243405   2.848   5.450  15.159  0.0124 -0.3070  0.8764
 7305TIP3    H143406   2.894   5.507  15.097  2.0051 -2.0605  0.6368
 7305TIP3    H243407   2.809   5.382  15.105  0.7774 -1.1961  1.4009
 7306TIP3   OH243408   0.353   0.771  16.873 -0.0833  0.9687  0.4726
 7306TIP3    H143409   0.365   0.702  16.938 -0.3299  1.0324  0.5860
 7306TIP3    H243410   0.338   0.725  16.791  1.0664  0.8781  0.2922
 7307TIP3   OH243411   1.741   3.033  16.371  0.2158 -0.0851 -0.1871
 7307TIP3    H143412   1.813   3.003  16.317 -0.1947 -1.3845 -0.0584
 7307TIP3    H243413   1.673   3.060  16.309  0.4635  0.2820 -0.3037
 7308TIP3   OH243414   1.350   1.218  14.197 -0.1959  0.1974  0.2498
 7308TIP3    H143415   1.400   1.292  14.162  2.4091 -0.9422  1.2302
 7308TIP3    H243416   1.259   1.247  14.197  0.6531  3.1599  0.0953
 7309TIP3   OH243417   2.727   4.947   4.739 -0.0166  0.6971 -0.5184
 7309TIP3    H143418   2.634   4.941   4.715  0.2567 -0.0417 -1.4104
 7309TIP3    H243419   2.754   5.033   4.708 -0.1787  0.5493 -1.0781
 7310TIP3   OH243420   4.200   6.166  14.944  0.3902 -0.0302 -0.1709
 7310TIP3    H143421   4.245   6.082  14.932 -1.2906 -1.5216  2.7596
 7310TIP3    H243422   4.122   6.144  14.996 -0.5653  3.2501  0.0081
 7311TIP3   OH243423   1.623   5.529  11.914 -0.6960  0.7381 -0.5818
 7311TIP3    H143424   1.707   5.488  11.934 -0.0534  1.0563 -2.3891
 7311TIP3    H243425   1.621   5.534  11.818 -1.8923  2.5749 -0.5122
 7312TIP3   OH243426   2.301   2.771  13.122 -0.5496 -0.4028 -0.1915
 7312TIP3    H143427   2.237   2.775  13.193  0.9124 -0.3977  1.1876
 7312TIP3    H243428   2.261   2.820  13.050 -1.9449 -0.1382  0.7248
 7313TIP3   OH243429   2.846   5.014  10.360 -0.1879 -0.4794  0.1941
 7313TIP3    H143430   2.777   5.044  10.300  0.7063  1.3115 -0.0053
 7313TIP3    H243431   2.877   4.932  10.322 -2.9812 -1.9983  0.9370
 7314TIP3   OH243432   4.060   5.320   2.585 -0.2116 -0.1153 -0.3060
 7314TIP3    H143433   3.982   5.353   2.540 -0.0277  1.3323  0.3915
 7314TIP3    H243434   4.026   5.276   2.663 -0.3294  1.6521  0.7048
 7315TIP3   OH243435   3.006   0.048   3.197  0.2332 -0.0993  0.0242
 7315TIP3    H143436   3.082   0.106   3.199  0.5733 -0.5423  1.5367
 7315TIP3    H243437   3.042  -0.040   3.198 -0.2911 -0.3208 -0.1594
 7316TIP3   OH243438   2.849   0.103   4.290 -0.7243  0.1798  0.4693
 7316TIP3    H143439   2.792   0.153   4.348 -1.6132 -0.8890  0.5500
 7316TIP3    H243440   2.927   0.157   4.280 -1.2581  1.1312  1.3172
 7317TIP3   OH243441   2.704   4.385  11.835  0.1767 -0.5864 -0.3249
 7317TIP3    H143442   2.799   4.375  11.843  0.2686 -0.2140 -0.9026
 7317TIP3    H243443   2.691   4.477  11.813 -0.2484 -0.8440 -1.2099
 7318TIP3   OH243444   4.272   0.463   5.582  0.2022 -0.0796 -0.0845
 7318TIP3    H143445   4.181   0.461   5.612 -0.0162  0.7162 -0.6678
 7318TIP3    H243446   4.316   0.524   5.641  0.1101  0.3523 -0.4587
 7319TIP3   OH243447   5.199   5.688   0.344 -0.5986  0.5451 -0.1971
 7319TIP3    H143448   5.228   5.725   0.427  1.0588  0.4135 -0.6834
 7319TIP3    H243449   5.260   5.616   0.327  0.0670  1.5128 -2.2206
 7320TIP3   OH243450   6.542   1.438   3.016  0.2619 -0.3455 -0.0952
 7320TIP3    H143451   6.465   1.381   3.004 -0.8699  1.1453 -0.2811
 7320TIP3    H243452   6.506   1.517   3.057  1.7693  0.2589  0.0928
 7321TIP3   OH243453   5.683   1.241  11.815  0.0582  0.6799  0.3098
 7321TIP3    H143454   5.591   1.238  11.844  0.2011  0.8218  0.7905
 7321TIP3    H243455   5.679   1.279  11.727 -0.6075 -1.9723 -0.8941
 7322TIP3   OH243456   2.803   6.000  14.801 -0.5454 -0.4597 -0.3046
 7322TIP3    H143457   2.739   6.015  14.732 -1.6288  0.4852  0.8685
 7322TIP3    H243458   2.884   6.040  14.768 -0.3535 -2.1131 -2.0169
 7323TIP3   OH243459   3.715   2.195  15.271  0.0075  0.0396 -0.3053
 7323TIP3    H143460   3.766   2.192  15.190  1.2043  2.2917  0.2993
 7323TIP3    H243461   3.624   2.182  15.242  0.6139 -1.2922 -1.7229
 7324TIP3   OH243462   0.774   5.932   5.290 -0.3404 -0.2862  0.1038
 7324TIP3    H143463   0.831   5.893   5.357  0.0323  0.1714  0.0613
 7324TIP3    H243464   0.745   5.858   5.237 -0.5284 -0.6365  0.6893
 7325TIP3   OH243465   2.724   3.228  11.369 -0.6607  0.0354  0.2237
 7325TIP3    H143466   2.664   3.298  11.344 -0.4044  0.1477 -0.0871
 7325TIP3    H243467   2.717   3.165  11.297  1.1274  1.0094 -0.8687
 7326TIP3   OH243468   5.497   1.541  14.418  0.6847  0.2339  0.1815
 7326TIP3    H143469   5.473   1.567  14.329 -0.0861  0.9602  0.5914
 7326TIP3    H243470   5.518   1.623  14.462 -1.0634  0.1522  1.2817
 7327TIP3   OH243471   0.654   4.543   1.982 -0.8026  0.0375 -0.2677
 7327TIP3    H143472   0.571   4.591   1.975 -0.2142  0.8513 -2.4050
 7327TIP3    H243473   0.630   4.452   1.966 -1.1801  0.4216 -2.2023
 7328TIP3   OH243474   2.143   0.188   0.836 -0.0055 -0.2164 -0.7053
 7328TIP3    H143475   2.143   0.138   0.918  0.4335  2.4377  1.0680
 7328TIP3    H243476   2.052   0.214   0.824  0.3463  1.9963  0.7893
 7329TIP3   OH243477   3.487   4.910   2.081  0.0240 -0.0143  0.4145
 7329TIP3    H143478   3.549   4.972   2.120  1.5375 -0.4307 -1.1842
 7329TIP3    H243479   3.402   4.935   2.117  0.4556  3.3757 -0.5293
 7330TIP3   OH243480   0.431   3.986  13.474  0.3856 -0.4867 -0.1085
 7330TIP3    H143481   0.347   3.942  13.458 -0.7978  0.8839  1.8434
 7330TIP3    H243482   0.494   3.915  13.483 -0.6495 -1.5892 -1.0710
 7331TIP3   OH243483   3.313   0.080  13.035  0.6912 -0.3285  0.4975
 7331TIP3    H143484   3.323   0.029  13.115  0.7412 -0.9983  0.0696
 7331TIP3    H243485   3.357   0.029  12.967  0.5887  0.1923  0.0213
 7332TIP3   OH243486   0.831   5.276  13.624  0.1948 -0.5115  0.1273
 7332TIP3    H143487   0.748   5.317  13.600  1.1833  1.7078  0.2665
 7332TIP3    H243488   0.813   5.182  13.622 -1.8772 -0.1429 -1.4069
 7333TIP3   OH243489   6.455   4.391  16.628 -0.0672 -0.3128  0.2747
 7333TIP3    H143490   6.394   4.422  16.560 -0.4081 -1.8823 -0.1821
 7333TIP3    H243491   6.400   4.337  16.686  0.1450  1.2632  2.0350
 7334TIP3   OH243492   1.440   2.633   1.989 -0.4045  0.2815  0.0203
 7334TIP3    H143493   1.420   2.711   2.040 -1.7965 -0.0369  0.0034
 7334TIP3    H243494   1.370   2.627   1.924  0.2412 -0.4204 -0.6425
 7335TIP3   OH243495   6.762   2.289  14.223  0.5662  0.4080 -0.3422
 7335TIP3    H143496   6.693   2.283  14.289 -0.5155 -0.2253 -1.4861
 7335TIP3    H243497   6.759   2.205  14.178 -0.0444  1.4957 -2.4588
 7336TIP3   OH243498   4.649   0.948   3.252 -0.6480  0.3037  0.6348
 7336TIP3    H143499   4.663   0.928   3.159  3.9676  2.2070  0.6348
 7336TIP3    H243500   4.651   1.044   3.255 -0.0114  0.2633  2.7508
 7337TIP3   OH243501   2.542   2.573   1.168 -0.2216 -0.7376  0.0669
 7337TIP3    H143502   2.467   2.578   1.109  0.5459  0.5717 -0.8369
 7337TIP3    H243503   2.618   2.594   1.113  0.3507  2.4399  1.8219
 7338TIP3   OH243504   1.934   5.541   1.797 -0.1582  0.7538 -0.1533
 7338TIP3    H143505   1.904   5.593   1.871  1.7697  1.3085  0.3080
 7338TIP3    H243506   2.029   5.533   1.810 -0.2583 -2.2804 -0.6107
 7339TIP3   OH243507   5.360   2.271   0.630  0.3073 -0.0652 -0.1629
 7339TIP3    H143508   5.350   2.211   0.704 -0.5044 -0.7155 -0.7970
 7339TIP3    H243509   5.331   2.222   0.554  0.1773  0.9418 -0.7828
 7340TIP3   OH243510   2.635   4.957  13.941  0.0698 -0.0628  0.4214
 7340TIP3    H143511   2.652   5.035  13.993 -0.5773 -0.3900  1.1470
 7340TIP3    H243512   2.674   4.976  13.855 -0.8362  1.3961  0.3063
 7341TIP3   OH243513   4.359   4.996  15.238 -0.7325 -0.3039  0.1633
 7341TIP3    H143514   4.332   5.073  15.288 -0.8235  0.1344 -0.5419
 7341TIP3    H243515   4.433   4.960  15.287  0.8781  1.6145 -0.7150
 7342TIP3   OH243516   3.219   0.643   3.281  0.1457 -0.1281  0.5068
 7342TIP3    H143517   3.225   0.706   3.208 -0.8978  0.0593  0.5664
 7342TIP3    H243518   3.283   0.675   3.345 -0.6169  1.1025  0.6977
 7343TIP3   OH243519   4.056   6.317   6.077 -0.2501 -0.4579  0.3635
 7343TIP3    H143520   4.151   6.316   6.087 -0.0606  0.4878 -1.1012
 7343TIP3    H243521   4.023   6.344   6.163  0.6679 -2.5336  1.4319
 7344TIP3   OH243522   1.146   2.049  16.480 -0.3130  0.0574 -0.1353
 7344TIP3    H143523   1.086   2.088  16.544  1.2995  0.4636  1.2003
 7344TIP3    H243524   1.137   1.955  16.492  0.6697  0.1251  1.4482
 7345TIP3   OH243525   6.562   3.450  16.280  0.1640 -0.0897 -0.1820
 7345TIP3    H143526   6.530   3.364  16.252  1.3205  0.2691 -2.9390
 7345TIP3    H243527   6.490   3.510  16.264  0.1407 -0.2028 -0.5055
 7346TIP3   OH243528   0.713   0.179   1.006  0.3684 -0.5016 -0.4077
 7346TIP3    H143529   0.744   0.259   0.963 -1.1955  0.4023  0.0517
 7346TIP3    H243530   0.752   0.182   1.093  0.2935 -0.2096 -0.3822
 7347TIP3   OH243531   4.360   4.088  12.228 -0.3313 -0.2275  0.0611
 7347TIP3    H143532   4.324   4.109  12.141  1.5776  0.1214 -0.6868
 7347TIP3    H243533   4.322   4.153  12.286 -0.4508  0.5033 -0.8063
 7348TIP3   OH243534   6.006   1.038  16.692  0.3048 -0.0721  0.2898
 7348TIP3    H143535   6.016   1.030  16.787 -0.8863  0.9151  0.5298
 7348TIP3    H243536   5.984   1.131  16.678 -0.8678 -0.4787 -0.7964
 7349TIP3   OH243537   2.064   4.187   1.127 -0.3293  0.1927 -0.4865
 7349TIP3    H143538   2.133   4.136   1.169  1.5917  1.2867 -2.1774
 7349TIP3    H243539   2.075   4.276   1.160 -0.6993  0.4439 -1.0174
 7350TIP3   OH243540   5.448   5.454  16.223  0.4159 -0.1922  0.3749
 7350TIP3    H143541   5.392   5.399  16.278  0.4726 -0.8800 -0.2482
 7350TIP3    H243542   5.397   5.468  16.143  1.2113 -0.9997 -0.2832
 7351TIP3   OH243543   3.802   5.441   0.839 -0.2760  0.0876 -0.5943
 7351TIP3    H143544   3.895   5.420   0.829 -0.7262 -1.2500 -2.9139
 7351TIP3    H243545   3.782   5.496   0.763 -1.1122  1.6061  0.6616
 7352TIP3   OH243546   4.206   2.203  14.935 -0.2266 -0.5409  0.5165
 7352TIP3    H143547   4.251   2.215  14.852  0.2987  1.4663  1.0497
 7352TIP3    H243548   4.275   2.204  15.001 -0.7574 -0.8590  1.0911
 7353TIP3   OH243549   4.762   4.571   0.825  0.1643  0.0019  0.7163
 7353TIP3    H143550   4.700   4.568   0.898 -0.2317 -1.3578  0.3498
 7353TIP3    H243551   4.847   4.583   0.867 -0.0616 -0.7368  1.4112
 7354TIP3   OH243552   3.220   1.509  12.016 -0.1749  0.1047  0.4091
 7354TIP3    H143553   3.227   1.448  12.089  0.3071 -1.0763 -0.6019
 7354TIP3    H243554   3.128   1.507  11.990 -0.5755  1.3076  1.5981
 7355TIP3   OH243555   5.535   6.213  15.181 -0.1071 -0.0830  0.1692
 7355TIP3    H143556   5.555   6.266  15.104 -1.1086  0.5267  0.3199
 7355TIP3    H243557   5.446   6.237  15.206  0.3075 -0.0111  1.7294
 7356TIP3   OH243558   5.315   6.012   6.497 -0.1871 -0.2466 -0.0733
 7356TIP3    H143559   5.330   5.983   6.587  3.1062  0.0376 -0.3989
 7356TIP3    H243560   5.358   5.947   6.442  2.0068  1.9181 -1.1226
 7357TIP3   OH243561   2.810   3.595  12.402 -0.5528 -0.7346 -0.4286
 7357TIP3    H143562   2.724   3.573  12.437 -0.7684 -2.6194 -1.9440
 7357TIP3    H243563   2.850   3.510  12.381  1.7532  0.0726  0.3554
 7358TIP3   OH243564   1.479   5.892  13.878 -0.2291  0.2936  0.3398
 7358TIP3    H143565   1.466   5.979  13.840  0.8467  0.4685  0.3432
 7358TIP3    H243566   1.445   5.831  13.813  5.0868  0.2792 -2.9781
 7359TIP3   OH243567   6.360   6.315   2.550 -0.1271  0.4149 -0.0819
 7359TIP3    H143568   6.433   6.321   2.489 -1.0860 -2.5737 -1.7173
 7359TIP3    H243569   6.391   6.257   2.619 -0.8613 -0.8707 -0.7827
 7360TIP3   OH243570   0.955   2.270   3.809  0.6590 -0.2895 -0.2261
 7360TIP3    H143571   0.891   2.326   3.768  1.5320  0.6938 -0.2871
 7360TIP3    H243572   0.933   2.271   3.902  1.0393  0.6779 -0.1364
 7361TIP3   OH243573   0.800   2.558   2.448 -0.0874  0.2306  0.2508
 7361TIP3    H143574   0.759   2.493   2.504 -0.4846  0.9117  0.7647
 7361TIP3    H243575   0.840   2.507   2.377  1.3083 -0.7277  1.6687
 7362TIP3   OH243576   4.264   3.046   3.764 -0.8151 -0.3661  0.3652
 7362TIP3    H143577   4.277   3.019   3.855  0.2509 -0.8662  0.0904
 7362TIP3    H243578   4.214   2.975   3.725 -0.0595 -0.8460  0.2327
 7363TIP3   OH243579   2.682   0.776  16.716 -0.2422 -0.2342  0.2920
 7363TIP3    H143580   2.676   0.861  16.674 -0.1569 -1.3075 -2.0351
 7363TIP3    H243581   2.774   0.770  16.743 -0.1685  0.2789  0.1683
 7364TIP3   OH243582   0.162   1.825   1.662  0.2791 -0.1173 -0.5426
 7364TIP3    H143583   0.241   1.781   1.631  0.5404  0.0091 -0.0534
 7364TIP3    H243584   0.115   1.758   1.711  0.3572 -0.0338 -0.3538
 7365TIP3   OH243585   4.975   3.885   0.463 -0.2355 -0.4738  0.6324
 7365TIP3    H143586   4.999   3.949   0.531  0.3592  0.8206 -0.7514
 7365TIP3    H243587   4.912   3.827   0.507  0.1845  0.2705  2.3086
 7366TIP3   OH243588   6.162   1.474   3.635 -1.0430  0.3397  0.3187
 7366TIP3    H143589   6.084   1.435   3.674 -1.6212  0.8089 -0.3437
 7366TIP3    H243590   6.147   1.468   3.540 -0.0021 -0.1136  0.1616
 7367TIP3   OH243591   4.443   1.881  11.836  0.2765 -0.3895 -0.1901
 7367TIP3    H143592   4.507   1.840  11.894  1.6047  3.2902  1.2497
 7367TIP3    H243593   4.493   1.906  11.758 -0.2069 -0.4955 -0.5371
 7368TIP3   OH243594   3.612   2.464  11.837  0.0895  0.1619 -0.5093
 7368TIP3    H143595   3.663   2.400  11.887  0.2490 -0.5776 -1.5630
 7368TIP3    H243596   3.530   2.418  11.817  0.3011  0.1881 -1.4795
 7369TIP3   OH243597   2.839   0.695  12.261 -0.1089  0.6070  0.0660
 7369TIP3    H143598   2.933   0.689  12.279 -0.6654 -1.7863  3.1118
 7369TIP3    H243599   2.814   0.606  12.235 -1.7241  0.8568  0.6330
 7370TIP3   OH243600   0.730   6.601  11.528 -0.2896  0.2040  0.5679
 7370TIP3    H143601   0.772   6.521  11.560 -0.0394 -0.1181 -0.5160
 7370TIP3    H243602   0.636   6.581  11.530 -0.2072 -0.3134 -0.1571
 7371TIP3   OH243603   0.981   1.326  11.661  0.0216 -0.3842  0.0115
 7371TIP3    H143604   0.941   1.345  11.745 -1.3778 -2.5073 -0.1199
 7371TIP3    H243605   0.913   1.345  11.596  0.9179  0.7546 -0.6449
 7372TIP3   OH243606   5.680   2.814   3.698  0.2737  0.2433  0.1983
 7372TIP3    H143607   5.716   2.898   3.669 -0.0443  0.4698  0.4463
 7372TIP3    H243608   5.744   2.780   3.760 -0.4779  1.2172  1.5720
 7373TIP3   OH243609   2.209   3.322  12.037 -1.3775 -0.2259  0.1914
 7373TIP3    H143610   2.124   3.365  12.036 -0.3354  1.9882  0.3693
 7373TIP3    H243611   2.248   3.344  11.952  0.0352  1.0836  1.1297
 7374TIP3   OH243612   4.888   0.324   4.815 -0.0565  0.0510 -0.2104
 7374TIP3    H143613   4.925   0.341   4.901  0.8844  1.2672 -0.8335
 7374TIP3    H243614   4.949   0.264   4.773  0.2914  0.6618 -0.5862
 7375TIP3   OH243615   1.854   6.610   4.896 -0.4396  0.0400  0.0517
 7375TIP3    H143616   1.858   6.538   4.960  0.0472 -0.4921 -0.5548
 7375TIP3    H243617   1.765   6.605   4.861 -0.4734 -0.1392  0.1559
 7376TIP3   OH243618   3.390   6.829   5.787 -0.0377  0.3190  0.1401
 7376TIP3    H143619   3.481   6.813   5.812  0.5797  0.8758 -1.6008
 7376TIP3    H243620   3.343   6.751   5.815  1.2886 -0.7145 -0.4087
 7377TIP3   OH243621   1.679   1.316   5.888  0.0613 -0.0640 -0.3648
 7377TIP3    H143622   1.677   1.392   5.945  1.1398  0.8646 -1.5054
 7377TIP3    H243623   1.710   1.350   5.803  1.9191 -1.9469 -0.5371
 7378TIP3   OH243624   4.248   1.210   2.566  0.1216 -0.1123  0.5391
 7378TIP3    H143625   4.270   1.214   2.473  1.8367  0.6923  0.9373
 7378TIP3    H243626   4.183   1.278   2.579  0.5214  0.3603  0.0846
 7379TIP3   OH243627   5.965   3.613  16.744 -0.4306 -0.2679 -0.2750
 7379TIP3    H143628   5.968   3.679  16.813  1.1171 -0.4459 -0.1311
 7379TIP3    H243629   6.052   3.617  16.704 -0.5750 -1.6949 -0.7682
 7380TIP3   OH243630   6.655   0.902   6.111 -0.4780 -0.4203  0.5414
 7380TIP3    H143631   6.624   0.968   6.172 -0.3228 -0.0276  0.2050
 7380TIP3    H243632   6.748   0.890   6.133 -0.6904 -1.0963  1.1042
 7381TIP3   OH243633   5.538   5.909  10.999  0.2850  0.2158  0.8920
 7381TIP3    H143634   5.609   5.960  10.961  0.4687 -1.2474 -0.9074
 7381TIP3    H243635   5.492   5.872  10.923  0.2292 -2.3096  2.0460
 7382TIP3   OH243636   2.992   6.241  11.970 -0.3062 -0.1585 -0.1988
 7382TIP3    H143637   2.956   6.232  12.058 -0.0073  0.1133 -0.0449
 7382TIP3    H243638   2.916   6.240  11.912 -0.5749  0.5802  0.1322
 7383TIP3   OH243639   4.996   4.937  12.758  0.5717 -0.2872 -0.1752
 7383TIP3    H143640   4.913   4.969  12.723  0.0648 -0.2660  0.9884
 7383TIP3    H243641   4.988   4.842  12.755  1.0482 -0.2987 -1.2854
 7384TIP3   OH243642   1.830   4.041  14.293 -0.5104 -0.6447 -0.1547
 7384TIP3    H143643   1.917   4.002  14.305  0.1327  0.6117 -0.6209
 7384TIP3    H243644   1.770   3.976  14.329  0.4986 -2.1991 -1.1624
 7385TIP3   OH243645   5.866   5.159  14.670 -0.2040 -1.0975  0.4079
 7385TIP3    H143646   5.837   5.247  14.648  0.9448 -0.6044  0.8155
 7385TIP3    H243647   5.961   5.161  14.660 -0.0807 -2.0677  1.2026
 7386TIP3   OH243648   5.043   2.536   2.960  0.0598 -0.4922 -0.0490
 7386TIP3    H143649   5.058   2.520   3.053  0.2553 -0.2054 -0.0281
 7386TIP3    H243650   4.987   2.614   2.959  1.3920  0.5019 -0.1984
 7387TIP3   OH243651   2.311   5.750   0.966  0.1646  0.1438 -0.5507
 7387TIP3    H143652   2.377   5.723   0.902  0.3577 -0.6184 -0.0471
 7387TIP3    H243653   2.238   5.689   0.952  0.0353  0.2480 -0.3334
 7388TIP3   OH243654   3.733   6.167   1.577 -1.0970  0.4543 -0.1519
 7388TIP3    H143655   3.795   6.137   1.511  3.4849  2.7741  2.6003
 7388TIP3    H243656   3.720   6.091   1.634  0.6517  0.3061  0.1121
 7389TIP3   OH243657   3.983   3.718   2.923 -0.7455 -0.1285  0.1625
 7389TIP3    H143658   3.947   3.785   2.866  0.1597  0.2842  0.0545
 7389TIP3    H243659   4.014   3.765   3.001  1.0353 -0.2088 -0.4465
 7390TIP3   OH243660   2.221   0.289  14.756  0.6527 -0.8999  0.7934
 7390TIP3    H143661   2.280   0.339  14.812  0.6291 -1.0002  0.9063
 7390TIP3    H243662   2.196   0.351  14.686  1.3202 -1.0264  0.4383
 7391TIP3   OH243663   6.533   1.469   3.995 -0.1270 -0.3154 -0.2543
 7391TIP3    H143664   6.505   1.383   4.029  0.8527 -0.1788  0.9433
 7391TIP3    H243665   6.451   1.510   3.966 -0.7271 -1.2947 -0.0107
 7392TIP3   OH243666   1.433   0.294   0.095  0.3005 -0.2363  0.3504
 7392TIP3    H143667   1.361   0.299   0.158  0.7429 -1.8391  1.0329
 7392TIP3    H243668   1.501   0.244   0.140  1.0403 -0.4993 -1.0157
 7393TIP3   OH243669   6.577   6.370  13.402 -0.3245  0.0064  0.0042
 7393TIP3    H143670   6.515   6.400  13.468  0.9818  0.0483  1.2614
 7393TIP3    H243671   6.555   6.278  13.389 -0.4367 -0.0696  0.6906
 7394TIP3   OH243672   3.923   4.923   2.003  0.1412 -0.0035 -0.0432
 7394TIP3    H143673   3.957   5.004   1.966  1.3712  0.0387  1.1075
 7394TIP3    H243674   3.838   4.911   1.960  0.2728  1.4800 -0.7884
 7395TIP3   OH243675   1.770   3.947   1.139  0.4486  0.3137  0.1980
 7395TIP3    H143676   1.740   4.019   1.083  0.8698 -0.8521 -1.6188
 7395TIP3    H243677   1.729   3.869   1.102  0.8711 -0.5293  1.4528
 7396TIP3   OH243678   1.578   6.759   3.663  0.0880  0.2601  0.1218
 7396TIP3    H143679   1.557   6.823   3.594  0.3522  2.2216  1.7660
 7396TIP3    H243680   1.664   6.726   3.639 -0.8943 -1.0899 -1.8463
 7397TIP3   OH243681   2.434   4.145   6.085  0.2188  0.1784  0.4356
 7397TIP3    H143682   2.448   4.240   6.088 -0.5932  0.3936 -1.1817
 7397TIP3    H243683   2.423   4.119   6.176 -2.7114  2.1747  0.7786
 7398TIP3   OH243684   4.411   1.309  11.132  0.0979  0.2751  0.3082
 7398TIP3    H143685   4.457   1.240  11.085  1.5060  1.0351  0.5432
 7398TIP3    H243686   4.420   1.387  11.077  0.0204  0.6906  0.8759
 7399TIP3   OH243687   2.551   5.490   2.794  0.2030 -0.3596 -0.4159
 7399TIP3    H143688   2.520   5.456   2.878  1.3514 -1.6540 -0.4930
 7399TIP3    H243689   2.510   5.434   2.728  0.1097  0.0168 -0.6827
 7400TIP3   OH243690   4.899   5.835   3.435  0.3088 -0.4089 -0.2760
 7400TIP3    H143691   4.940   5.896   3.373 -0.5092  0.5361  0.0784
 7400TIP3    H243692   4.917   5.874   3.521  1.0592 -1.4756  0.0591
 7401TIP3   OH243693   6.752   0.095  16.443  0.1686 -0.2218 -0.3182
 7401TIP3    H143694   6.678   0.136  16.488 -0.5959 -0.2924 -1.4868
 7401TIP3    H243695   6.714   0.055  16.365  1.6603  1.1058 -1.7960
 7402TIP3   OH243696   2.236   1.783   4.480 -0.2878  0.5138  0.2092
 7402TIP3    H143697   2.278   1.794   4.394  0.9400 -1.2097  0.5516
 7402TIP3    H243698   2.186   1.864   4.492  1.0531  1.6274 -1.2708
 7403TIP3   OH243699   0.219   0.782   1.195  0.1415  0.0947 -0.1345
 7403TIP3    H143700   0.216   0.688   1.174 -1.2029 -0.1747  1.0935
 7403TIP3    H243701   0.304   0.793   1.238  0.6679 -0.3729 -1.0061
 7404TIP3   OH243702   5.463   0.908  15.222  0.2376  0.8537  0.3537
 7404TIP3    H143703   5.514   0.987  15.233  1.6531  0.2698 -1.4679
 7404TIP3    H243704   5.413   0.922  15.142 -0.3514  0.3504  0.6235
 7405TIP3   OH243705   4.651   4.071  14.851  0.1811  0.1864  0.5089
 7405TIP3    H143706   4.743   4.100  14.845  0.7309 -0.7259  3.1111
 7405TIP3    H243707   4.642   4.006  14.782  1.0403  1.3067 -0.7206
 7406TIP3   OH243708   0.215   4.169   2.159  0.7065  0.5303  0.5073
 7406TIP3    H143709   0.231   4.254   2.118  2.3304 -0.6597 -1.5481
 7406TIP3    H243710   0.261   4.106   2.102 -0.6692 -1.7609  1.7849
 7407TIP3   OH243711   1.170   0.833   6.838 -0.3019 -0.1116 -0.8730
 7407TIP3    H143712   1.079   0.854   6.859 -0.4799  0.1437 -1.8370
 7407TIP3    H243713   1.169   0.740   6.818 -0.1777 -0.3016 -0.0158
 7408TIP3   OH243714   0.197   2.594   2.447 -0.3117  0.0253  0.2301
 7408TIP3    H143715   0.273   2.585   2.505 -0.2814  1.1918  0.3891
 7408TIP3    H243716   0.206   2.521   2.385  0.1840 -0.6620  1.0836
 7409TIP3   OH243717   0.167   0.674   6.021  0.1000 -0.1071  0.0725
 7409TIP3    H143718   0.219   0.752   6.000 -0.5116  0.1973 -0.3334
 7409TIP3    H243719   0.195   0.650   6.109 -0.3189  1.0918  0.5624
 7410TIP3   OH243720   4.977   2.478  17.171 -0.0610 -0.1635  0.1304
 7410TIP3    H143721   5.022   2.489  17.088  0.2384 -2.1515 -0.0034
 7410TIP3    H243722   5.020   2.540  17.230  2.0124 -1.1185 -0.3202
 7411TIP3   OH243723   1.804   6.123   1.433 -0.1454  0.1462  0.1704
 7411TIP3    H143724   1.815   6.058   1.503 -0.0028  0.0272  0.0394
 7411TIP3    H243725   1.876   6.105   1.373  0.3782  0.9597  0.5427
 7412TIP3   OH243726   2.026   4.138   3.856  0.5287 -0.0804 -0.4316
 7412TIP3    H143727   2.041   4.073   3.787  0.5083  0.5737 -1.0568
 7412TIP3    H243728   1.932   4.156   3.851  0.1128 -1.5153  1.1169
 7413TIP3   OH243729   0.119   4.285  11.764  0.1976  0.1331 -0.6250
 7413TIP3    H143730   0.118   4.189  11.771  1.0600  0.1405 -0.2941
 7413TIP3    H243731   0.026   4.310  11.762 -0.0382 -0.6364  0.2788
 7414TIP3   OH243732   0.179   3.023   3.753  0.2340 -0.0437 -0.1449
 7414TIP3    H143733   0.123   2.953   3.785 -0.4415 -0.3422 -1.8732
 7414TIP3    H243734   0.261   3.011   3.800 -1.0723  0.4066  2.4646
 7415TIP3   OH243735   3.058   1.397   3.687  0.0728 -0.2034  0.2310
 7415TIP3    H143736   3.132   1.337   3.698  0.6005  0.2543 -0.6555
 7415TIP3    H243737   3.045   1.435   3.774  0.5316 -0.6863  0.5160
 7416TIP3   OH243738   2.272   5.825  12.664 -0.7643 -0.0289  0.1277
 7416TIP3    H143739   2.269   5.890  12.735 -0.4826 -0.2841  0.3787
 7416TIP3    H243740   2.288   5.876  12.585 -0.7675  0.2304  0.2932
 7417TIP3   OH243741   0.823   4.727   3.467 -0.5344  0.0993 -0.3044
 7417TIP3    H143742   0.887   4.771   3.522  0.6412  2.3104 -3.1565
 7417TIP3    H243743   0.742   4.777   3.480 -0.2337  0.6817 -0.6289
 7418TIP3   OH243744   5.980   0.814  14.086 -0.0618 -0.2505  0.3865
 7418TIP3    H143745   5.977   0.765  14.168  0.2125 -3.4521 -1.3356
 7418TIP3    H243746   5.888   0.835  14.067 -0.1503  0.2495  1.3545
 7419TIP3   OH243747   0.311   3.925   1.312  0.3466 -0.2976  0.4325
 7419TIP3    H143748   0.286   3.892   1.226 -1.6340  0.8715  0.5115
 7419TIP3    H243749   0.284   3.856   1.373  0.7148 -0.6230  0.2368
 7420TIP3   OH243750   2.924   3.056   0.022 -0.1208 -0.4673  0.1353
 7420TIP3    H143751   2.860   3.126   0.036 -0.1013 -0.4882  0.3284
 7420TIP3    H243752   2.970   3.082  -0.057  1.4367  0.9239  1.4308
 7421TIP3   OH243753   5.250   2.049   2.396 -0.2283 -0.2490  0.1319
 7421TIP3    H143754   5.209   1.971   2.435 -0.9799 -0.0486 -0.2252
 7421TIP3    H243755   5.185   2.080   2.332  0.3346  0.3031 -0.1792
 7422TIP3   OH243756   2.640   6.073   2.126  0.3733 -0.3063  0.1126
 7422TIP3    H143757   2.653   5.978   2.123  0.2035 -0.3050 -2.4209
 7422TIP3    H243758   2.563   6.084   2.182 -0.3050 -1.7814 -0.4618
 7423TIP3   OH243759   0.130   3.464  16.133 -0.4916 -0.1073 -0.1824
 7423TIP3    H143760   0.115   3.422  16.049 -0.7927 -0.2142 -0.0783
 7423TIP3    H243761   0.188   3.404  16.180 -0.4668 -0.1334 -0.2465
 7424TIP3   OH243762   4.282   0.195   0.357 -0.3036 -0.0425 -0.2608
 7424TIP3    H143763   4.216   0.258   0.388 -1.0153 -0.3579 -1.0839
 7424TIP3    H243764   4.242   0.156   0.279 -0.3221 -2.2359  0.7725
 7425TIP3   OH243765   5.719   6.265   0.769  0.6971  0.3285 -0.0593
 7425TIP3    H143766   5.729   6.323   0.694  3.0353  2.3109  1.6400
 7425TIP3    H243767   5.753   6.314   0.843  1.6448 -2.7623  1.7580
 7426TIP3   OH243768   3.611   6.666   4.972 -0.0021  0.0993  0.2119
 7426TIP3    H143769   3.566   6.612   5.037  0.7385 -0.9151 -0.0925
 7426TIP3    H243770   3.542   6.720   4.934 -1.0973 -1.7622 -0.5797
 7427TIP3   OH243771   3.456   4.366   3.104  0.0684 -0.2769  0.0985
 7427TIP3    H143772   3.544   4.359   3.143  0.5875 -0.5283 -1.0811
 7427TIP3    H243773   3.400   4.389   3.178  1.2959  1.0066  0.7022
 7428TIP3   OH243774   2.571   1.183  15.609 -0.6425  0.5161  0.4385
 7428TIP3    H143775   2.657   1.215  15.638  0.1835 -1.1515 -0.0588
 7428TIP3    H243776   2.532   1.147  15.689 -0.9694  1.4169  0.6987
 7429TIP3   OH243777   0.424   0.506  12.461  0.1795 -0.6428 -0.0426
 7429TIP3    H143778   0.442   0.496  12.368 -0.5033 -0.8778 -0.1594
 7429TIP3    H243779   0.508   0.529  12.500  0.4493 -0.4412 -0.7301
 7430TIP3   OH243780   3.054   1.462   2.930 -0.0053  0.0896 -0.4305
 7430TIP3    H143781   3.014   1.479   2.844  0.8946 -0.3423 -0.9433
 7430TIP3    H243782   3.034   1.540   2.981  0.8091  1.0711 -1.5452
 7431TIP3   OH243783   3.919   3.784  15.329 -0.5840  0.2079 -0.4571
 7431TIP3    H143784   3.907   3.874  15.297 -1.6301 -0.9043 -3.4535
 7431TIP3    H243785   4.004   3.757  15.293 -0.6888 -0.2968 -0.3318
 7432TIP3   OH243786   1.380   2.726   1.621 -0.5446 -0.3730  0.4442
 7432TIP3    H143787   1.332   2.644   1.611 -0.4739 -0.4248  0.5181
 7432TIP3    H243788   1.472   2.700   1.615 -0.5225 -0.2990  0.4686
 7433TIP3   OH243789   1.630   3.549   3.679 -0.1997 -0.0727  1.0703
 7433TIP3    H143790   1.573   3.495   3.625  2.7306 -0.7739 -1.6552
 7433TIP3    H243791   1.642   3.630   3.628  2.0581 -0.4344  0.9017
 7434TIP3   OH243792   3.594   5.694   5.598  0.1206 -0.7910 -0.2824
 7434TIP3    H143793   3.590   5.713   5.691 -2.2185 -1.3318 -0.2237
 7434TIP3    H243794   3.663   5.752   5.565  1.5455 -1.1491  1.8563
 7435TIP3   OH243795   5.881   6.733   1.407  0.4934  0.5275  0.5608
 7435TIP3    H143796   5.821   6.668   1.443  1.4731  0.1410  1.5492
 7435TIP3    H243797   5.824   6.800   1.369 -0.5321 -1.2195 -1.1083
 7436TIP3   OH243798   1.237   4.103   1.143 -0.1962 -0.1112  0.0435
 7436TIP3    H143799   1.179   4.175   1.168 -0.3723  0.3463 -1.5604
 7436TIP3    H243800   1.195   4.025   1.178 -0.0410  0.5322  1.7415
 7437TIP3   OH243801   5.942   4.961   1.689  0.4410  0.4046  0.3482
 7437TIP3    H143802   5.873   5.024   1.672 -0.5414 -0.4260  1.1051
 7437TIP3    H243803   5.932   4.895   1.620  1.7444  1.2666 -0.7064
 7438TIP3   OH243804   1.365   2.424  16.357  0.1714 -1.1555  0.0098
 7438TIP3    H143805   1.394   2.336  16.330 -1.2577 -1.8704  0.6956
 7438TIP3    H243806   1.333   2.464  16.276  0.1053 -1.5743 -0.1788
 7439TIP3   OH243807   2.614   4.711  15.001 -0.3684 -0.4498  0.2085
 7439TIP3    H143808   2.583   4.722  14.911 -1.0752  0.6007  0.5707
 7439TIP3    H243809   2.548   4.752  15.055  1.0738  0.8208  1.0905
 7440TIP3   OH243810   5.865   2.550  10.821 -0.4811  0.5846  0.8968
 7440TIP3    H143811   5.848   2.595  10.904 -2.4841  2.1267 -0.2537
 7440TIP3    H243812   5.917   2.611  10.770  0.1170 -0.0529  0.7271
 7441TIP3   OH243813   1.335   5.972   0.052  0.0949 -0.0417 -0.0946
 7441TIP3    H143814   1.394   5.985   0.127 -1.1814  2.3559  0.5972
 7441TIP3    H243815   1.359   6.041  -0.009 -0.5689 -0.4054 -0.7784
 7442TIP3   OH243816   1.685   6.221   3.777  0.4281  0.0722 -0.0282
 7442TIP3    H143817   1.693   6.257   3.688  1.7760 -1.0732 -0.4068
 7442TIP3    H243818   1.761   6.255   3.824  0.6004 -0.6332  0.2099
 7443TIP3   OH243819   6.817   5.950  16.066  0.0999  0.7185 -0.0591
 7443TIP3    H143820   6.766   5.945  15.985 -1.3038  0.5990  0.7878
 7443TIP3    H243821   6.906   5.924  16.040 -0.6131 -0.6858 -1.3074
 7444TIP3   OH243822   2.331   0.827   0.456 -0.0699 -0.6498 -0.2196
 7444TIP3    H143823   2.344   0.781   0.373  0.4926  0.2337 -0.6354
 7444TIP3    H243824   2.247   0.794   0.489  0.0744 -1.5712 -0.7618
 7445TIP3   OH243825   6.666   6.271  15.392  0.6929  0.2748  0.0067
 7445TIP3    H143826   6.641   6.186  15.354 -2.0421  0.1502  1.8054
 7445TIP3    H243827   6.674   6.329  15.316 -2.0168 -0.5439 -1.0287
 7446TIP3   OH243828   6.574   2.617   1.478  1.0028  0.2854 -0.5174
 7446TIP3    H143829   6.560   2.598   1.570  0.9177  1.5353 -0.2511
 7446TIP3    H243830   6.642   2.685   1.478 -0.9982  2.3930 -1.1934
 7447TIP3   OH243831   3.620   1.412  15.701 -0.1774  0.5195  0.3999
 7447TIP3    H143832   3.530   1.381  15.712  0.0212 -0.3399 -0.2360
 7447TIP3    H243833   3.661   1.346  15.644  0.5455  1.4759 -0.2239
 7448TIP3   OH243834   5.358   6.371   4.184  0.4408 -0.0510 -0.5055
 7448TIP3    H143835   5.335   6.432   4.255  1.1827  0.4897 -0.7153
 7448TIP3    H243836   5.327   6.415   4.105 -0.4506 -0.6889 -0.5233
 7449TIP3   OH243837   6.024   4.109   1.562 -0.3109  0.2905 -0.0454
 7449TIP3    H143838   5.946   4.160   1.581 -0.0785  1.4998 -2.0456
 7449TIP3    H243839   6.031   4.047   1.635 -2.6127  0.7283  0.6117
 7450TIP3   OH243840   2.227   0.982   0.975 -0.4155 -0.0669  0.0962
 7450TIP3    H143841   2.210   1.062   0.925  0.9757  0.9591  1.1627
 7450TIP3    H243842   2.246   1.013   1.064 -0.1130 -1.6077  0.6009
 7451TIP3   OH243843   3.245   1.844   1.204  0.4850 -0.4330 -0.4046
 7451TIP3    H143844   3.173   1.907   1.214  0.7766 -0.2091  0.4129
 7451TIP3    H243845   3.314   1.893   1.159 -0.0510 -0.7973 -1.6379
 7452TIP3   OH243846   0.914   4.372   1.869 -0.0429 -0.1468 -0.1593
 7452TIP3    H143847   0.825   4.408   1.859  0.4210  0.8893 -0.7633
 7452TIP3    H243848   0.904   4.279   1.851 -0.9292  0.0389 -0.7181
 7453TIP3   OH243849   2.064   1.665   1.292 -0.3115  0.0338  0.5118
 7453TIP3    H143850   2.070   1.576   1.327  0.3262  0.4479  1.4888
 7453TIP3    H243851   2.001   1.709   1.349 -0.4844  0.2676  0.1443
 7454TIP3   OH243852   4.609   4.844  15.806  0.3056  0.0453 -0.0490
 7454TIP3    H143853   4.590   4.751  15.791  1.8202 -0.2410 -0.4171
 7454TIP3    H243854   4.587   4.859  15.898 -1.5794 -0.2223 -0.4224
 7455TIP3   OH243855   5.135   0.986  12.354  0.0057 -0.1716 -0.2560
 7455TIP3    H143856   5.075   0.942  12.413  0.2345 -1.5623 -1.0321
 7455TIP3    H243857   5.185   1.045  12.411 -1.2012  0.0782  0.5883
 7456TIP3   OH243858   6.348   1.110   0.252 -0.3344  0.4875  0.3457
 7456TIP3    H143859   6.348   1.206   0.247  1.1025  0.5356  0.6423
 7456TIP3    H243860   6.335   1.082   0.161 -1.5521  0.9448  0.3712
 7457TIP3   OH243861   6.781   5.511   3.425  1.0059 -0.2753 -0.7342
 7457TIP3    H143862   6.829   5.466   3.496 -0.2903 -0.7974 -0.1481
 7457TIP3    H243863   6.690   5.485   3.438  0.6996 -0.1834 -2.4741
 7458TIP3   OH243864   5.044   2.462  15.862 -0.0208 -0.1920  0.5909
 7458TIP3    H143865   5.094   2.433  15.785 -1.0821 -1.0239  0.1794
 7458TIP3    H243866   4.979   2.522  15.826 -1.9451 -2.2294  0.4227
 7459TIP3   OH243867   3.137   4.521  15.680 -0.1040  0.2944 -0.9145
 7459TIP3    H143868   3.171   4.444  15.634 -0.6389  0.5061 -1.6878
 7459TIP3    H243869   3.046   4.529  15.650 -0.8637 -0.2220  1.0675
 7460TIP3   OH243870   2.208   4.909  16.466 -0.0964  0.0831 -0.3735
 7460TIP3    H143871   2.216   4.974  16.396  0.2458  1.5391  0.9929
 7460TIP3    H243872   2.144   4.946  16.526  2.7884  1.0378  2.3766
 7461TIP3   OH243873   6.032   4.413  15.338 -0.1178 -0.6375  0.4215
 7461TIP3    H143874   6.119   4.446  15.317  0.3336 -1.4669  0.9443
 7461TIP3    H243875   6.011   4.353  15.267  0.8827 -2.4801  1.6054
 7462TIP3   OH243876   0.621   5.184   3.915  0.5341 -0.5365 -0.1198
 7462TIP3    H143877   0.634   5.246   3.844  1.0130 -0.2653  0.1952
 7462TIP3    H243878   0.627   5.098   3.873  0.8516 -0.3798 -0.4019
 7463TIP3   OH243879   5.526   2.997  11.909 -0.0233  0.0864  0.2448
 7463TIP3    H143880   5.528   3.067  11.844 -1.6298  0.8585  0.9503
 7463TIP3    H243881   5.599   3.017  11.968  0.0332  0.7159 -0.0309
 7464TIP3   OH243882   2.349   1.048  11.319  0.0268  0.2152  0.1603
 7464TIP3    H143883   2.369   0.968  11.367  3.9847  1.4760  0.9374
 7464TIP3    H243884   2.388   1.035  11.233 -0.6168  0.7800 -0.2247
 7465TIP3   OH243885   3.548   2.015  12.001  0.3522 -0.3973 -0.3406
 7465TIP3    H143886   3.557   2.052  12.089  0.5257 -3.4437  1.0471
 7465TIP3    H243887   3.456   1.990  11.995  0.3508 -0.2357 -1.0219
 7466TIP3   OH243888   0.648   1.202  16.341 -0.9298 -0.3264  0.6835
 7466TIP3    H143889   0.608   1.228  16.258 -1.4100 -0.8216  0.7582
 7466TIP3    H243890   0.640   1.107  16.344 -0.6636 -0.3402  1.1699
 7467TIP3   OH243891   1.476   0.053  14.210  1.0189  0.4165 -0.0426
 7467TIP3    H143892   1.411   0.034  14.142  0.8875 -2.2990  0.7268
 7467TIP3    H243893   1.424   0.087  14.283  0.7751  0.4466 -0.2286
 7468TIP3   OH243894   4.910   3.146  14.843  0.3220 -0.2211  0.3671
 7468TIP3    H143895   4.911   3.101  14.927  3.3863 -1.2985 -0.0835
 7468TIP3    H243896   4.835   3.110  14.797  0.2765 -1.8096  1.6016
 7469TIP3   OH243897   0.197   1.963   5.642  0.7107 -0.3353 -0.2039
 7469TIP3    H143898   0.114   2.006   5.621 -0.8294 -2.3199  1.4273
 7469TIP3    H243899   0.195   1.883   5.590  2.0957  0.0253 -0.8556
 7470TIP3   OH243900   5.431   2.156  14.021  0.2848  0.0551  0.6799
 7470TIP3    H143901   5.372   2.082  14.003  1.4520 -0.7972  0.1985
 7470TIP3    H243902   5.489   2.123  14.089 -0.0557  1.0360  1.4512
 7471TIP3   OH243903   3.939   4.759  15.145 -0.5360  0.1238 -0.4309
 7471TIP3    H143904   3.849   4.777  15.173  0.4824 -0.4939  4.0609
 7471TIP3    H243905   3.940   4.665  15.127 -0.4861 -0.2540  1.3547
 7472TIP3   OH243906   3.879   3.831   4.972 -0.5265  0.6859 -0.6134
 7472TIP3    H143907   3.806   3.774   4.946  0.5793 -1.2134  0.1774
 7472TIP3    H243908   3.928   3.845   4.891  0.3270 -1.3122 -0.5216
 7473TIP3   OH243909   2.378   6.286  11.668  0.0288  0.5759 -0.2311
 7473TIP3    H143910   2.442   6.349  11.701 -0.4605  0.3843  1.1765
 7473TIP3    H243911   2.312   6.340  11.624 -2.6835  1.7701  4.5460
 7474TIP3   OH243912   2.803   3.093  16.426  0.2801 -0.3479 -0.5854
 7474TIP3    H143913   2.893   3.116  16.449  0.4096 -2.0377  0.8302
 7474TIP3    H243914   2.753   3.109  16.505 -0.1494 -1.9378 -0.5020
 7475TIP3   OH243915   4.147   3.811  12.239  0.8030  0.2592  0.1943
 7475TIP3    H143916   4.205   3.887  12.248  0.5020  0.4759  0.3302
 7475TIP3    H243917   4.190   3.756  12.174  0.7571  0.7996 -0.3001
 7476TIP3   OH243918   2.459   5.577  15.013  0.3275  0.6092  0.8552
 7476TIP3    H143919   2.489   5.508  15.074  0.8072  0.1338  0.0968
 7476TIP3    H243920   2.537   5.631  14.999  0.3048  0.5285  0.4126
 7477TIP3   OH243921   4.253   4.670   4.210  0.4089  0.3140 -0.2665
 7477TIP3    H143922   4.208   4.600   4.164 -1.7311  0.9614  0.7263
 7477TIP3    H243923   4.290   4.628   4.288 -0.0338  0.0862 -0.1733
 7478TIP3   OH243924   4.040   5.483  15.971 -0.2430  0.1519  0.5481
 7478TIP3    H143925   4.053   5.551  15.905 -0.7194 -1.4129 -1.2455
 7478TIP3    H243926   4.022   5.403  15.921 -0.3962 -1.1752  2.5745
 7479TIP3   OH243927   4.168   0.617  14.069 -0.0751 -0.9909  0.0225
 7479TIP3    H143928   4.196   0.550  14.007 -1.3577 -1.3618 -0.1706
 7479TIP3    H243929   4.182   0.577  14.155 -0.9726 -1.5829 -0.0930
 7480TIP3   OH243930   2.661   1.548  15.574  0.7188 -1.1562 -0.0512
 7480TIP3    H143931   2.663   1.593  15.490 -0.8964 -1.7377 -0.4260
 7480TIP3    H243932   2.572   1.516  15.583  1.4420 -3.0816  0.8367
 7481TIP3   OH243933   6.767   5.161   1.393 -0.1061  0.1876  0.9678
 7481TIP3    H143934   6.749   5.091   1.456 -2.1156  0.2182  0.4855
 7481TIP3    H243935   6.682   5.180   1.353  0.8126  1.3557 -0.5299
 7482TIP3   OH243936   2.101   0.684  12.535  0.6033  0.0879  0.0514
 7482TIP3    H143937   2.173   0.621  12.534 -0.7022 -1.5842  2.2207
 7482TIP3    H243938   2.063   0.677  12.447  1.9176 -0.3716 -0.5162
 7483TIP3   OH243939   5.332   2.115  16.197 -0.3490 -0.3679  0.2892
 7483TIP3    H143940   5.296   2.037  16.155  2.2081 -1.1813 -0.6453
 7483TIP3    H243941   5.377   2.161  16.126  0.2542  0.6478  1.2934
 7484TIP3   OH243942   4.925   6.347  14.542 -0.1949 -0.1902  0.4902
 7484TIP3    H143943   5.008   6.394  14.532 -0.0219  0.0129  2.5236
 7484TIP3    H243944   4.871   6.379  14.470  2.3044 -2.3340 -2.6950
 7485TIP3   OH243945   2.771   1.385  15.264  0.1338 -0.5790 -0.4947
 7485TIP3    H143946   2.686   1.385  15.308  0.7713 -0.8924  0.7752
 7485TIP3    H243947   2.794   1.477  15.255 -0.0442 -0.5100 -0.2346
 7486TIP3   OH243948   2.804   4.022  13.429  0.2932  0.2383 -0.4426
 7486TIP3    H143949   2.778   3.962  13.359 -0.8032 -0.3108  0.3870
 7486TIP3    H243950   2.779   3.976  13.510  2.6983  0.2762  0.4065
 7487TIP3   OH243951   3.278   3.001   2.098 -0.7061 -0.2809 -0.4353
 7487TIP3    H143952   3.354   2.972   2.148 -2.5435 -1.7117  1.7154
 7487TIP3    H243953   3.279   3.096   2.106  0.1655 -0.3669  0.5991
 7488TIP3   OH243954   4.015   3.487   4.515 -0.5854  0.2350  0.1465
 7488TIP3    H143955   4.060   3.570   4.533  1.3612 -1.2564  2.9035
 7488TIP3    H243956   3.942   3.511   4.458  1.4407  3.4092 -1.3905
 7489TIP3   OH243957   6.279   4.406  14.472 -0.2181 -0.0639  0.2820
 7489TIP3    H143958   6.331   4.349  14.415  3.0536  2.1100  0.8004
 7489TIP3    H243959   6.320   4.396  14.558 -1.7295  0.6034  1.1033
 7490TIP3   OH243960   5.995   2.483   1.381  0.5160  0.0267  0.2942
 7490TIP3    H143961   6.065   2.517   1.436  0.1605 -1.0587  1.4566
 7490TIP3    H243962   6.038   2.423   1.320  0.9082  1.2241 -0.6399
 7491TIP3   OH243963   1.827   5.032  12.730 -0.3602 -0.2341  0.0556
 7491TIP3    H143964   1.741   5.040  12.689 -0.4642 -1.0369  0.0946
 7491TIP3    H243965   1.808   5.017  12.822 -0.1211  1.8030  0.4796
 7492TIP3   OH243966   0.945   0.510   5.861  0.6058 -0.5733 -0.4427
 7492TIP3    H143967   0.955   0.593   5.908  0.8189  0.8096 -2.7396
 7492TIP3    H243968   1.032   0.492   5.826  0.6350 -1.9731  0.3015
 7493TIP3   OH243969   5.909   1.883   4.841  0.9192 -0.0516 -0.4908
 7493TIP3    H143970   5.821   1.900   4.876  0.7331 -0.3314 -0.8070
 7493TIP3    H243971   5.945   1.970   4.824  1.1418  0.0969  0.6847
 7494TIP3   OH243972   2.647   3.485   4.074  0.5441  0.2722 -0.3300
 7494TIP3    H143973   2.713   3.554   4.061  0.9374  0.0194  0.2782
 7494TIP3    H243974   2.651   3.433   3.994 -0.0237  1.1663 -0.9674
 7495TIP3   OH243975   2.231   0.496   5.364  0.1637 -0.4971 -0.7189
 7495TIP3    H143976   2.245   0.552   5.287 -1.5082 -2.9584 -3.0046
 7495TIP3    H243977   2.306   0.437   5.365  1.0539  0.5919  0.6623
 7496TIP3   OH243978   5.675   6.198  13.847  0.2858 -0.0560  0.6580
 7496TIP3    H143979   5.639   6.283  13.821  0.2552 -0.6464 -1.3701
 7496TIP3    H243980   5.762   6.196  13.807  0.3539 -0.9131  0.8265
 7497TIP3   OH243981   5.542   1.833  15.362 -0.2895  0.1843 -0.3548
 7497TIP3    H143982   5.461   1.821  15.312 -2.4897  1.7927  2.5322
 7497TIP3    H243983   5.567   1.924  15.345 -0.4127  0.3937  0.5349
 7498TIP3   OH243984   3.493   3.193  13.000 -0.5230  0.0220 -0.2344
 7498TIP3    H143985   3.411   3.159  13.035 -1.1938  0.6721 -1.1162
 7498TIP3    H243986   3.558   3.128  13.025 -0.7832  0.7794  2.8600
 7499TIP3   OH243987   0.670   6.251   3.910  0.2934 -0.3142 -0.5394
 7499TIP3    H143988   0.711   6.165   3.901  0.5754 -0.2007 -0.3558
 7499TIP3    H243989   0.669   6.267   4.005  0.4868  0.0017 -0.5899
 7500TIP3   OH243990   2.172   1.727   4.038  0.2466  0.1560 -0.1575
 7500TIP3    H143991   2.212   1.803   3.994  0.5472  0.1690  0.1346
 7500TIP3    H243992   2.128   1.765   4.115 -3.0771  0.6128 -2.1073
 7501TIP3   OH243993   2.553   3.626  16.962 -0.1221  0.0866  0.0945
 7501TIP3    H143994   2.529   3.574  17.040  0.1339  0.1022  0.1840
 7501TIP3    H243995   2.530   3.570  16.888 -0.1344 -0.0306  0.1864
 7502TIP3   OH243996   1.829   1.811  12.551 -0.0131 -0.4849 -0.3008
 7502TIP3    H143997   1.920   1.782  12.544 -0.0208 -0.4467 -0.5825
 7502TIP3    H243998   1.781   1.755  12.489 -0.6105 -2.2198  1.6294
 7503TIP3   OH243999   2.184   4.599  12.548 -0.2288  0.1550  0.6681
 7503TIP3    H144000   2.137   4.526  12.588 -1.2225  0.8893  0.8943
 7503TIP3    H244001   2.277   4.579  12.560 -0.4978 -0.9184  0.9838
 7504TIP3   OH244002   4.206   2.932   4.736  0.6302  0.1895 -0.7566
 7504TIP3    H144003   4.179   2.967   4.821  0.1501  1.1600 -1.2998
 7504TIP3    H244004   4.289   2.887   4.754  0.7427  0.7366  0.1466
 7505TIP3   OH244005   4.075   6.268   1.878  0.1340  0.0032 -0.9260
 7505TIP3    H144006   4.028   6.349   1.901  0.9410  0.4646 -0.8488
 7505TIP3    H244007   4.089   6.224   1.962 -1.7587 -1.0640 -1.1221
 7506TIP3   OH244008   1.069   2.423   5.526 -0.3760  0.2114  0.4606
 7506TIP3    H144009   1.067   2.351   5.463  1.1960  0.7475 -0.2713
 7506TIP3    H244010   1.065   2.381   5.611  4.1978 -1.2399  0.2651
 7507TIP3   OH244011   1.975   4.794   4.230  0.0438 -0.2766  0.4025
 7507TIP3    H144012   2.019   4.709   4.236  0.5662 -0.0127  0.4538
 7507TIP3    H244013   1.922   4.800   4.309 -1.1404 -1.1724 -0.3051
 7508TIP3   OH244014   2.349   1.679  14.216 -0.1057  0.6679  0.7460
 7508TIP3    H144015   2.360   1.695  14.122  0.0052 -0.0477  0.6319
 7508TIP3    H244016   2.431   1.638  14.243 -0.1726  0.7910  1.1343
 7509TIP3   OH244017   4.031   6.229  15.271 -0.8277 -0.7470  0.5100
 7509TIP3    H144018   4.076   6.154  15.232  2.7544  0.9627  0.8984
 7509TIP3    H244019   4.025   6.207  15.364  1.3484 -0.1964  0.8461
 7510TIP3   OH244020   0.551   4.161   4.787 -0.4759 -0.3909  0.0113
 7510TIP3    H144021   0.460   4.189   4.778 -0.1159  0.2505 -2.7430
 7510TIP3    H244022   0.567   4.107   4.709  1.7286  0.2536 -0.0570
 7511TIP3   OH244023   4.990   3.847   5.329  0.2026  0.1109 -0.5350
 7511TIP3    H144024   5.055   3.895   5.277 -1.3818  1.0670 -1.7448
 7511TIP3    H244025   4.925   3.820   5.265 -1.2339  0.2920  0.8036
 7512TIP3   OH244026   0.188   4.135   2.905 -0.5116  0.5113 -0.1580
 7512TIP3    H144027   0.143   4.175   2.980 -0.5593 -0.4829  0.3569
 7512TIP3    H244028   0.141   4.169   2.829 -0.7730  1.1508  0.2749
 7513TIP3   OH244029   6.217   4.479   0.907  0.4323 -0.3510 -0.1398
 7513TIP3    H144030   6.198   4.546   0.973 -0.7609 -0.6954 -0.1203
 7513TIP3    H244031   6.224   4.528   0.825  2.2849  0.1265  0.2504
 7514TIP3   OH244032   1.021   1.437  16.787 -0.0413 -0.3613 -0.9327
 7514TIP3    H144033   0.961   1.452  16.714 -0.0790  0.8295 -0.6787
 7514TIP3    H244034   0.973   1.379  16.846 -0.9699  0.5798 -0.7306
 7515TIP3   OH244035   2.444   2.477  11.752  0.3672 -0.4441  0.7345
 7515TIP3    H144036   2.515   2.477  11.688 -1.5636  0.1467 -1.5462
 7515TIP3    H244037   2.444   2.565  11.789 -0.1862  0.0773 -0.4803
 7516TIP3   OH244038   5.090   1.122  10.888 -0.1129 -0.3634 -0.1979
 7516TIP3    H144039   5.135   1.185  10.944 -0.5442  0.6846 -1.0050
 7516TIP3    H244040   4.997   1.138  10.902 -0.2323  0.2615 -1.5678
 7517TIP3   OH244041   4.120   4.555  11.040 -0.2375 -0.0661 -0.0877
 7517TIP3    H144042   4.108   4.477  11.094 -1.3377  0.0490 -0.1569
 7517TIP3    H244043   4.050   4.551  10.976 -0.1374  0.8477 -0.2651
 7518TIP3   OH244044   5.149   5.726   1.730 -0.0888  0.6173 -0.0414
 7518TIP3    H144045   5.093   5.689   1.798 -0.3193 -0.0091 -0.5545
 7518TIP3    H244046   5.196   5.797   1.773  1.9276 -1.5422  1.5674
 7519TIP3   OH244047   2.059   2.043  16.633  0.3625 -0.4823  0.4002
 7519TIP3    H144048   2.094   2.126  16.664  1.3111  0.0243 -1.8655
 7519TIP3    H244049   1.965   2.059  16.621  0.5592  0.3208 -0.1286
 7520TIP3   OH244050   0.713   2.310   5.105  0.1943  0.0790 -0.8209
 7520TIP3    H144051   0.778   2.251   5.068 -0.6411  0.7173 -3.5473
 7520TIP3    H244052   0.749   2.398   5.090 -0.2927  0.3805 -0.2967
 7521TIP3   OH244053   4.672   3.131   1.465 -0.4739  0.1063  0.2803
 7521TIP3    H144054   4.586   3.090   1.467 -0.4820  0.0124  3.6187
 7521TIP3    H244055   4.733   3.057   1.460 -0.5025  0.1411 -1.2265
 7522TIP3   OH244056   0.656   5.996  16.349  0.2875 -0.4759 -0.3778
 7522TIP3    H144057   0.568   5.994  16.387  0.2134 -0.4790 -0.5499
 7522TIP3    H244058   0.679   5.904  16.338  1.4016 -0.5690  2.1662
 7523TIP3   OH244059   0.066   3.689  16.593  0.0101 -0.7963  0.5038
 7523TIP3    H144060   0.021   3.673  16.510 -0.9779 -0.3946  0.9450
 7523TIP3    H244061   0.119   3.611  16.607 -1.0127 -1.5550  0.2507
 7524TIP3   OH244062   3.447   2.224  15.151  0.4013  0.1888  0.7096
 7524TIP3    H144063   3.358   2.246  15.177  0.6676  1.6645  0.4617
 7524TIP3    H244064   3.438   2.146  15.097 -0.9512  1.2931 -0.7472
 7525TIP3   OH244065   3.148   3.532  13.203  0.6331  0.2214 -0.0070
 7525TIP3    H144066   3.221   3.538  13.141  0.6845  1.0655  0.1093
 7525TIP3    H244067   3.189   3.542  13.289  0.5736 -1.0317  0.1792
 7526TIP3   OH244068   1.752   3.501  11.640  0.2084  0.5538 -0.1497
 7526TIP3    H144069   1.766   3.547  11.723 -2.1161  0.6225  0.2776
 7526TIP3    H244070   1.836   3.461  11.621  1.1254  1.4559  1.6717
 7527TIP3   OH244071   5.801   3.027  16.624  1.0057  0.0935  0.4165
 7527TIP3    H144072   5.729   3.003  16.567 -0.3507  2.6221  0.9080
 7527TIP3    H244073   5.875   3.041  16.564 -0.0377  1.4224 -0.6213
 7528TIP3   OH244074   5.165   2.078  17.171  0.3242  0.7487  0.2138
 7528TIP3    H144075   5.182   2.012  17.237 -1.3701  0.5975  0.5436
 7528TIP3    H244076   5.126   2.151  17.219 -0.3072  0.9017 -0.5140
 7529TIP3   OH244077   4.017   4.687   2.853 -0.2237 -0.6360 -0.1778
 7529TIP3    H144078   4.029   4.592   2.856 -2.2407 -0.9131  0.9942
 7529TIP3    H244079   3.995   4.712   2.943  2.0500  1.2665 -0.0549
 7530TIP3   OH244080   3.938   2.783  13.384  0.2946 -0.2321 -0.0621
 7530TIP3    H144081   3.900   2.695  13.379 -0.6603  0.1798 -0.2708
 7530TIP3    H244082   3.871   2.836  13.427 -0.0805  0.8722 -1.8935
 7531TIP3   OH244083   3.612   5.153  10.554 -0.1709  0.0115 -0.1045
 7531TIP3    H144084   3.688   5.122  10.505  0.1352 -0.8664  0.8754
 7531TIP3    H244085   3.546   5.085  10.541 -0.5560  0.4382 -0.4005
 7532TIP3   OH244086   5.338   0.711   6.070  0.4786 -0.2949 -0.0154
 7532TIP3    H144087   5.424   0.696   6.029  0.6330  1.2166 -0.3048
 7532TIP3    H244088   5.329   0.806   6.072 -0.9415 -0.4212  0.5645
 7533TIP3   OH244089   4.839   3.237  11.345  0.2026  0.5144  0.0515
 7533TIP3    H144090   4.749   3.206  11.345  0.7152 -1.0860  0.3742
 7533TIP3    H244091   4.855   3.265  11.435 -0.0022  0.9098 -0.0345
 7534TIP3   OH244092   3.121   2.938  13.569  0.9749  0.4865  0.0861
 7534TIP3    H144093   3.060   3.011  13.581 -0.2124 -0.4434 -0.0975
 7534TIP3    H244094   3.098   2.901  13.484  2.5650  0.8041 -0.5019
 7535TIP3   OH244095   4.435   1.915   2.913  0.4849  0.2250 -0.0875
 7535TIP3    H144096   4.432   2.004   2.947  2.3471 -0.1912  1.2935
 7535TIP3    H244097   4.519   1.910   2.866  2.2492 -1.7682  2.9599
 7536TIP3   OH244098   5.677   0.028   1.723 -0.1280  0.1008  0.6414
 7536TIP3    H144099   5.707   0.102   1.776  0.0344  0.6513 -0.2061
 7536TIP3    H244100   5.751  -0.033   1.724  0.5523  0.8712 -0.3442
 7537TIP3   OH244101   5.172   1.004   5.359  0.4790 -0.4373  0.2730
 7537TIP3    H144102   5.098   0.951   5.387 -0.0921  0.0431 -0.3019
 7537TIP3    H244103   5.230   0.943   5.314 -0.2027 -0.5687 -0.4461
 7538TIP3   OH244104   2.633   2.160  16.976 -0.1234 -0.2236 -0.1219
 7538TIP3    H144105   2.645   2.108  16.896  0.8783 -1.8531  1.0219
 7538TIP3    H244106   2.713   2.213  16.983 -0.3143  0.0924 -0.3110
 7539TIP3   OH244107   1.411   2.189  16.005  0.6434  0.3076 -0.0708
 7539TIP3    H144108   1.365   2.168  15.923 -0.1359 -0.3304  0.5209
 7539TIP3    H244109   1.454   2.273  15.987  1.4179 -0.3535 -1.5091
 7540TIP3   OH244110   2.532   3.384  12.151  0.4185 -0.3454 -0.0825
 7540TIP3    H144111   2.553   3.337  12.231  2.3656 -0.3057 -0.5102
 7540TIP3    H244112   2.490   3.465  12.181  2.5995  0.4632  1.0764
 7541TIP3   OH244113   0.710   3.226  15.558 -0.0801 -0.7585 -0.3883
 7541TIP3    H144114   0.638   3.205  15.617  0.2195 -0.8701 -0.0552
 7541TIP3    H244115   0.750   3.142  15.536 -1.6581 -0.9773 -2.6965
 7542TIP3   OH244116   1.153   3.050   2.669 -0.5909  0.4256 -0.1024
 7542TIP3    H144117   1.241   3.027   2.639 -0.2877 -1.6975  2.1325
 7542TIP3    H244118   1.166   3.130   2.721  0.2887 -0.5316  1.2204
 7543TIP3   OH244119   4.237   5.651  10.225 -0.3971 -0.6490  0.2591
 7543TIP3    H144120   4.329   5.668  10.241 -0.8107 -0.2268  2.5528
 7543TIP3    H244121   4.234   5.559  10.197  0.8409 -0.1284 -1.8439
 7544TIP3   OH244122   1.166   2.875  13.164 -0.3994  0.7208 -0.5079
 7544TIP3    H144123   1.235   2.849  13.103  0.9833 -1.2075  1.7134
 7544TIP3    H244124   1.087   2.877  13.110  0.7640 -0.7343 -2.4237
 7545TIP3   OH244125   1.928   2.164  13.700  0.4730 -0.0938  0.3480
 7545TIP3    H144126   1.936   2.098  13.770 -0.9932 -0.5261  0.1515
 7545TIP3    H244127   1.892   2.241  13.744 -1.6813 -0.7794 -0.0920
 7546TIP3   OH244128   2.306   4.190  14.941 -0.0107  0.0083 -0.0280
 7546TIP3    H144129   2.230   4.193  14.999 -0.2755 -0.2677 -0.3540
 7546TIP3    H244130   2.278   4.135  14.868  0.3897  0.1821 -0.3156
 7547TIP3   OH244131   4.427   2.784   6.303  0.3744  0.4463 -0.6164
 7547TIP3    H144132   4.504   2.731   6.278 -0.2253 -0.0446 -1.4930
 7547TIP3    H244133   4.378   2.727   6.362  1.7679  1.5917  1.7504
 7548TIP3   OH244134   6.504   5.869  11.702  0.4646 -0.4805  0.4021
 7548TIP3    H144135   6.503   5.881  11.797 -0.7172  1.4368  0.1993
 7548TIP3    H244136   6.594   5.841  11.682  1.8266  2.4391  1.7558
 7549TIP3   OH244137   6.002   5.883   3.568 -0.2153 -0.1625  0.7969
 7549TIP3    H144138   5.945   5.808   3.586 -2.0166  0.8279 -0.4385
 7549TIP3    H244139   5.976   5.913   3.481  2.0196  0.5598  0.2935
 7550TIP3   OH244140   3.380   1.754  12.811 -0.0403 -0.3614  0.1306
 7550TIP3    H144141   3.422   1.789  12.889 -1.1996 -2.3465  1.7680
 7550TIP3    H244142   3.295   1.797  12.808 -0.0861 -0.4563  0.0786
 7551TIP3   OH244143   5.068   4.897   0.003 -0.1715  0.5168  0.2045
 7551TIP3    H144144   5.067   4.900   0.099  0.8910  1.4347  0.2096
 7551TIP3    H244145   5.124   4.971  -0.022 -0.0448 -0.0052 -1.1054
 7552TIP3   OH244146   0.589   1.898   1.261  0.3424 -0.6839 -0.0053
 7552TIP3    H144147   0.641   1.889   1.341 -0.3692 -0.5262  0.4862
 7552TIP3    H244148   0.620   1.980   1.221  0.6891 -0.7564  0.1099
 7553TIP3   OH244149   5.569   4.514   1.820  0.2835 -0.2028 -0.4007
 7553TIP3    H144150   5.523   4.495   1.738 -1.1016  1.0456  0.0471
 7553TIP3    H244151   5.628   4.585   1.798 -0.0338  0.0820 -0.3335
 7554TIP3   OH244152   2.002   0.822   1.253  0.1402 -0.1238  0.5828
 7554TIP3    H144153   2.047   0.765   1.190 -0.6180 -1.7379  1.4312
 7554TIP3    H244154   2.060   0.824   1.329 -0.2351 -0.4888  0.8823
 7555TIP3   OH244155   0.627   0.479   6.042  0.1271  0.6093  0.5297
 7555TIP3    H144156   0.628   0.424   5.964  2.4236  2.3392 -0.8217
 7555TIP3    H244157   0.681   0.432   6.106  1.1093  0.7058 -0.2015
 7556TIP3   OH244158   0.879   5.210  15.102 -0.0374  0.0024  0.2788
 7556TIP3    H144159   0.879   5.143  15.033  0.3135  0.2905 -0.0092
 7556TIP3    H244160   0.948   5.183  15.162  0.1671  0.1495  0.1135
 7557TIP3   OH244161   3.887   6.374   0.040  1.0226 -0.1830  0.2378
 7557TIP3    H144162   3.802   6.396   0.079  0.5245 -1.8360  0.1519
 7557TIP3    H244163   3.946   6.367   0.115  0.0730 -3.3425  0.8268
 7558TIP3   OH244164   1.900   1.532  17.027  0.2765 -0.0353  0.2999
 7558TIP3    H144165   1.886   1.552  17.119 -1.3055 -0.4704  0.1815
 7558TIP3    H244166   1.944   1.447  17.027  1.1980  0.4245  0.6507
 7559TIP3   OH244167   5.063   6.804  11.434  0.0939 -0.6169  0.3069
 7559TIP3    H144168   5.030   6.796  11.344  1.6563 -1.0491 -0.2679
 7559TIP3    H244169   4.992   6.771  11.489 -0.5949 -1.0944 -0.8350
 7560TIP3   OH244170   0.457   2.738   0.801 -0.1798 -0.2630 -0.3674
 7560TIP3    H144171   0.486   2.759   0.712 -1.4746  0.6362 -0.5880
 7560TIP3    H244172   0.539   2.727   0.850  0.5529  0.7693 -1.3070
 7561TIP3   OH244173   0.293   2.004  10.990  0.0574  0.4734 -0.3960
 7561TIP3    H144174   0.272   1.925  10.939 -0.9622 -0.4640  1.3825
 7561TIP3    H244175   0.369   1.980  11.042  0.0176  0.8206 -0.1730
 7562TIP3   OH244176   4.692   3.866   3.756 -0.1783 -0.2856 -0.0192
 7562TIP3    H144177   4.598   3.845   3.751 -0.6433  1.2094  1.3149
 7562TIP3    H244178   4.700   3.914   3.839  1.1298  2.7007 -1.7443
 7563TIP3   OH244179   2.523   6.739  11.977 -0.3021  0.1464 -0.2874
 7563TIP3    H144180   2.513   6.658  12.027 -0.8613 -1.2425 -2.4828
 7563TIP3    H244181   2.599   6.722  11.920  0.0173  1.4567 -0.2732
 7564TIP3   OH244182   4.993   3.942  15.473 -0.2815  0.1862  0.6754
 7564TIP3    H144183   4.908   3.965  15.435 -0.6535  0.5944  1.6959
 7564TIP3    H244184   4.995   3.847  15.473 -1.2404  0.1365  1.6314
 7565TIP3   OH244185   4.437   6.784  15.374  0.8375 -0.2903 -0.0210
 7565TIP3    H144186   4.364   6.803  15.315  0.6223 -0.4696  0.1819
 7565TIP3    H244187   4.427   6.847  15.445  1.1493 -0.0152 -0.2201
 7566TIP3   OH244188   5.120   2.531  11.191 -0.5160 -0.0938 -0.0876
 7566TIP3    H144189   5.133   2.606  11.133  0.1453 -0.1636 -0.0351
 7566TIP3    H244190   5.190   2.470  11.169  1.2299  0.8527  2.2969
 7567TIP3   OH244191   3.274   5.045   2.653 -0.2679 -0.3773 -0.4077
 7567TIP3    H144192   3.310   5.109   2.592 -1.4159  0.0307 -0.6978
 7567TIP3    H244193   3.256   4.968   2.599 -0.3934 -0.3541 -0.4016
 7568TIP3   OH244194   2.976   4.020  15.827 -0.5286  0.3490  0.3026
 7568TIP3    H144195   2.994   3.957  15.757 -1.2578  1.2117 -0.7049
 7568TIP3    H244196   2.974   3.968  15.907  0.5752 -0.6319 -0.2795
 7569TIP3   OH244197   3.951   3.193  11.326 -0.1192  0.1885  0.3075
 7569TIP3    H144198   4.039   3.231  11.321  0.3522 -0.8670  0.4884
 7569TIP3    H244199   3.965   3.103  11.353 -1.4256  0.7616  3.2995
 7570TIP3   OH244200   0.317   2.503   4.632 -0.0305 -0.0292 -0.0774
 7570TIP3    H144201   0.284   2.590   4.653 -0.6281 -0.4899  0.9359
 7570TIP3    H244202   0.254   2.467   4.569 -0.9554 -0.5221  1.0974
 7571TIP3   OH244203   3.472   3.950   2.980 -0.6924 -0.3399  0.3392
 7571TIP3    H144204   3.379   3.928   2.988 -0.7916 -0.8995 -1.7805
 7571TIP3    H244205   3.493   3.932   2.888  1.4810 -0.0795  0.7376
 7572TIP3   OH244206   4.003   1.944   0.829  0.0092 -0.0961  0.2090
 7572TIP3    H144207   3.973   1.973   0.742  0.3603 -0.3412  0.0022
 7572TIP3    H244208   3.963   1.858   0.841 -1.4912  0.6850  1.0647
 7573TIP3   OH244209   6.424   0.340   6.423  0.2296 -0.2408 -0.3283
 7573TIP3    H144210   6.441   0.431   6.400  0.5814 -0.2875 -0.2593
 7573TIP3    H244211   6.468   0.289   6.356  1.0857 -0.3742  0.3129
 7574TIP3   OH244212   1.709   5.290  13.189  0.1572 -0.0977  0.5138
 7574TIP3    H144213   1.731   5.206  13.229  0.5231  0.6032  1.8270
 7574TIP3    H244214   1.788   5.316  13.142 -0.2094 -0.8297 -0.5537
 7575TIP3   OH244215   1.701   0.126   5.503  0.5897  0.5102 -0.1103
 7575TIP3    H144216   1.738   0.214   5.511  1.2460  0.0984  2.0012
 7575TIP3    H244217   1.617   0.132   5.548  1.1968 -0.2257  1.1544
 7576TIP3   OH244218   2.829   1.479   5.244  0.0599 -0.7611 -0.6106
 7576TIP3    H144219   2.804   1.557   5.195 -0.1190 -0.1439  0.4344
 7576TIP3    H244220   2.897   1.509   5.304 -2.2205 -0.5832  2.1185
 7577TIP3   OH244221   5.285   2.421   2.475 -0.0252 -0.5734 -0.1219
 7577TIP3    H144222   5.331   2.403   2.557 -0.4414 -1.5392 -0.0842
 7577TIP3    H244223   5.321   2.504   2.444  2.6783 -1.8638 -0.7355
 7578TIP3   OH244224   5.908   3.141  11.966 -0.3745 -0.1287  0.0416
 7578TIP3    H144225   5.897   3.230  11.934  1.5046 -0.2124 -1.0070
 7578TIP3    H244226   6.001   3.121  11.950 -0.9090 -2.5282 -0.4951
 7579TIP3   OH244227   1.123   4.122   1.968 -0.0283  0.9370 -0.0124
 7579TIP3    H144228   1.217   4.125   1.985 -0.2098  1.9010  0.8928
 7579TIP3    H244229   1.110   4.040   1.921  1.5651  1.7152 -1.9731
 7580TIP3   OH244230   1.823   1.789   3.923 -0.3996  0.1790  0.2017
 7580TIP3    H144231   1.887   1.719   3.913 -0.9633 -0.3586  0.2707
 7580TIP3    H244232   1.801   1.815   3.833 -0.2383  0.2260  0.1753
 7581TIP3   OH244233   1.937   1.731  13.817 -0.2383  0.1740 -0.3030
 7581TIP3    H144234   2.015   1.688  13.850  0.4957 -0.1190 -2.2978
 7581TIP3    H244235   1.889   1.662  13.770 -0.3005  0.9406 -1.4131
 7582TIP3   OH244236   3.960   5.158  16.832  0.2422 -0.0328  0.4775
 7582TIP3    H144237   4.024   5.211  16.880 -0.6703 -0.3395  2.1036
 7582TIP3    H244238   3.902   5.222  16.791  0.5074  0.2356  0.5157
 7583TIP3   OH244239   4.903   1.360   3.160 -1.0425  0.0890 -0.5276
 7583TIP3    H144240   4.953   1.280   3.176 -1.6651 -0.4612 -1.2610
 7583TIP3    H244241   4.936   1.392   3.076 -0.7928  0.6163 -0.2346
 7584TIP3   OH244242   0.803   0.981  15.574 -0.7972  0.2438 -0.1420
 7584TIP3    H144243   0.867   0.935  15.520 -0.4481 -0.2981  0.7202
 7584TIP3    H244244   0.722   0.933  15.561 -0.3455 -0.9154  1.0771
 7585TIP3   OH244245   3.023   4.111  14.355 -0.2129  0.1275 -0.1569
 7585TIP3    H144246   2.955   4.103  14.288  0.7726  2.4117 -1.5570
 7585TIP3    H244247   3.102   4.136  14.306  0.6211  1.6143  1.8060
 7586TIP3   OH244248   6.628   2.702   5.266 -0.0567 -0.5443 -0.2327
 7586TIP3    H144249   6.592   2.785   5.299 -1.0990 -0.5022 -1.4236
 7586TIP3    H244250   6.558   2.639   5.278  0.6940 -1.2630  0.5536
 7587TIP3   OH244251   3.600   3.369   1.551 -0.0585 -0.5555 -0.2330
 7587TIP3    H144252   3.598   3.382   1.646 -0.2110 -1.0728 -0.1586
 7587TIP3    H244253   3.691   3.344   1.533  0.2486  0.6176 -0.3848
 7588TIP3   OH244254   3.254   5.556  13.202 -0.3588  0.0423 -0.2691
 7588TIP3    H144255   3.349   5.567  13.208 -0.5767  1.5609  1.4204
 7588TIP3    H244256   3.237   5.473  13.246  0.0913  0.4632  0.7404
 7589TIP3   OH244257   0.590   1.845   4.633 -0.4224 -0.7634 -0.0155
 7589TIP3    H144258   0.514   1.894   4.662 -0.8265 -1.8399  0.8036
 7589TIP3    H244259   0.635   1.820   4.714  0.6039 -0.4575 -0.4733
 7590TIP3   OH244260   1.131   2.510  11.154 -0.1695 -0.0911 -0.3157
 7590TIP3    H144261   1.131   2.584  11.093  2.9544  0.6787  0.4526
 7590TIP3    H244262   1.200   2.452  11.121 -0.9200 -1.4791  0.4773
 7591TIP3   OH244263   1.252   6.363  12.521 -0.4635 -0.3618 -0.6831
 7591TIP3    H144264   1.227   6.411  12.599  1.4185  0.6446 -0.6450
 7591TIP3    H244265   1.237   6.424  12.449  1.5908  0.2263 -0.6704
 7592TIP3   OH244266   5.078   0.593  16.744 -0.0309 -0.1121  0.0050
 7592TIP3    H144267   5.027   0.610  16.823  0.5643  1.6613  0.0457
 7592TIP3    H244268   5.020   0.539  16.689 -1.4580  0.7994  0.5674
 7593TIP3   OH244269   0.914   2.230  16.191  0.2153  0.3443  0.0965
 7593TIP3    H144270   0.838   2.195  16.145  0.0783 -0.3520  0.8370
 7593TIP3    H244271   0.896   2.323  16.200 -2.2907 -0.2927  3.4236
 7594TIP3   OH244272   0.280   3.259  16.227 -0.2938 -0.2994 -0.1833
 7594TIP3    H144273   0.331   3.225  16.301 -0.8107 -1.8815 -0.5098
 7594TIP3    H244274   0.336   3.247  16.151  0.1019  1.0168 -0.1300
 7595TIP3   OH244275   3.532   5.321   4.285  0.4923 -0.4608  0.2358
 7595TIP3    H144276   3.507   5.292   4.197 -0.0505 -3.0048  1.1160
 7595TIP3    H244277   3.614   5.275   4.303  1.8805  1.9012  0.2179
 7596TIP3   OH244278   0.941   1.149   1.908  0.3910  0.1975 -0.1086
 7596TIP3    H144279   1.029   1.154   1.945  0.9514  2.0122 -1.5318
 7596TIP3    H244280   0.950   1.182   1.819 -2.0079  2.1434  0.2482
 7597TIP3   OH244281   5.747   4.031   4.158 -0.6550 -0.1343 -0.3815
 7597TIP3    H144282   5.745   3.952   4.103 -1.7649 -2.3086  2.5148
 7597TIP3    H244283   5.659   4.068   4.150 -0.6382 -0.1184 -0.4971
 7598TIP3   OH244284   6.509   5.898   0.726  0.3365  0.1203 -0.4804
 7598TIP3    H144285   6.449   5.970   0.746  0.3778  0.0819 -0.2168
 7598TIP3    H244286   6.593   5.942   0.710  0.0587  0.2430 -1.6566
 7599TIP3   OH244287   0.508   1.572   2.151  0.2659  0.0592  0.3956
 7599TIP3    H144288   0.515   1.502   2.217  1.3970  0.6308  0.8965
 7599TIP3    H244289   0.576   1.635   2.175  0.6786  0.3024 -1.3029
 7600TIP3   OH244290   4.014   1.065  12.285  0.1914  0.2224 -0.5580
 7600TIP3    H144291   4.062   1.136  12.328 -0.8495  0.7569 -0.2404
 7600TIP3    H244292   4.074   0.991  12.286  1.1253  0.9718 -0.4725
 7601TIP3   OH244293   0.567   0.710  12.780  0.0156  0.4313  0.1316
 7601TIP3    H144294   0.474   0.700  12.759  0.0914  0.6820 -0.3324
 7601TIP3    H244295   0.579   0.659  12.860 -0.0756 -1.3264 -0.9122
 7602TIP3   OH244296   0.762   0.663   1.699  0.3776  0.1860 -0.1735
 7602TIP3    H144297   0.795   0.580   1.663  0.2629  0.8256 -1.8849
 7602TIP3    H244298   0.668   0.649   1.708  0.2204  0.3894 -1.3190
 7603TIP3   OH244299   0.895   6.689  10.994  0.4521  0.1268  0.0812
 7603TIP3    H144300   0.868   6.774  10.959 -0.7667  0.6483  2.1355
 7603TIP3    H244301   0.862   6.688  11.084  1.3000 -2.1309  0.4396
 7604TIP3   OH244302   5.569   6.550   0.191  0.0435  0.0567 -0.3933
 7604TIP3    H144303   5.483   6.512   0.174  0.8752 -1.1495 -2.1359
 7604TIP3    H244304   5.563   6.638   0.154 -0.9517  0.6397  1.0475
 7605TIP3   OH244305   2.640   3.658   1.191  0.4409 -0.3761 -0.1088
 7605TIP3    H144306   2.718   3.712   1.207  0.0747  0.1404 -0.0547
 7605TIP3    H244307   2.583   3.675   1.265 -0.3326  0.3637 -0.8428
 7606TIP3   OH244308   3.145   0.012  16.624  0.6163 -0.1579  0.0922
 7606TIP3    H144309   3.116   0.024  16.533  1.7132  1.4519 -0.0903
 7606TIP3    H244310   3.103   0.084  16.671  2.6770  1.0632  0.1764
 7607TIP3   OH244311   4.471   6.154  14.612 -0.3761  0.7551  0.1837
 7607TIP3    H144312   4.449   6.130  14.523 -0.8919 -0.6608  0.6632
 7607TIP3    H244313   4.566   6.145  14.617 -0.3719  0.6208 -0.1457
 7608TIP3   OH244314   0.707   1.661  11.824  0.3444  0.3343  0.6769
 7608TIP3    H144315   0.623   1.706  11.835 -0.0921 -0.2799 -0.0358
 7608TIP3    H244316   0.727   1.625  11.910  0.0789  0.8238  0.9482
 7609TIP3   OH244317   1.582   0.334  17.058 -0.0396 -0.3214  1.4139
 7609TIP3    H144318   1.524   0.398  17.016 -0.7558 -1.4422  0.6464
 7609TIP3    H244319   1.539   0.312  17.140  0.4529  0.5252  1.9116
 7610TIP3   OH244320   2.460   1.486  15.063 -0.5316 -0.4003  0.0145
 7610TIP3    H144321   2.505   1.403  15.048 -1.1537 -0.4485 -1.7666
 7610TIP3    H244322   2.372   1.461  15.090 -1.2802 -0.3871 -2.2465
 7611TIP3   OH244323   6.766   5.917  14.420 -0.1815 -0.6814  0.4241
 7611TIP3    H144324   6.822   5.964  14.481  0.6838  1.2386 -1.7202
 7611TIP3    H244325   6.697   5.979  14.398 -0.3851 -1.2697 -0.6586
 7612TIP3   OH244326   1.191   4.576  11.505  0.3804  0.6985  0.2363
 7612TIP3    H144327   1.144   4.514  11.561 -0.6944  2.7491  1.7042
 7612TIP3    H244328   1.155   4.661  11.527  3.1136  2.1141 -0.3506
 7613TIP3   OH244329   3.547   3.345   0.765  0.4856  0.1453  0.5704
 7613TIP3    H144330   3.524   3.319   0.854  0.4254  1.0574  0.8374
 7613TIP3    H244331   3.477   3.310   0.711  0.7134 -0.7293  0.8318
 7614TIP3   OH244332   5.690   6.796  11.460  0.3443 -0.4508 -0.0956
 7614TIP3    H144333   5.659   6.733  11.525  1.8122 -1.7837 -0.6193
 7614TIP3    H244334   5.751   6.852  11.509 -0.2623  0.0047  0.1589
 7615TIP3   OH244335   5.324   5.022   2.920  0.0619 -0.4492 -0.2798
 7615TIP3    H144336   5.316   4.960   2.993 -0.0670 -0.7638 -0.5615
 7615TIP3    H244337   5.305   5.107   2.960 -0.4936 -0.6763 -0.0437
 7616TIP3   OH244338   0.314   2.712  14.690  0.0338  0.6623  0.9291
 7616TIP3    H144339   0.324   2.620  14.666 -1.3414  0.8400 -0.5877
 7616TIP3    H244340   0.272   2.710  14.776  1.7529 -0.0782  1.7864
 7617TIP3   OH244341   2.601   1.693   6.320  0.4156  0.1741 -0.1367
 7617TIP3    H144342   2.574   1.735   6.401 -2.0931  1.1724 -1.3628
 7617TIP3    H244343   2.541   1.618   6.311  1.2417 -0.4417 -0.6419
 7618TIP3   OH244344   4.668   0.209   4.690  0.2584  0.4405  0.0225
 7618TIP3    H144345   4.660   0.146   4.761  2.9251 -0.0495 -0.0124
 7618TIP3    H244346   4.725   0.277   4.725 -1.5835  2.2653 -0.3681
 7619TIP3   OH244347   0.804   3.054  11.033  0.2633  0.1089 -0.6029
 7619TIP3    H144348   0.727   3.053  11.090  0.4021  1.0794 -0.3699
 7619TIP3    H244349   0.810   2.966  10.998 -0.4843 -0.1939  0.0125
 7620TIP3   OH244350   0.385   5.679   6.234  0.0338  0.4040  0.4588
 7620TIP3    H144351   0.445   5.604   6.243 -0.8800 -0.3966  0.1186
 7620TIP3    H244352   0.306   5.641   6.196 -0.1981  1.6772 -0.3845
 7621TIP3   OH244353   2.851   1.505  15.966 -0.3184  0.4376  0.5919
 7621TIP3    H144354   2.901   1.542  15.892 -0.2571 -2.0225 -0.6812
 7621TIP3    H244355   2.895   1.422  15.985 -2.6003 -0.7741  0.8791
 7622TIP3   OH244356   1.833   1.392  11.097 -0.1330 -0.2733 -0.8239
 7622TIP3    H144357   1.767   1.459  11.080 -0.5779 -0.8162 -1.3033
 7622TIP3    H244358   1.914   1.427  11.060 -0.2338  0.2390 -0.5627
 7623TIP3   OH244359   2.499   5.225   3.394 -0.1711  0.1786 -0.7091
 7623TIP3    H144360   2.490   5.135   3.363  1.0783  0.7243 -2.9175
 7623TIP3    H244361   2.581   5.227   3.442 -1.7698 -0.5066  2.2695
 7624TIP3   OH244362   2.091   0.348  16.657 -0.2459  0.4225 -0.7528
 7624TIP3    H144363   2.100   0.385  16.569 -2.6685 -0.3281 -1.3886
 7624TIP3    H244364   1.997   0.348  16.673  0.0785 -0.3607  1.4779
 7625TIP3   OH244365   3.821   5.948   0.675 -0.1520  0.5254 -0.4711
 7625TIP3    H144366   3.905   5.980   0.643  0.9782  0.0267  1.8135
 7625TIP3    H244367   3.831   5.853   0.677 -1.4195  0.3208 -1.7413
 7626TIP3   OH244368   3.862   2.947   4.440  0.0157  0.0129 -0.0866
 7626TIP3    H144369   3.924   2.876   4.458  0.1115  0.1428  0.0941
 7626TIP3    H244370   3.916   3.021   4.414 -0.0639  0.1211  0.0559
 7627TIP3   OH244371   4.512   5.216  14.937 -0.4127 -0.6675 -0.3753
 7627TIP3    H144372   4.554   5.135  14.905 -0.4746 -1.7051  1.9717
 7627TIP3    H244373   4.438   5.185  14.990  0.6092  0.7879  2.0685
 7628TIP3   OH244374   3.791   5.183   0.101 -0.1163  0.2038  0.4710
 7628TIP3    H144375   3.806   5.278   0.102 -0.9541  0.3425  0.7038
 7628TIP3    H244376   3.744   5.167   0.019 -1.5335  0.2567  1.2430
 7629TIP3   OH244377   6.133   0.329  17.046 -0.5526  0.1342 -0.2908
 7629TIP3    H144378   6.176   0.336  17.132 -1.3424 -0.3368  0.1541
 7629TIP3    H244379   6.193   0.373  16.986  0.0146  0.4721  0.5012
 7630TIP3   OH244380   5.111   4.271   5.516  0.1160 -0.1241  0.1943
 7630TIP3    H144381   5.167   4.265   5.439  0.8654  0.9407  0.6410
 7630TIP3    H244382   5.171   4.282   5.590 -0.6529  0.9958  0.6897
 7631TIP3   OH244383   3.693   5.416  16.924 -0.1436  0.2002 -0.7794
 7631TIP3    H144384   3.738   5.414  16.839 -1.1062 -1.2154 -1.2912
 7631TIP3    H244385   3.614   5.466  16.908  0.3568  1.1638 -0.3273
 7632TIP3   OH244386   2.958   5.674  16.612 -0.8416 -0.1436 -0.5151
 7632TIP3    H144387   2.891   5.615  16.578 -1.0282  0.2691 -0.8838
 7632TIP3    H244388   3.032   5.618  16.634 -0.7201 -0.4298 -1.5986
 7633TIP3   OH244389   1.466   4.966   0.255  0.0361 -0.2884  0.2142
 7633TIP3    H144390   1.423   4.913   0.322 -1.3320  0.1551 -0.2837
 7633TIP3    H244391   1.439   5.056   0.274 -0.2399 -0.1393 -0.8287
 7634TIP3   OH244392   6.616   5.953  12.680  0.3072  0.0906  0.0718
 7634TIP3    H144393   6.681   5.935  12.748  1.5275  1.7349 -0.6117
 7634TIP3    H244394   6.532   5.932  12.722  1.0908  0.1793  1.7697
 7635TIP3   OH244395   2.837   3.643  15.762  0.6033  0.1921 -0.2712
 7635TIP3    H144396   2.743   3.632  15.773  0.6833 -0.4282 -0.1401
 7635TIP3    H244397   2.849   3.735  15.740 -0.1165  0.0591 -1.2273
 7636TIP3   OH244398   0.900   1.930  14.325  0.1120  0.1296  0.3189
 7636TIP3    H144399   0.812   1.964  14.311 -0.1499 -0.1693  1.1854
 7636TIP3    H244400   0.917   1.873  14.250  0.0546  1.1515 -0.4890
 7637TIP3   OH244401   1.703   3.940  11.218  0.4290  0.7600  0.3527
 7637TIP3    H144402   1.792   3.936  11.186  0.6372  1.1542  0.8553
 7637TIP3    H244403   1.653   3.979  11.146  0.7427  0.9343  0.2288
 7638TIP3   OH244404   1.757   1.220   2.600  0.5400  0.3417 -0.3865
 7638TIP3    H144405   1.672   1.263   2.595  0.3349 -0.0945 -0.7970
 7638TIP3    H244406   1.754   1.153   2.531  0.9857 -0.0844  0.0006
 7639TIP3   OH244407   2.753   6.198  12.441  0.3428  0.0411  0.1282
 7639TIP3    H144408   2.683   6.167  12.384  0.3775  1.0673 -0.4868
 7639TIP3    H244409   2.717   6.191  12.529 -0.4479  0.3532 -0.1681
 7640TIP3   OH244410   1.690   4.828   0.160  0.3948 -0.3320 -0.4338
 7640TIP3    H144411   1.629   4.887   0.206 -1.7651 -0.2674 -3.1595
 7640TIP3    H244412   1.650   4.742   0.167  1.2965 -0.7437 -0.1860
 7641TIP3   OH244413   2.071   1.398   5.223  0.3243  0.1133 -0.0741
 7641TIP3    H144414   2.102   1.344   5.295 -1.1954  0.3831  0.8403
 7641TIP3    H244415   1.978   1.413   5.243  0.1032  0.9914 -1.5947
 7642TIP3   OH244416   5.226   6.282  11.848  0.2752 -0.1359  0.0716
 7642TIP3    H144417   5.215   6.367  11.892 -0.2868 -0.3418  0.3275
 7642TIP3    H244418   5.301   6.242  11.891  0.1041 -0.0716  0.4282
 7643TIP3   OH244419   0.134   4.251  13.899 -0.0775 -0.7140 -0.2419
 7643TIP3    H144420   0.178   4.193  13.836  0.2121  0.3829 -1.0647
 7643TIP3    H244421   0.203   4.274  13.961 -0.4314 -2.0367  0.7096
 7644TIP3   OH244422   4.175   2.941   4.297  0.3238 -0.0558 -0.0874
 7644TIP3    H144423   4.129   2.860   4.316 -1.0245  0.5835 -0.5235
 7644TIP3    H244424   4.200   2.976   4.383 -0.3994 -0.1977  0.1821
 7645TIP3   OH244425   2.906   6.304  16.535  0.2662  0.0306  0.0411
 7645TIP3    H144426   2.910   6.208  16.545 -2.5007 -0.5961 -3.0994
 7645TIP3    H244427   2.835   6.331  16.594  0.1916 -0.0313 -0.0202
 7646TIP3   OH244428   6.307   0.202  15.362 -0.4474  0.4812  0.1020
 7646TIP3    H144429   6.235   0.200  15.424 -2.0177  1.0668 -1.5946
 7646TIP3    H244430   6.364   0.273  15.394 -0.0817 -0.5868  1.9619
 7647TIP3   OH244431   0.843   6.517  16.117 -0.0574  0.3204 -0.5682
 7647TIP3    H144432   0.804   6.575  16.183  1.5659  1.4196 -0.5001
 7647TIP3    H244433   0.885   6.577  16.056 -0.7887 -0.7218 -2.1414
 7648TIP3   OH244434   3.160   1.084  13.876 -0.1656  0.1189 -0.0797
 7648TIP3    H144435   3.115   1.117  13.954  0.5739  0.8865  0.0311
 7648TIP3    H244436   3.090   1.052  13.820 -0.7547  0.1119  0.6441
 7649TIP3   OH244437   6.200   6.735  10.830 -0.1532  0.0652  0.4285
 7649TIP3    H144438   6.256   6.748  10.753 -0.2063 -1.1447  0.1614
 7649TIP3    H244439   6.119   6.781  10.808 -0.8161 -1.6914 -1.0211
 7650TIP3   OH244440   0.430   3.193   5.375  0.2573  0.1953  0.1714
 7650TIP3    H144441   0.423   3.259   5.444 -1.8088  0.8244 -0.5565
 7650TIP3    H244442   0.412   3.110   5.419 -0.9968  0.5867  0.4348
 7651TIP3   OH244443   6.112   6.642  11.081  0.1302  0.2640 -0.2329
 7651TIP3    H144444   6.169   6.687  11.018 -0.9133  0.2482 -1.2082
 7651TIP3    H244445   6.060   6.582  11.028 -0.6204  0.0906  0.6804
 7652TIP3   OH244446   3.345   1.279  13.785  0.7767 -0.3745 -0.1684
 7652TIP3    H144447   3.405   1.255  13.857  0.4959 -1.1089 -0.1710
 7652TIP3    H244448   3.275   1.214  13.791  0.9773 -0.7210 -1.3911
 7653TIP3   OH244449   3.903   4.743   1.609 -0.6022  0.5148  0.1758
 7653TIP3    H144450   3.821   4.698   1.630 -0.0801 -0.7694 -0.4606
 7653TIP3    H244451   3.930   4.707   1.525  1.1521  0.1409  0.8621
 7654TIP3   OH244452   2.226   5.732   4.544  0.1810 -0.8998  0.1376
 7654TIP3    H144453   2.306   5.680   4.546  1.0745  0.2233 -2.1263
 7654TIP3    H244454   2.254   5.819   4.573 -0.0973 -0.3958 -1.0652
 7655TIP3   OH244455   0.443   3.972   5.668 -0.4547 -0.1328  0.4827
 7655TIP3    H144456   0.505   4.004   5.603  0.3373 -0.9402  0.8221
 7655TIP3    H244457   0.361   3.960   5.619  0.4798 -2.1020 -0.7642
 7656TIP3   OH244458   1.845   1.286   2.240 -0.0624 -0.1021  0.3371
 7656TIP3    H144459   1.868   1.350   2.307  1.2244  0.1439 -0.2924
 7656TIP3    H244460   1.828   1.205   2.289  0.2073  0.2402  1.0118
 7657TIP3   OH244461   1.898   3.905  12.944  0.0884 -0.0293  0.0985
 7657TIP3    H144462   1.873   3.836  12.883  0.8900 -0.5647  0.3656
 7657TIP3    H244463   1.987   3.928  12.919  0.9967 -1.2831  1.9504
 7658TIP3   OH244464   5.044   2.538   1.493 -0.7003 -0.2060 -0.4163
 7658TIP3    H144465   5.097   2.459   1.487 -1.1323 -0.4379 -1.3344
 7658TIP3    H244466   5.028   2.550   1.587 -1.7177 -1.9326 -0.3453
 7659TIP3   OH244467   5.965   1.175  10.910  0.2742 -0.5757 -0.7343
 7659TIP3    H144468   6.025   1.204  10.979  0.6033 -0.3089 -1.1247
 7659TIP3    H244469   5.878   1.201  10.941  0.6000  1.4133 -1.3179
 7660TIP3   OH244470   1.732   0.587   5.292 -0.0596  0.1535 -0.0945
 7660TIP3    H144471   1.814   0.538   5.301 -1.1137 -1.7673 -0.4308
 7660TIP3    H244472   1.677   0.555   5.364 -0.8519  0.7330 -0.4287
 7661TIP3   OH244473   1.755   6.546  16.260 -0.3409  0.0711 -0.4700
 7661TIP3    H144474   1.804   6.481  16.310 -0.6264 -0.2479 -0.5974
 7661TIP3    H244475   1.664   6.515  16.264 -0.2808 -0.3316 -1.7505
 7662TIP3   OH244476   2.698   5.283  14.348 -0.4558 -0.2126 -0.3459
 7662TIP3    H144477   2.625   5.337  14.317 -2.0243 -1.2450  1.4006
 7662TIP3    H244478   2.735   5.332  14.421 -0.3416 -0.3989 -0.2785
 7663TIP3   OH244479   3.401   0.630  16.136  0.3767 -0.3268 -0.2810
 7663TIP3    H144480   3.485   0.589  16.117  0.9849  0.3289  0.8667
 7663TIP3    H244481   3.398   0.636  16.231 -0.6010  0.4003 -0.3369
 7664TIP3   OH244482   5.214   0.573   1.134  0.0701  0.1486  0.5751
 7664TIP3    H144483   5.283   0.613   1.082  0.1327  0.7058  1.0762
 7664TIP3    H244484   5.148   0.547   1.070  0.5566 -0.0120  0.1335
 7665TIP3   OH244485   4.090   1.569  12.686  0.1282  0.3062  0.2738
 7665TIP3    H144486   4.058   1.500  12.744 -0.6112 -0.7247 -1.2842
 7665TIP3    H244487   4.087   1.648  12.739  0.9486 -0.8345  2.1013
 7666TIP3   OH244488   4.350   5.916   4.656 -0.0668 -0.2151  0.3727
 7666TIP3    H144489   4.403   5.838   4.641 -1.7707 -1.3453 -0.0334
 7666TIP3    H244490   4.260   5.884   4.662 -0.6033  1.4261  2.5791
 7667TIP3   OH244491   1.188   5.366  15.146  0.0668  0.3432 -0.6124
 7667TIP3    H144492   1.242   5.441  15.122  0.0683  0.8278  0.8445
 7667TIP3    H244493   1.103   5.383  15.106  0.0393  1.1818 -0.2105
 7668TIP3   OH244494   2.974   2.690   5.970 -0.4717 -0.3038 -0.4695
 7668TIP3    H144495   2.943   2.766   6.021  0.3703 -1.8640  2.6456
 7668TIP3    H244496   2.927   2.616   6.008 -0.7500 -1.5047 -2.9692
 7669TIP3   OH244497   1.865   3.041  13.247 -0.3392  0.0956  0.2618
 7669TIP3    H144498   1.810   3.112  13.214  2.7184  1.6249 -2.1686
 7669TIP3    H244499   1.904   3.076  13.327 -0.0269  0.5600 -0.0887
 7670TIP3   OH244500   1.473   0.482   3.249  0.6549 -0.2914 -0.3070
 7670TIP3    H144501   1.536   0.531   3.197  0.8530 -0.5876 -0.3512
 7670TIP3    H244502   1.521   0.455   3.327 -0.0585  1.4603  0.7918
 7671TIP3   OH244503   6.713   3.207  13.075 -0.1858  0.4171 -0.0515
 7671TIP3    H144504   6.644   3.267  13.047 -1.1629 -0.6026  0.1037
 7671TIP3    H244505   6.674   3.120  13.067  1.3050 -0.2255 -0.5502
 7672TIP3   OH244506   1.572   3.301  10.947 -0.7648 -0.4408  0.2234
 7672TIP3    H144507   1.593   3.323  11.038 -1.4554 -0.0043  0.2832
 7672TIP3    H244508   1.624   3.223  10.929  1.3465  0.8999  0.1903
 7673TIP3   OH244509   5.678   0.628  12.863  0.8104  0.5559 -0.5891
 7673TIP3    H144510   5.617   0.628  12.789  1.8340  2.1453 -1.5062
 7673TIP3    H244511   5.621   0.622  12.941 -0.3186 -0.6235 -1.4656
 7674TIP3   OH244512   2.486   1.764  16.505  0.3608  0.1554  0.4223
 7674TIP3    H144513   2.399   1.803  16.502  0.9096  1.3843 -1.0343
 7674TIP3    H244514   2.472   1.671  16.491 -0.7510  0.2646  0.7319
 7675TIP3   OH244515   1.565   1.015   0.409  0.1573  0.2760  0.2581
 7675TIP3    H144516   1.640   1.043   0.357  0.5092 -0.9460  0.0950
 7675TIP3    H244517   1.505   0.974   0.347  0.3538 -0.7353  0.7150
 7676TIP3   OH244518   6.341   4.781  13.474  0.0277 -0.5191 -0.1442
 7676TIP3    H144519   6.413   4.767  13.535 -0.2999 -0.4778  0.2584
 7676TIP3    H244520   6.363   4.862  13.429  0.0500 -0.3032  0.2490
 7677TIP3   OH244521   2.925   4.250  16.743  0.4677  1.4445  0.2217
 7677TIP3    H144522   2.959   4.186  16.806 -1.0791 -0.1671 -0.4749
 7677TIP3    H244523   2.944   4.211  16.658  2.0572  3.3462 -0.3758
 7678TIP3   OH244524   1.184   5.144  14.063  0.0030  0.6352  0.2087
 7678TIP3    H144525   1.095   5.117  14.039  0.1079  0.7941 -0.3568
 7678TIP3    H244526   1.191   5.234  14.033  0.3317  0.6506  0.3236
 7679TIP3   OH244527   3.364   2.478  14.405 -0.5367 -0.0466 -0.3109
 7679TIP3    H144528   3.331   2.494  14.316 -3.1327  2.5236  0.9571
 7679TIP3    H244529   3.294   2.428  14.448 -0.7066  1.3472  1.1053
 7680TIP3   OH244530   4.332   2.808  16.857 -0.1227 -0.8705 -0.3186
 7680TIP3    H144531   4.260   2.820  16.919  1.2056  1.9061  0.8902
 7680TIP3    H244532   4.294   2.756  16.786 -2.7551 -1.0907  1.1008
 7681TIP3   OH244533   5.150   4.724  11.991  0.2067  0.6485 -0.3988
 7681TIP3    H144534   5.072   4.759  11.948  1.0696  1.9023 -0.9785
 7681TIP3    H244535   5.205   4.800  12.007  0.2209  0.1670  2.3863
 7682TIP3   OH244536   6.782   1.814   0.197  0.5036  0.2393 -0.4134
 7682TIP3    H144537   6.769   1.905   0.168  0.0731 -0.0728 -1.2159
 7682TIP3    H244538   6.861   1.786   0.153 -0.3568 -0.3591 -1.6376
 7683TIP3   OH244539   5.077   3.528  15.868 -0.0660 -0.2456 -0.8487
 7683TIP3    H144540   5.083   3.623  15.860  1.3774 -0.1169  1.1518
 7683TIP3    H244541   5.004   3.513  15.928  1.6769 -0.1802  1.3989
 7684TIP3   OH244542   1.043   0.275  12.519  0.1062  0.0644 -0.0722
 7684TIP3    H144543   1.054   0.358  12.567 -0.0360  0.9605 -1.5232
 7684TIP3    H244544   0.950   0.271  12.499  0.0634 -0.6030  0.2548
 7685TIP3   OH244545   0.125   2.580  14.900  0.2286  1.3090 -0.5606
 7685TIP3    H144546   0.063   2.584  14.973 -1.4356 -2.2211 -1.5691
 7685TIP3    H244547   0.085   2.634  14.832  0.5704  2.6476  0.2727
 7686TIP3   OH244548   1.582   5.277   0.772  0.5786 -0.0139  0.0222
 7686TIP3    H144549   1.622   5.206   0.822  3.4710 -0.7158 -2.9753
 7686TIP3    H244550   1.521   5.234   0.713  0.3855  0.3151 -0.0186
 7687TIP3   OH244551   3.419   4.013  16.964 -0.2042  0.0014  0.1212
 7687TIP3    H144552   3.332   3.973  16.964  0.2204 -0.9545 -0.6322
 7687TIP3    H244553   3.402   4.108  16.968 -1.2850 -0.1510 -0.4653
 7688TIP3   OH244554   2.177   2.054  15.959 -0.0671  0.2252  0.3339
 7688TIP3    H144555   2.168   1.983  15.895 -0.3587  0.5801 -0.0240
 7688TIP3    H244556   2.267   2.084  15.950  0.2982 -0.6156  1.0395
 7689TIP3   OH244557   5.248   0.738  13.055  0.0004  0.1636  0.2236
 7689TIP3    H144558   5.277   0.823  13.088 -0.0326 -0.7078  2.7144
 7689TIP3    H244559   5.166   0.722  13.101  1.3914 -2.4122  2.0160
 7690TIP3   OH244560   6.386   2.537  16.166 -0.0060 -0.2189  0.1289
 7690TIP3    H144561   6.455   2.513  16.104 -0.1139 -0.6822  0.1874
 7690TIP3    H244562   6.357   2.624  16.137  0.5918 -0.0292  0.0982
 7691TIP3   OH244563   0.117   2.436   4.414  0.2308 -0.6271  0.3219
 7691TIP3    H144564   0.026   2.467   4.407  0.1757 -0.3965  1.7121
 7691TIP3    H244565   0.113   2.344   4.389  0.0001 -0.1169 -1.6658
 7692TIP3   OH244566   6.243   1.169   4.896  0.1809 -0.1488 -0.1899
 7692TIP3    H144567   6.242   1.204   4.985  0.6667 -1.4417  0.3418
 7692TIP3    H244568   6.216   1.078   4.905 -0.1147 -0.2025 -1.4159
 7693TIP3   OH244569   0.407   4.031   6.582 -0.2720  0.4487 -0.0470
 7693TIP3    H144570   0.419   4.114   6.536  0.1263  0.4689  0.0874
 7693TIP3    H244571   0.368   3.973   6.517  0.4789  0.4174 -0.4880
 7694TIP3   OH244572   5.413   0.366  13.761  0.0540  0.8391  0.0811
 7694TIP3    H144573   5.330   0.365  13.713 -1.3407  1.3005  2.3757
 7694TIP3    H244574   5.480   0.353  13.693 -1.8019  1.4580 -1.9668
 7695TIP3   OH244575   1.545   6.345  12.421 -0.0838  0.4503 -0.3072
 7695TIP3    H144576   1.560   6.277  12.487  0.8444  0.3654 -0.5939
 7695TIP3    H244577   1.458   6.379  12.442 -0.3698 -0.5010  0.1246
 7696TIP3   OH244578   0.334   2.599  16.716 -0.1308 -0.0866  0.4445
 7696TIP3    H144579   0.412   2.615  16.663  0.4798  1.5553  1.7590
 7696TIP3    H244580   0.347   2.653  16.794 -1.2787 -1.9488  2.0035
 7697TIP3   OH244581   1.851   5.264   2.183  0.6091 -0.5304 -0.4066
 7697TIP3    H144582   1.798   5.188   2.209 -2.3810  2.1489  2.1606
 7697TIP3    H244583   1.809   5.297   2.104 -0.5873  0.6086  0.6680
 7698TIP3   OH244584   4.592   2.770  16.885  0.2776 -0.0569 -0.0248
 7698TIP3    H144585   4.603   2.803  16.796 -0.0445  3.5193  1.0935
 7698TIP3    H244586   4.498   2.773  16.900  0.3939  0.0992  0.6928
 7699TIP3   OH244587   3.585   1.533   0.074  0.1008  0.2455  0.5668
 7699TIP3    H144588   3.623   1.531   0.161  0.3731  0.1491  0.4460
 7699TIP3    H244589   3.639   1.473   0.022 -1.0653 -1.0045  0.7388
 7700TIP3   OH244590   2.358   4.126  12.183 -0.8191  0.1478  0.0271
 7700TIP3    H144591   2.293   4.171  12.236 -1.4233 -1.2402  0.5117
 7700TIP3    H244592   2.319   4.040  12.166  1.1246 -0.9420  0.8194
 7701TIP3   OH244593   1.581   2.780   3.442  0.2961 -0.3812 -0.8804
 7701TIP3    H144594   1.499   2.756   3.485  0.4594  0.0864 -0.3013
 7701TIP3    H244595   1.555   2.811   3.355  0.0172 -1.9464 -1.3930
 7702TIP3   OH244596   6.170   3.232  12.511  0.6823 -0.2926  0.3674
 7702TIP3    H144597   6.235   3.209  12.577  1.7942  0.8809 -0.2755
 7702TIP3    H244598   6.153   3.325  12.525 -1.1601 -0.6362  0.7434
 7703TIP3   OH244599   6.311   5.450  10.575  0.6511 -0.8129  0.4881
 7703TIP3    H144600   6.398   5.490  10.570  0.1904  0.0786 -1.2930
 7703TIP3    H244601   6.327   5.356  10.564  1.3099 -0.5067 -1.7060
 7704TIP3   OH244602   1.984   3.687  15.420 -0.3379  0.1766 -0.1654
 7704TIP3    H144603   1.966   3.593  15.418  0.7285 -0.1293  1.8208
 7704TIP3    H244604   1.995   3.712  15.328 -0.3208 -1.7065 -0.7021
 7705TIP3   OH244605   1.603   6.288  14.611 -0.1883 -0.0045 -0.1376
 7705TIP3    H144606   1.629   6.217  14.670 -0.3301 -0.6893 -0.8809
 7705TIP3    H244607   1.648   6.269  14.529 -1.5585 -0.1869 -0.8780
 7706TIP3   OH244608   3.952   4.282  12.181  0.1591  0.2476 -0.4313
 7706TIP3    H144609   3.990   4.278  12.093  0.3591  0.7624 -0.3761
 7706TIP3    H244610   3.941   4.376  12.198 -0.1077  0.1425 -0.0061
 7707TIP3   OH244611   5.170   1.749   2.052 -0.3118  0.8857 -0.4399
 7707TIP3    H144612   5.183   1.662   2.014 -0.7783 -0.3537  2.0429
 7707TIP3    H244613   5.257   1.774   2.084 -0.6496  0.0714  1.2349
 7708TIP3   OH244614   4.940   0.756   1.075  0.3296  0.3026  0.4958
 7708TIP3    H144615   4.859   0.721   1.038 -0.3906  1.3962  0.9611
 7708TIP3    H244616   4.913   0.839   1.115  1.2171 -0.3515  2.6273
 7709TIP3   OH244617   1.011   4.326   2.423 -0.1276 -0.2982  0.2227
 7709TIP3    H144618   0.970   4.275   2.493 -2.5075  0.5464 -0.4545
 7709TIP3    H244619   0.979   4.286   2.342  0.2271  0.5166 -0.3346
 7710TIP3   OH244620   4.784   0.218  15.462 -0.2264  0.5121 -0.3646
 7710TIP3    H144621   4.869   0.182  15.439 -0.1836  0.3923 -0.0224
 7710TIP3    H244622   4.744   0.153  15.519 -1.1772 -0.1195 -1.7120
 7711TIP3   OH244623   3.336   1.989  15.020  0.1363 -0.2442 -0.3865
 7711TIP3    H144624   3.288   1.907  15.023 -1.0486  0.4453  1.7462
 7711TIP3    H244625   3.425   1.966  15.045 -0.1127 -0.9343 -0.1070
 7712TIP3   OH244626   3.737   1.131  14.884 -0.2192 -0.1370 -0.6757
 7712TIP3    H144627   3.747   1.131  14.789 -2.6050  0.7205 -0.9915
 7712TIP3    H244628   3.790   1.204  14.914  3.1750 -2.3043 -0.9051
 7713TIP3   OH244629   1.779   5.991  17.003  0.2868  0.1154 -0.5565
 7713TIP3    H144630   1.852   5.928  17.006  1.3531  1.3266  0.2363
 7713TIP3    H244631   1.702   5.938  16.983  1.6434 -0.9776 -3.4575
 7714TIP3   OH244632   1.652   6.223  14.038 -0.2100 -0.0718  0.1301
 7714TIP3    H144633   1.735   6.176  14.049 -1.1651 -2.3125 -1.3471
 7714TIP3    H244634   1.643   6.232  13.943 -0.3698  2.7274  0.3343
 7715TIP3   OH244635   0.351   4.363  16.405 -0.4296  0.1524 -0.5684
 7715TIP3    H144636   0.446   4.361  16.400 -0.3186 -0.2601  1.0807
 7715TIP3    H244637   0.329   4.456  16.415 -0.3566  0.4364 -2.5448
 7716TIP3   OH244638   2.573   6.302  16.003 -0.1977  0.0138 -0.6939
 7716TIP3    H144639   2.538   6.391  16.003  0.6471  0.3528 -1.2938
 7716TIP3    H244640   2.668   6.313  16.006 -0.0751 -0.8539 -1.1519
 7717TIP3   OH244641   1.856   4.855   4.460  0.6983  0.2331  0.1366
 7717TIP3    H144642   1.840   4.903   4.541  2.0396  0.6182  0.2014
 7717TIP3    H244643   1.775   4.864   4.409  0.9181  2.6522  0.1056
 7718TIP3   OH244644   4.395   2.259   3.894 -0.2830 -0.6547 -0.0095
 7718TIP3    H144645   4.459   2.232   3.828  1.1757 -2.2723  1.9520
 7718TIP3    H244646   4.413   2.352   3.908 -0.1457 -0.4580 -1.3454
 7719TIP3   OH244647   0.590   4.405   3.624 -0.1094 -0.3615  0.9922
 7719TIP3    H144648   0.589   4.453   3.541 -1.1181 -2.1866 -0.1092
 7719TIP3    H244649   0.682   4.406   3.650  0.1638  0.6354  0.0969
 7720TIP3   OH244650   0.277   6.438  13.111  0.0702 -0.2028  0.3637
 7720TIP3    H144651   0.343   6.385  13.068  0.5481 -0.0559  0.8982
 7720TIP3    H244652   0.204   6.378  13.128  0.8700 -0.8808  1.5815
 7721TIP3   OH244653   5.160   1.016   2.962 -1.0527 -0.0146  0.1244
 7721TIP3    H144654   5.182   1.031   3.054 -1.2805 -0.9673  0.3403
 7721TIP3    H244655   5.082   1.070   2.947  0.2525  1.8904 -0.1318
 7722TIP3   OH244656   5.003   4.401  14.113 -0.3287 -0.0774  0.2288
 7722TIP3    H144657   5.007   4.330  14.178  2.0910  1.8930  2.4728
 7722TIP3    H244658   4.984   4.479  14.165  1.5978  1.5851 -1.3820
 7723TIP3   OH244659   2.057   4.816   2.766  0.4753 -0.1678  0.1470
 7723TIP3    H144660   1.995   4.873   2.720 -0.0104  0.2617  1.2850
 7723TIP3    H244661   2.036   4.828   2.858 -0.0794 -2.7244  0.4208
 7724TIP3   OH244662   2.041   6.121  14.000 -0.0519  0.7332  0.4890
 7724TIP3    H144663   1.977   6.054  14.023  0.2936 -0.0875 -0.8750
 7724TIP3    H244664   2.069   6.157  14.085 -0.5322 -0.5569  1.2211
 7725TIP3   OH244665   4.320   5.265  13.001 -0.7126 -0.6310  0.0250
 7725TIP3    H144666   4.278   5.239  12.919 -0.7104  1.1526 -0.5949
 7725TIP3    H244667   4.250   5.309  13.050 -0.0111  1.0835 -0.4094
 7726TIP3   OH244668   5.520   1.405   1.591  0.5353  0.5416  0.0869
 7726TIP3    H144669   5.584   1.364   1.649  0.6655  0.8292  0.1500
 7726TIP3    H244670   5.475   1.332   1.548  0.8978  0.3378  0.0534
 7727TIP3   OH244671   5.989   4.063   0.966 -0.0134  0.2457 -0.1662
 7727TIP3    H144672   6.016   4.113   0.889  2.3838 -1.5883 -0.6442
 7727TIP3    H244673   6.049   4.091   1.035 -0.6375  0.1954  0.4069
 7728TIP3   OH244674   5.175   2.718  11.013  0.3774 -0.2843  0.2251
 7728TIP3    H144675   5.111   2.775  10.971 -0.9903 -2.8369 -1.3524
 7728TIP3    H244676   5.251   2.719  10.955  1.8681  2.5115  1.9518
 7729TIP3   OH244677   0.998   4.194   0.605 -0.0941 -0.2739 -0.3770
 7729TIP3    H144678   1.004   4.207   0.700  1.7397 -0.0268 -0.4842
 7729TIP3    H244679   0.940   4.263   0.575  0.8102  0.8411  0.3627
 7730TIP3   OH244680   4.898   2.709  16.887  0.2166  0.3620  0.5623
 7730TIP3    H144681   4.821   2.744  16.932  0.8164  0.4156  1.5852
 7730TIP3    H244682   4.887   2.614  16.890  1.0072  0.2884  2.2701
 7731TIP3   OH244683   6.625   6.018  14.088  0.0652  0.2922  0.3424
 7731TIP3    H144684   6.608   6.055  14.175  0.6261  1.8514 -0.1780
 7731TIP3    H244685   6.545   5.970  14.066  0.2445 -0.8893  2.0635
 7732TIP3   OH244686   4.132   0.806  12.594  0.6201  0.0210 -0.0711
 7732TIP3    H144687   4.148   0.839  12.506  1.8423  0.7257  0.3836
 7732TIP3    H244688   4.185   0.726  12.600  2.2362  1.0912  0.6688
 7733TIP3   OH244689   6.650   4.470  14.138 -0.1242  0.3670  0.0379
 7733TIP3    H144690   6.684   4.516  14.061  1.6463 -0.7138  0.1183
 7733TIP3    H244691   6.594   4.401  14.102  1.7807 -1.0176 -0.4361
 7734TIP3   OH244692   0.859   5.394   3.551 -0.9202  0.5297 -0.0166
 7734TIP3    H144693   0.882   5.302   3.539 -1.3905  0.5210 -0.9808
 7734TIP3    H244694   0.941   5.436   3.576 -1.3135 -0.6623  3.8540
 7735TIP3   OH244695   0.794   5.442   2.070 -0.4966  0.3854  0.2284
 7735TIP3    H144696   0.722   5.504   2.057 -1.4798 -0.1418  2.7399
 7735TIP3    H244697   0.753   5.364   2.104  1.0184 -0.8841 -0.7035
 7736TIP3   OH244698   2.244   5.953   3.878 -0.1608 -0.4113  0.3875
 7736TIP3    H144699   2.180   5.920   3.815 -0.1605 -1.1964  0.7848
 7736TIP3    H244700   2.192   5.976   3.955 -0.3333  1.7993 -0.3348
 7737TIP3   OH244701   1.679   0.351  11.813 -0.1138 -0.1586 -0.6152
 7737TIP3    H144702   1.640   0.434  11.840  0.5767  0.0321 -0.1689
 7737TIP3    H244703   1.653   0.289  11.881  0.1921 -0.0773 -0.4230
 7738TIP3   OH244704   4.306   6.687  16.233  0.2397 -0.2473 -0.5124
 7738TIP3    H144705   4.247   6.612  16.221 -0.4710  0.1565  0.4038
 7738TIP3    H244706   4.251   6.764  16.219  0.2581  0.1646  1.4032
 7739TIP3   OH244707   0.895   0.932   3.177 -0.3417  0.5181  0.3055
 7739TIP3    H144708   0.880   0.975   3.262  0.0775  3.7596 -1.1202
 7739TIP3    H244709   0.989   0.940   3.163 -0.5174  0.7412 -0.8071
 7740TIP3   OH244710   4.927   3.819   4.952  0.4913  0.0336 -0.5074
 7740TIP3    H144711   4.839   3.856   4.945  1.3516  2.2021 -0.7876
 7740TIP3    H244712   4.921   3.758   5.025 -0.7635  1.7617  0.9461
 7741TIP3   OH244713   0.924   0.613   4.232  0.0234  0.2695 -0.0707
 7741TIP3    H144714   0.872   0.638   4.309 -0.2900 -1.8365  0.4724
 7741TIP3    H244715   0.882   0.533   4.201  2.0936 -0.7207 -0.4651
 7742TIP3   OH244716   2.841   1.723  11.181  0.1481 -0.2141 -0.4989
 7742TIP3    H144717   2.928   1.683  11.172 -0.4620 -1.4099 -1.3096
 7742TIP3    H244718   2.856   1.815  11.160  1.6353  0.1060  1.6555
 7743TIP3   OH244719   0.019   4.129  12.520 -0.3823  0.2313  0.2976
 7743TIP3    H144720  -0.063   4.122  12.473 -0.4265 -0.7027  0.4807
 7743TIP3    H244721   0.038   4.039  12.549  0.7735  0.3988  0.1250
 7744TIP3   OH244722   2.082   6.168  16.310  0.6866 -0.5634 -0.2725
 7744TIP3    H144723   2.105   6.103  16.377  0.2087 -0.3122  0.1342
 7744TIP3    H244724   2.047   6.115  16.237 -1.3379 -0.6838  0.7163
 7745TIP3   OH244725   1.297   6.494  14.016 -0.7925  0.1283 -0.0805
 7745TIP3    H144726   1.323   6.580  13.984  0.1328 -0.0149  0.2663
 7745TIP3    H244727   1.331   6.490  14.106  1.0035 -1.3602 -0.7545
 7746TIP3   OH244728   3.902   0.469   1.770 -0.9359 -0.7949  0.0635
 7746TIP3    H144729   3.916   0.554   1.727 -0.5829 -0.8776  0.0145
 7746TIP3    H244730   3.807   0.464   1.781 -1.1021 -1.0177 -1.2185
 7747TIP3   OH244731   6.726   4.072  10.804 -0.1490  0.0732 -0.1405
 7747TIP3    H144732   6.751   4.146  10.748 -0.0814 -1.0811 -1.7020
 7747TIP3    H244733   6.740   3.995  10.749 -0.0493 -1.1309  1.5017
 7748TIP3   OH244734   4.385   5.132   4.305  0.5269 -0.0003  0.3694
 7748TIP3    H144735   4.374   5.066   4.236 -0.3564  0.3184  0.1936
 7748TIP3    H244736   4.377   5.082   4.387 -1.1778  0.0247  0.2443
 7749TIP3   OH244737   2.860   1.365   6.102 -0.2541  0.2062 -0.0488
 7749TIP3    H144738   2.899   1.334   6.184 -1.8640 -0.4462  0.5089
 7749TIP3    H244739   2.766   1.357   6.116 -0.5892  1.1224 -1.5813
 7750TIP3   OH244740   6.590   6.159   2.566 -0.1276 -0.2234  0.1020
 7750TIP3    H144741   6.570   6.127   2.478 -0.6564  0.3991 -0.0167
 7750TIP3    H244742   6.661   6.223   2.553  1.4509 -1.8347  0.4259
 7751TIP3   OH244743   2.804   5.739   4.064 -0.4812  0.2893  0.0362
 7751TIP3    H144744   2.825   5.696   3.980 -0.2819 -0.3490  0.4031
 7751TIP3    H244745   2.887   5.737   4.112 -0.5528  0.8104  0.1864
 7752TIP3   OH244746   1.357   4.793  14.482 -0.6601 -0.0837 -0.3796
 7752TIP3    H144747   1.364   4.833  14.395 -1.8753 -0.3839 -0.6320
 7752TIP3    H244748   1.283   4.733  14.475 -1.6706  0.8858  1.2190
 7753TIP3   OH244749   4.533   0.270  13.409  0.4089 -0.3331  0.6871
 7753TIP3    H144750   4.624   0.241  13.414  0.8225  1.0488  1.6526
 7753TIP3    H244751   4.501   0.234  13.326  1.4547 -1.8483  0.8953
 7754TIP3   OH244752   2.278   3.329   3.075  0.4007  0.4040 -0.1269
 7754TIP3    H144753   2.242   3.246   3.106  1.9018  0.2909  1.4587
 7754TIP3    H244754   2.233   3.345   2.991  0.7910 -2.5055 -1.0049
 7755TIP3   OH244755   1.691   6.578   0.873 -0.5721  0.1625 -0.1262
 7755TIP3    H144756   1.632   6.533   0.812  0.7134  0.1091 -1.3872
 7755TIP3    H244757   1.673   6.537   0.958  0.0969 -2.3384 -1.0870
 7756TIP3   OH244758   1.157   5.275  10.305  0.1283  0.2116  0.0992
 7756TIP3    H144759   1.176   5.368  10.291 -2.3582  0.5995 -1.3162
 7756TIP3    H244760   1.091   5.275  10.375 -0.9154 -0.3222 -0.8448
 7757TIP3   OH244761   5.506   6.365   5.114  0.0342 -0.0891 -0.0459
 7757TIP3    H144762   5.593   6.387   5.082 -0.5747  0.6909 -1.2178
 7757TIP3    H244763   5.493   6.422   5.190  0.0470  0.7045 -0.6373
 7758TIP3   OH244764   2.789   5.609   4.873  0.4548 -0.4109 -0.0814
 7758TIP3    H144765   2.749   5.526   4.846  0.3451 -0.2430 -0.4459
 7758TIP3    H244766   2.824   5.646   4.791  0.8281 -0.2724  0.1373
 7759TIP3   OH244767   5.712   5.905  16.578 -0.3248  0.2959 -0.2698
 7759TIP3    H144768   5.745   5.843  16.512 -0.2205  0.4504 -0.3639
 7759TIP3    H244769   5.667   5.850  16.641 -1.0859  0.2146 -0.8716
 7760TIP3   OH244770   3.565   5.149  13.017  0.0240 -0.1004 -0.2008
 7760TIP3    H144771   3.552   5.133  12.924  0.2365 -2.8217  0.1546
 7760TIP3    H244772   3.500   5.216  13.040 -2.6819 -2.0736 -1.5766
 7761TIP3   OH244773   0.076   4.154   5.433 -0.3279 -0.0785 -0.8257
 7761TIP3    H144774   0.124   4.197   5.362  0.2066 -1.8712 -1.6072
 7761TIP3    H244775   0.007   4.105   5.388 -1.2063  0.3006  0.0747
 7762TIP3   OH244776   4.238   4.540   3.651  0.5369  0.4176  0.0598
 7762TIP3    H144777   4.281   4.501   3.574  0.6117  0.0612  0.2764
 7762TIP3    H244778   4.230   4.467   3.713  0.9506  0.8134  0.5968
 7763TIP3   OH244779   3.769   3.556  16.495  0.5893 -1.0809 -0.6101
 7763TIP3    H144780   3.748   3.508  16.415 -0.9672  2.3164 -2.4175
 7763TIP3    H244781   3.816   3.634  16.465 -1.3312  1.0509  1.5769
 7764TIP3   OH244782   0.239   6.188  14.933  0.7182  0.3484 -0.6530
 7764TIP3    H144783   0.228   6.185  15.028  0.1420 -0.9717 -0.7407
 7764TIP3    H244784   0.318   6.240  14.920  0.8779  0.4386  0.5553
 7765TIP3   OH244785   2.872   0.388  11.646  0.1776 -0.2838  0.1333
 7765TIP3    H144786   2.869   0.476  11.610 -0.9596 -0.4067 -0.0944
 7765TIP3    H244787   2.913   0.399  11.732 -0.3306  0.5281  0.2823
 7766TIP3   OH244788   2.259   3.577   2.745  0.3386  0.2749 -0.3562
 7766TIP3    H144789   2.320   3.603   2.676 -1.3326  0.6295 -1.7602
 7766TIP3    H244790   2.254   3.481   2.737  0.7934  0.2313 -0.1479
 7767TIP3   OH244791   3.436   6.115   4.553  0.7929 -0.3378 -0.1055
 7767TIP3    H144792   3.409   6.206   4.568  0.7431 -0.2917 -0.4680
 7767TIP3    H244793   3.397   6.093   4.469 -0.1641 -1.0657  0.5088
 7768TIP3   OH244794   4.007   3.537   4.849 -0.2587 -0.1512  0.2122
 7768TIP3    H144795   4.055   3.615   4.877 -0.5403  0.2268 -0.3424
 7768TIP3    H244796   4.000   3.484   4.928  0.4079  0.1379  0.4727
 7769TIP3   OH244797   3.354   5.441  17.065  0.0304 -0.6778  0.0408
 7769TIP3    H144798   3.269   5.485  17.065 -0.3243 -1.2996 -1.4948
 7769TIP3    H244799   3.389   5.456  16.977  0.0313 -3.1161 -0.4531
 7770TIP3   OH244800   6.009   3.224   5.308  0.0226  0.5641 -0.5704
 7770TIP3    H144801   6.059   3.146   5.284 -0.4272  0.2818 -0.6107
 7770TIP3    H244802   5.962   3.248   5.228  0.1623  0.8774 -0.5587
 7771TIP3   OH244803   0.289   2.595  13.987 -0.5438  0.7842 -0.4466
 7771TIP3    H144804   0.345   2.546  13.927 -0.1762  0.0564  0.4642
 7771TIP3    H244805   0.227   2.530  14.021 -1.0450  1.2855 -0.3946
 7772TIP3   OH244806   2.636   6.184   4.376  0.0549 -0.1333  0.8014
 7772TIP3    H144807   2.629   6.089   4.387 -0.6257 -0.0218  1.4362
 7772TIP3    H244808   2.729   6.203   4.385  0.2959 -0.8237 -0.0873
 7773TIP3   OH244809   2.814   4.281   5.883  0.3243  0.1265  0.4950
 7773TIP3    H144810   2.824   4.191   5.912 -3.0973 -0.2443  0.9321
 7773TIP3    H244811   2.750   4.278   5.812  1.1063  2.0817 -0.3784
 7774TIP3   OH244812   3.618   4.323  16.196  0.1254  0.4022 -0.3494
 7774TIP3    H144813   3.560   4.261  16.152  1.0977 -2.1547  1.7423
 7774TIP3    H244814   3.695   4.329  16.138  0.2246 -0.7612 -0.3606
 7775TIP3   OH244815   4.538   3.733  10.585 -0.3581  0.7742 -0.6545
 7775TIP3    H144816   4.491   3.756  10.665 -1.5721 -0.8501 -0.8597
 7775TIP3    H244817   4.627   3.713  10.614 -0.6681  0.6423  0.2239
 7776TIP3   OH244818   2.796   5.538  11.003 -0.8448  0.5280 -0.1570
 7776TIP3    H144819   2.739   5.499  11.069  1.0062 -1.1637  0.5359
 7776TIP3    H244820   2.856   5.594  11.052  1.6102 -1.9796  0.0047
 7777TIP3   OH244821   6.673   4.610   2.041 -0.0811  0.6339  0.1237
 7777TIP3    H144822   6.694   4.659   1.961 -1.3672 -0.3856 -0.8765
 7777TIP3    H244823   6.633   4.675   2.098 -0.7081  1.0300 -0.7345
 7778TIP3   OH244824   3.692   2.080  14.320  0.0855 -0.0912 -0.0392
 7778TIP3    H144825   3.673   2.153  14.379  1.0818 -0.4368  0.7373
 7778TIP3    H244826   3.610   2.031  14.316  0.2620 -0.5947  1.8347
 7779TIP3   OH244827   4.087   4.145   3.268 -0.2607  0.3818  0.3709
 7779TIP3    H144828   4.105   4.227   3.315 -1.7705 -0.2389  2.1230
 7779TIP3    H244829   3.997   4.122   3.292 -0.6276 -0.7033 -1.7958
 7780TIP3   OH244830   4.144   0.108  14.824  0.0870  0.2135  0.1388
 7780TIP3    H144831   4.224   0.122  14.774  0.0165 -0.1508 -0.0837
 7780TIP3    H244832   4.102   0.195  14.827 -0.0862  0.1764 -0.7603
 7781TIP3   OH244833   3.566   2.368   3.610 -0.2398  0.1879 -0.4852
 7781TIP3    H144834   3.660   2.385   3.615  0.2133 -2.2105  0.4206
 7781TIP3    H244835   3.543   2.387   3.519  1.0742  0.9060 -0.6980
 7782TIP3   OH244836   4.038   3.351  16.231 -0.2926  0.2658  0.0129
 7782TIP3    H144837   4.123   3.320  16.263 -0.2009  0.1916 -0.3025
 7782TIP3    H244838   4.051   3.445  16.219 -0.8411  0.6128  1.8558
 7783TIP3   OH244839   3.086   1.037  11.753 -0.1675  0.3060  0.0896
 7783TIP3    H144840   3.102   1.075  11.667 -0.6176  1.1156  0.3529
 7783TIP3    H244841   3.169   0.994  11.776  0.1750  0.6735 -0.4478
 7784TIP3   OH244842   4.410   6.367  10.458 -0.5482 -0.0803  0.1198
 7784TIP3    H144843   4.424   6.306  10.386 -1.5240  1.1170 -1.1400
 7784TIP3    H244844   4.318   6.393  10.450 -0.8132 -0.3002  2.1239
 7785TIP3   OH244845   6.588   3.254  12.349  0.1586 -0.0718  0.1159
 7785TIP3    H144846   6.672   3.301  12.348  0.3529 -0.4178 -0.0397
 7785TIP3    H244847   6.544   3.286  12.427 -0.7872  2.2565 -1.2831
 7786TIP3   OH244848   3.604   4.934   4.618 -0.2342  0.5952 -0.2471
 7786TIP3    H144849   3.531   4.991   4.644 -0.7434  0.4561 -1.3057
 7786TIP3    H244850   3.621   4.957   4.527  1.4552  1.0335  0.1436
 7787TIP3   OH244851   6.134   1.328  12.643  0.0539 -0.2573 -0.0659
 7787TIP3    H144852   6.156   1.418  12.619  0.6878 -0.2073  0.6448
 7787TIP3    H244853   6.161   1.321  12.735 -0.3677 -1.0523  0.0042
 7788TIP3   OH244854   4.875   2.520   5.582 -0.2217  0.4332 -0.3945
 7788TIP3    H144855   4.884   2.441   5.636 -1.1322  1.4297  1.3235
 7788TIP3    H244856   4.963   2.557   5.580 -0.4616  1.3287  2.0350
 7789TIP3   OH244857   5.101   5.718  12.824  0.3273  0.3795 -0.2432
 7789TIP3    H144858   5.054   5.782  12.877  0.8849 -0.5690  1.4854
 7789TIP3    H244859   5.193   5.742  12.834  0.4061  0.5490 -1.2969
 7790TIP3   OH244860   6.335   0.593   0.684  0.4363  0.1057 -0.1607
 7790TIP3    H144861   6.255   0.546   0.708  0.7913 -0.7029 -0.5047
 7790TIP3    H244862   6.305   0.677   0.651 -0.3734 -0.6847 -1.5140
 7791TIP3   OH244863   3.333   4.514  14.455  0.6670 -0.0807  0.3227
 7791TIP3    H144864   3.375   4.431  14.476 -1.3156 -1.6757 -1.5175
 7791TIP3    H244865   3.363   4.534  14.366 -0.0611  0.3768  0.1735
 7792TIP3   OH244866   0.585   6.117   5.348  0.0420 -0.2348  0.4295
 7792TIP3    H144867   0.652   6.058   5.313  1.5170  0.7926  1.3989
 7792TIP3    H244868   0.635   6.190   5.385 -1.6494  0.7372  0.8869
 7793TIP3   OH244869   5.371   4.939   6.180  0.1761  0.2559 -0.0080
 7793TIP3    H144870   5.457   4.905   6.202 -0.3680 -1.1748  0.0011
 7793TIP3    H244871   5.329   4.956   6.264  0.5109  1.1638 -0.0125
 7794TIP3   OH244872   2.409   4.799  12.361 -0.4602 -0.7675 -0.4314
 7794TIP3    H144873   2.330   4.798  12.415  0.6685 -2.4799  1.3375
 7794TIP3    H244874   2.428   4.892  12.348 -0.7734 -0.2467  2.2370
 7795TIP3   OH244875   0.788   6.667   4.552 -0.2940  0.0675 -0.3032
 7795TIP3    H144876   0.828   6.643   4.636  0.2011 -0.3040 -0.6393
 7795TIP3    H244877   0.770   6.760   4.560 -2.3019 -0.3628  1.0635
 7796TIP3   OH244878   6.538   1.472   3.506 -0.3226 -0.5077 -0.1706
 7796TIP3    H144879   6.609   1.533   3.490 -2.2102  1.9702  0.3025
 7796TIP3    H244880   6.488   1.469   3.424 -1.3824  0.2175  0.4240
 7797TIP3   OH244881   5.321   1.501  13.100  0.0976  0.1428  0.0581
 7797TIP3    H144882   5.288   1.512  13.189  1.0681 -0.0200  0.4501
 7797TIP3    H244883   5.362   1.585  13.079 -0.4769  0.3178 -0.3948
 7798TIP3   OH244884   1.388   1.048  14.414 -0.1796 -0.0694  0.0219
 7798TIP3    H144885   1.406   1.119  14.352 -0.3437  0.4604  0.5766
 7798TIP3    H244886   1.328   1.086  14.478 -1.6244 -1.1870 -0.5962
 7799TIP3   OH244887   2.875   4.203   2.548  0.2816  0.1217  0.4495
 7799TIP3    H144888   2.970   4.195   2.552  0.2917  0.3749  3.6118
 7799TIP3    H244889   2.843   4.126   2.596 -1.1422 -0.1428 -0.8674
 7800TIP3   OH244890   1.524   6.312  15.884 -0.4479  0.2736  0.2278
 7800TIP3    H144891   1.449   6.256  15.905  0.1263 -0.1497  1.2061
 7800TIP3    H244892   1.600   6.258  15.902  0.2220  2.0823  3.6919
 7801TIP3   OH244893   2.294   4.354  12.372 -0.3851  0.1425  0.1202
 7801TIP3    H144894   2.358   4.385  12.437  0.8099 -1.2389 -0.3367
 7801TIP3    H244895   2.252   4.434  12.339 -1.3674  0.8603  2.8762
 7802TIP3   OH244896   4.191   6.678   5.511 -0.7771  0.1985  0.4647
 7802TIP3    H144897   4.128   6.607   5.521 -0.9399  0.2949  0.1300
 7802TIP3    H244898   4.138   6.757   5.498 -0.6417  0.6587  2.4258
 7803TIP3   OH244899   3.641   5.408  11.476  0.3776  0.1344 -0.3322
 7803TIP3    H144900   3.571   5.393  11.412 -0.5968 -0.6888  0.8944
 7803TIP3    H244901   3.659   5.322  11.514 -0.2504  0.8518  1.6968
 7804TIP3   OH244902   0.695   2.915   4.207  0.2134  0.3957  0.1511
 7804TIP3    H144903   0.616   2.944   4.254  0.4951 -0.1738  1.0034
 7804TIP3    H244904   0.731   2.846   4.262  2.0665  1.5640  0.4771
 7805TIP3   OH244905   2.548   6.047   3.884  0.1615  0.0376  0.0841
 7805TIP3    H144906   2.538   6.142   3.888 -0.8400 -0.0541  0.0082
 7805TIP3    H244907   2.459   6.014   3.874  0.3363 -0.9924  1.5580
 7806TIP3   OH244908   2.171   5.662  14.204 -0.3825  0.1162 -0.1942
 7806TIP3    H144909   2.094   5.616  14.171 -0.1367 -0.8097  0.4726
 7806TIP3    H244910   2.138   5.713  14.279 -0.6707  1.1213 -0.9835
 7807TIP3   OH244911   1.610   2.837  11.247 -0.3862  0.1959 -0.5678
 7807TIP3    H144912   1.558   2.760  11.222 -0.5154 -0.3282  1.1089
 7807TIP3    H244913   1.651   2.867  11.166 -0.9960 -1.1552 -1.4107
 7808TIP3   OH244914   5.219   1.237   4.476 -0.1414  0.4293 -0.4477
 7808TIP3    H144915   5.189   1.328   4.478 -0.0959  0.4384  0.7810
 7808TIP3    H244916   5.176   1.196   4.551  0.7045 -0.2674 -0.3245
 7809TIP3   OH244917   0.009   4.747  15.285  0.0641  0.1818  0.1395
 7809TIP3    H144918   0.095   4.705  15.284  0.1729  0.3872  0.6428
 7809TIP3    H244919  -0.039   4.701  15.355  0.1164  0.7571  0.5608
 7810TIP3   OH244920   2.254   3.833   2.832  0.5047 -0.0657  0.1267
 7810TIP3    H144921   2.300   3.898   2.779  0.9207 -1.1190 -0.8467
 7810TIP3    H244922   2.293   3.749   2.807 -0.1734 -0.7207  1.1809
 7811TIP3   OH244923   1.085   5.778  15.248 -0.5602 -0.3731  0.5464
 7811TIP3    H144924   1.016   5.845  15.238  1.2784  1.8167  1.6020
 7811TIP3    H244925   1.163   5.819  15.209  0.4695 -2.2540  0.5534
 7812TIP3   OH244926   2.543   6.040   5.172 -0.5766  0.5798 -0.4142
 7812TIP3    H144927   2.599   6.013   5.099 -0.4926  1.3915 -0.6664
 7812TIP3    H244928   2.454   6.039   5.136 -0.5165  1.1625 -0.5969
 7813TIP3   OH244929   2.397   0.851  15.373 -0.2037 -0.2917 -0.1236
 7813TIP3    H144930   2.313   0.835  15.416 -0.0234 -1.0934 -0.0540
 7813TIP3    H244931   2.403   0.784  15.305  2.7427 -4.0017  3.2558
 7814TIP3   OH244932   0.067   4.497  13.326  0.1946 -0.3609  0.4107
 7814TIP3    H144933   0.072   4.561  13.397 -0.8129 -1.4189  1.4824
 7814TIP3    H244934  -0.022   4.462  13.331 -0.7469  1.1896 -2.8945
 7815TIP3   OH244935   4.562   3.543   2.453 -1.4525 -0.4395 -0.7022
 7815TIP3    H144936   4.479   3.561   2.409 -1.1768  0.5045 -0.8689
 7815TIP3    H244937   4.621   3.612   2.423 -1.2855  0.3330  1.2267
 7816TIP3   OH244938   2.465   2.614  16.924  0.0290  0.2509  0.0430
 7816TIP3    H144939   2.559   2.597  16.920 -0.2849 -1.8939  0.7371
 7816TIP3    H244940   2.424   2.528  16.914 -1.8962  1.2085 -0.8397
 7817TIP3   OH244941   1.129   4.077   3.924  0.2368  0.5209 -0.6786
 7817TIP3    H144942   1.036   4.065   3.907  0.2426 -0.2233 -0.2165
 7817TIP3    H244943   1.173   4.024   3.857  0.3362  1.1032 -1.0785
 7818TIP3   OH244944   4.396   0.648   6.406 -0.7485 -0.6099  0.4467
 7818TIP3    H144945   4.457   0.595   6.457 -0.0965  0.2720  0.6071
 7818TIP3    H244946   4.383   0.726   6.459 -0.8198 -0.1084 -0.2994
 7819TIP3   OH244947   0.656   3.453   2.123 -0.4758  0.2943 -0.5556
 7819TIP3    H144948   0.600   3.482   2.051 -0.9704 -0.7444 -0.6005
 7819TIP3    H244949   0.712   3.386   2.084 -1.9724 -1.6052  0.3866
 7820TIP3   OH244950   0.683   2.700   4.718  0.7434 -0.3632 -0.1083
 7820TIP3    H144951   0.728   2.724   4.799 -1.3696 -0.1431  1.0801
 7820TIP3    H244952   0.620   2.771   4.704  1.3918 -0.1515 -2.2434
 7821TIP3   OH244953   0.384   1.099   2.629  0.0601  0.5736  0.2958
 7821TIP3    H144954   0.298   1.125   2.597  1.0158  0.9392 -2.1184
 7821TIP3    H244955   0.376   1.004   2.644 -0.4098  0.3440 -1.2251
 7822TIP3   OH244956   1.894   1.177  16.858  1.0406  0.0641 -0.1412
 7822TIP3    H144957   1.963   1.219  16.909  0.6524 -0.5009  0.8843
 7822TIP3    H244958   1.919   1.084  16.858  0.1238 -0.1934  0.5275
 7823TIP3   OH244959   4.730   0.160   3.369  0.0430 -0.1553  0.0787
 7823TIP3    H144960   4.733   0.251   3.338  1.3144  0.2779  1.3586
 7823TIP3    H244961   4.787   0.159   3.446 -0.2158 -1.9746  0.2910
 7824TIP3   OH244962   3.854   1.324   0.791  1.0197  0.9439  0.5579
 7824TIP3    H144963   3.867   1.231   0.770 -0.3481  0.9495 -0.4719
 7824TIP3    H244964   3.777   1.325   0.847 -0.3143  1.5816 -1.1887
 7825TIP3   OH244965   6.229   1.304   4.663  0.1459 -0.1176  0.0144
 7825TIP3    H144966   6.311   1.348   4.642  1.4386 -2.0631  0.7313
 7825TIP3    H244967   6.248   1.256   4.744 -1.5643 -0.9915 -0.0657
 7826TIP3   OH244968   2.633   4.928   1.910  0.1810  0.7077  0.4668
 7826TIP3    H144969   2.566   4.929   1.841  0.0842  0.1306  0.5478
 7826TIP3    H244970   2.626   4.841   1.949  1.3245  0.4691  0.1488
 7827TIP3   OH244971   2.124   1.297   2.151  0.3873 -0.0594  0.1136
 7827TIP3    H144972   2.125   1.348   2.069  1.6591  2.2817  1.4699
 7827TIP3    H244973   2.031   1.292   2.175 -0.0363 -1.0485 -1.5872
 7828TIP3   OH244974   0.656   2.768   5.491 -0.2487  0.3478  0.4501
 7828TIP3    H144975   0.592   2.717   5.442  0.8896 -1.1797  0.4787
 7828TIP3    H244976   0.644   2.740   5.582  0.6591 -0.2043  0.4106
 7829TIP3   OH244977   1.431   2.521   0.441 -0.5820 -0.2370 -0.5460
 7829TIP3    H144978   1.378   2.512   0.520  0.8405 -1.1891  0.3412
 7829TIP3    H244979   1.487   2.444   0.440 -0.0589  0.1186 -2.1059
 7830TIP3   OH244980   5.375   2.242  11.889 -0.5823  0.5227  0.3931
 7830TIP3    H144981   5.430   2.184  11.836 -1.0669 -2.4014  2.7791
 7830TIP3    H244982   5.436   2.308  11.924  0.6253 -0.2625 -0.1573
 7831TIP3   OH244983   6.195   4.676   0.678 -0.7474 -0.0272 -0.2967
 7831TIP3    H144984   6.166   4.760   0.643  0.2637 -0.2590 -1.7503
 7831TIP3    H244985   6.238   4.632   0.605 -1.8207 -2.1077  0.2498
 7832TIP3   OH244986   2.177   5.547   1.916 -0.1262 -0.1139  0.3137
 7832TIP3    H144987   2.119   5.548   1.991  1.4150  0.0001  1.5694
 7832TIP3    H244988   2.259   5.510   1.949  0.4780 -0.4615 -1.4154
 7833TIP3   OH244989   3.906   6.267  16.303  0.3990 -0.2731 -0.2337
 7833TIP3    H144990   3.903   6.221  16.387  0.9961  1.1377  0.6114
 7833TIP3    H244991   3.832   6.232  16.254  0.2753 -1.4193  0.7291
 7834TIP3   OH244992   5.261   4.488   2.384  0.2052  0.4710 -0.0334
 7834TIP3    H144993   5.178   4.534   2.396  0.7658  1.1837  1.4472
 7834TIP3    H244994   5.328   4.555   2.399  1.0361 -0.3694  0.0887
 7835TIP3   OH244995   1.305   1.037   4.081 -0.2375 -0.6052 -0.3994
 7835TIP3    H144996   1.276   1.128   4.080  1.2884 -0.0418 -2.6745
 7835TIP3    H244997   1.306   1.012   4.174 -0.5118  1.7579  0.2916
 7836TIP3   OH244998   3.905   4.795  11.558 -0.5734 -0.7512 -0.2534
 7836TIP3    H144999   3.948   4.718  11.522  1.9932  0.7519 -0.6603
 7836TIP3    H245000   3.892   4.853  11.483 -2.4432 -0.7080  0.0511
 7837TIP3   OH245001   0.513   1.690   3.648 -0.6058  0.7226  0.1001
 7837TIP3    H145002   0.508   1.670   3.742 -1.0550 -2.6263 -0.5111
 7837TIP3    H245003   0.548   1.779   3.645 -0.3119  0.8663  3.4292
 7838TIP3   OH245004   5.973   1.476   4.209  0.0997  0.9232  0.2741
 7838TIP3    H145005   5.937   1.491   4.296  0.8471  0.6687  0.6346
 7838TIP3    H245006   5.967   1.561   4.165 -1.4329  0.7639  0.1220
 7839TIP3   OH245007   0.047   2.452   5.049  0.2368  0.4179  0.0956
 7839TIP3    H145008   0.006   2.533   5.019  0.9896  0.1340 -1.8717
 7839TIP3    H245009  -0.024   2.388   5.051  0.2560  0.2617 -1.9834
 7840TIP3   OH245010   0.741   0.874  14.701  0.2568  0.3019 -0.0723
 7840TIP3    H145011   0.677   0.812  14.666  2.3082 -1.5899 -0.7460
 7840TIP3    H245012   0.709   0.897  14.788 -0.4783 -1.9207  0.2879
 7841TIP3   OH245013   5.594   0.884  11.143  0.4636 -0.3281  0.1431
 7841TIP3    H145014   5.528   0.949  11.119 -0.3963 -1.1674  0.1862
 7841TIP3    H245015   5.626   0.913  11.229  0.9412  0.6765 -0.3540
 7842TIP3   OH245016   3.384   2.130   5.856 -0.4317 -0.3241  0.7725
 7842TIP3    H145017   3.468   2.176   5.858  0.4537 -1.7244 -0.9098
 7842TIP3    H245018   3.336   2.172   5.784 -1.0727  0.2748  1.5371
 7843TIP3   OH245019   4.004   2.805   3.007 -0.3806 -0.2467 -0.1090
 7843TIP3    H145020   3.990   2.869   2.936  0.2494 -1.4562 -1.3738
 7843TIP3    H245021   3.942   2.832   3.075 -1.9242  0.2383 -1.6059
 7844TIP3   OH245022   4.348   6.066  14.392  0.1198  0.9270 -1.1352
 7844TIP3    H145023   4.295   6.134  14.350  0.7275  1.2554 -1.3875
 7844TIP3    H245024   4.288   5.993  14.405 -0.5942  1.5732 -0.6964
 7845TIP3   OH245025   2.171   5.747  13.373 -0.6583 -0.5051 -0.0048
 7845TIP3    H145026   2.159   5.722  13.464 -0.6032  0.1582  0.1907
 7845TIP3    H245027   2.119   5.685  13.323 -0.3277 -1.1537  0.4467
 7846TIP3   OH245028   2.695   0.408   5.938  0.3751  0.5174 -0.3091
 7846TIP3    H145029   2.693   0.330   5.995  2.9938  1.2157  0.9204
 7846TIP3    H245030   2.625   0.464   5.971  1.1391  0.4281  1.6032
 7847TIP3   OH245031   5.268   1.577  12.615 -0.1246 -0.1973 -0.0079
 7847TIP3    H145032   5.331   1.579  12.687 -0.7340 -1.9613  0.6371
 7847TIP3    H245033   5.206   1.647  12.636  0.7508  0.5528  0.1528
 7848TIP3   OH245034   0.635   4.910   5.379  0.0592  0.1111  0.2298
 7848TIP3    H145035   0.559   4.879   5.428 -0.4911  0.4232 -0.4106
 7848TIP3    H245036   0.632   5.005   5.388  1.0801  0.0691  1.2174
 7849TIP3   OH245037   3.763   2.790   5.613 -0.1656  0.1979  0.0925
 7849TIP3    H145038   3.849   2.782   5.654  0.2246 -1.0116 -0.8979
 7849TIP3    H245039   3.772   2.866   5.555 -0.9097  2.3140  2.5508
 7850TIP3   OH245040   3.048   4.075  17.121 -0.2449  0.2183 -0.0310
 7850TIP3    H145041   3.077   4.163  17.101 -1.8669  0.9402  0.5958
 7850TIP3    H245042   2.952   4.082  17.127 -0.4182 -1.6054 -0.1030
 7851TIP3   OH245043   0.660   3.087   6.773  0.1555 -0.3648 -0.4156
 7851TIP3    H145044   0.713   3.106   6.850 -2.9820  0.3934  1.7571
 7851TIP3    H245045   0.654   2.992   6.771  0.4240 -0.3975  0.1660
 7852TIP3   OH245046   5.982   1.343   6.483 -0.3442 -0.4433 -0.1190
 7852TIP3    H145047   5.896   1.333   6.442 -1.1753 -0.5531  1.5342
 7852TIP3    H245048   6.008   1.253   6.505 -1.6834 -0.2340  2.8707
 7853TIP3   OH245049   5.576   5.182   4.406 -0.3685 -0.5570  0.5790
 7853TIP3    H145050   5.583   5.111   4.470  0.5394 -0.0653  1.0353
 7853TIP3    H245051   5.588   5.262   4.456 -2.8511  0.0548  0.3208
 7854TIP3   OH245052   3.758   6.290   0.574 -0.9184  0.1836  0.0262
 7854TIP3    H145053   3.763   6.313   0.667  0.9407 -0.8527  0.2486
 7854TIP3    H245054   3.678   6.238   0.566  0.0811 -1.7362  1.5937
 7855TIP3   OH245055   3.678   6.640  13.999  0.5651  0.2406  0.0434
 7855TIP3    H145056   3.649   6.726  13.967 -1.1667 -0.0210  0.8362
 7855TIP3    H245057   3.697   6.590  13.920 -2.5044 -0.0014 -0.6559
 7856TIP3   OH245058   5.520   5.198   2.796 -0.2119  0.1875  0.1060
 7856TIP3    H145059   5.480   5.255   2.730 -0.3670  0.3123  0.3077
 7856TIP3    H245060   5.465   5.120   2.797 -0.3276  0.2704  0.2318
 7857TIP3   OH245061   0.493   6.717   4.217  0.2315 -0.2012 -0.0570
 7857TIP3    H145062   0.484   6.798   4.267 -1.2258 -0.1650 -0.3413
 7857TIP3    H245063   0.507   6.649   4.283  2.2357  0.3479  0.1447
 7858TIP3   OH245064   4.826   2.646   3.200  0.1255 -0.0326  0.1803
 7858TIP3    H145065   4.918   2.625   3.216  0.6230  0.3824 -1.8513
 7858TIP3    H245066   4.812   2.730   3.242  1.7375  1.6671 -2.3822
 7859TIP3   OH245067   4.130   0.159   2.735 -0.1579 -0.3502 -0.3071
 7859TIP3    H145068   4.185   0.083   2.754 -1.8836 -1.1250  2.0805
 7859TIP3    H245069   4.167   0.196   2.655  2.5187 -2.0005  0.0356
 7860TIP3   OH245070   3.195   1.566  15.500 -0.1148 -0.2480 -0.2552
 7860TIP3    H145071   3.160   1.494  15.553  1.6219 -0.8133  0.2031
 7860TIP3    H245072   3.226   1.630  15.564 -0.5489  0.3644 -0.6465
 7861TIP3   OH245073   0.882   3.572   3.910 -0.6224  0.2758  0.0162
 7861TIP3    H145074   0.854   3.484   3.935  1.4224 -0.4833 -0.1810
 7861TIP3    H245075   0.828   3.595   3.835 -1.7407 -0.4625  0.5774
 7862TIP3   OH245076   2.119   0.282   0.129  0.4556 -0.6759  0.0956
 7862TIP3    H145077   2.156   0.344   0.192  1.6826 -1.1626 -0.1294
 7862TIP3    H245078   2.153   0.197   0.155 -0.8542 -1.2031  0.1261
 7863TIP3   OH245079   5.829   4.214   1.228 -0.1760  0.3570  1.0127
 7863TIP3    H145080   5.849   4.125   1.258  1.8735 -0.1320 -1.4895
 7863TIP3    H245081   5.912   4.260   1.236 -0.2346  0.9278 -1.2663
 7864TIP3   OH245082   0.774   6.801   5.398  0.2880 -0.5810  0.3728
 7864TIP3    H145083   0.712   6.796   5.325 -0.4179  0.4049  0.8882
 7864TIP3    H245084   0.722   6.780   5.476  0.1219  2.0584  1.0414
 7865TIP3   OH245085   5.031   6.137  15.453  0.1434 -0.4215 -0.1273
 7865TIP3    H145086   5.078   6.067  15.498  0.2319  0.3322  0.9733
 7865TIP3    H245087   5.043   6.118  15.360  4.6009  0.9489 -0.0499
 7866TIP3   OH245088   5.061   0.493   3.395 -0.0675 -0.7708 -0.1121
 7866TIP3    H145089   5.156   0.499   3.405  0.1156  0.8059 -2.0164
 7866TIP3    H245090   5.027   0.570   3.440 -0.4627 -1.4031  0.6798
 7867TIP3   OH245091   0.907   1.173   0.481  0.4225  0.1933  0.1316
 7867TIP3    H145092   0.945   1.103   0.428 -0.6665 -0.7920  0.6135
 7867TIP3    H245093   0.815   1.174   0.457  0.5593  2.0434 -0.4613
 7868TIP3   OH245094   2.581   4.015   2.379 -0.4375  0.4956  0.1072
 7868TIP3    H145095   2.649   4.057   2.432 -0.3107 -0.1194  0.4448
 7868TIP3    H245096   2.581   4.064   2.297  2.5906 -1.3503 -1.1739
 7869TIP3   OH245097   6.122   0.867  15.223 -0.0990 -0.0517 -0.1200
 7869TIP3    H145098   6.097   0.921  15.148 -1.5445 -0.8112 -0.2175
 7869TIP3    H245099   6.204   0.906  15.254 -0.0107  0.9011 -1.4569
 7870TIP3   OH245100   6.442   6.054  15.913 -0.3708  0.3934 -0.0403
 7870TIP3    H145101   6.442   5.971  15.960 -0.7861  0.3370 -0.1283
 7870TIP3    H245102   6.387   6.112  15.966 -1.9484 -0.0597 -1.0756
 7871TIP3   OH245103   0.206   6.444  11.238  0.0759 -0.2206 -0.1782
 7871TIP3    H145104   0.206   6.468  11.145  2.0560 -3.4319 -1.1701
 7871TIP3    H245105   0.253   6.515  11.281 -0.6296  1.1981 -1.6343
 7872TIP3   OH245106   0.543   1.355   6.094 -0.1014  0.5455 -0.0191
 7872TIP3    H145107   0.613   1.354   6.028  1.0513  0.6919  1.1604
 7872TIP3    H245108   0.469   1.312   6.051  0.9421 -0.2861 -1.0571
 7873TIP3   OH245109   1.240   4.616  11.971 -0.1295  0.3004  0.1211
 7873TIP3    H145110   1.199   4.701  11.952  0.9452  1.0375  0.9743
 7873TIP3    H245111   1.169   4.553  11.961 -1.0756  1.3443 -0.0414
 7874TIP3   OH245112   1.314   5.454   3.118 -0.2329  0.2521  0.7683
 7874TIP3    H145113   1.384   5.450   3.053 -0.8633  1.1267 -0.0017
 7874TIP3    H245114   1.353   5.499   3.192  1.0813 -2.4596  1.8369
 7875TIP3   OH245115   6.758   2.462   1.288 -0.4436 -0.3715 -0.1159
 7875TIP3    H145116   6.791   2.509   1.364 -0.7780 -0.3146 -0.0072
 7875TIP3    H245117   6.663   2.476   1.289 -0.2546  1.7596 -1.9331
 7876TIP3   OH245118   6.269   0.452  11.343 -0.2215 -0.0242 -0.0842
 7876TIP3    H145119   6.363   0.440  11.329  0.6221  1.6706  3.0920
 7876TIP3    H245120   6.234   0.473  11.256  2.6115  0.8486 -1.1358
 7877TIP3   OH245121   0.891   2.532  12.501  0.2871 -0.0308  0.0200
 7877TIP3    H145122   0.948   2.558  12.573  2.0728 -1.3637 -0.8424
 7877TIP3    H245123   0.909   2.596  12.432 -1.2668  1.1193  0.6176
 7878TIP3   OH245124   3.374   0.736  15.463  0.2728 -0.3530  0.2431
 7878TIP3    H145125   3.382   0.672  15.535 -1.1327 -1.3912 -0.4911
 7878TIP3    H245126   3.410   0.691  15.387  1.0832  0.4838  0.1061
 7879TIP3   OH245127   3.839   2.968   2.130 -0.1833  0.5084  0.5277
 7879TIP3    H145128   3.825   2.898   2.066  0.6873 -0.5941  1.4881
 7879TIP3    H245129   3.934   2.981   2.130 -0.3295  1.7936  0.3027
 7880TIP3   OH245130   5.319   5.025  17.122 -0.0363  0.0315 -0.3400
 7880TIP3    H145131   5.314   4.939  17.082 -2.0202 -0.0519 -0.0440
 7880TIP3    H245132   5.292   5.086  17.053 -0.9609  0.1460  0.1006
 7881TIP3   OH245133   1.208   4.123   1.672 -0.3004 -0.1880 -0.2211
 7881TIP3    H145134   1.123   4.105   1.632 -0.1072 -1.3477 -0.1493
 7881TIP3    H245135   1.218   4.056   1.740 -0.9815  2.2001  2.4063
 7882TIP3   OH245136   5.757   3.576   0.729  0.0922  0.1197 -0.3983
 7882TIP3    H145137   5.835   3.537   0.767 -0.8635 -1.1847  0.3348
 7882TIP3    H245138   5.712   3.502   0.686 -1.0719  0.6918 -0.2112
 7883TIP3   OH245139   5.760   5.662   2.967  0.2957 -0.0211 -0.3285
 7883TIP3    H145140   5.772   5.579   3.012 -0.8238 -0.6057 -1.0483
 7883TIP3    H245141   5.846   5.684   2.932  0.9926  0.0467  1.3750
 7884TIP3   OH245142   3.393   3.565   3.042  0.9552 -0.3062 -0.0865
 7884TIP3    H145143   3.376   3.535   2.953 -0.6564  0.1641  0.0383
 7884TIP3    H245144   3.482   3.534   3.061  0.7071 -1.8665 -1.2380
 7885TIP3   OH245145   5.163   4.426  13.638 -0.2531 -0.4791 -0.3884
 7885TIP3    H145146   5.238   4.377  13.673  0.6407  1.4609  0.5756
 7885TIP3    H245147   5.197   4.467  13.558 -0.5473 -0.2399 -0.3918
 7886TIP3   OH245148   5.130   0.179  12.559  0.1333 -0.1636 -0.1109
 7886TIP3    H145149   5.085   0.197  12.642 -0.1826  1.0655 -0.5336
 7886TIP3    H245150   5.183   0.101  12.577 -1.9306 -1.5361  0.4998
 7887TIP3   OH245151   5.701   4.641   2.221  0.5453 -0.3124 -0.1152
 7887TIP3    H145152   5.789   4.650   2.259  1.0128  0.0590 -1.2353
 7887TIP3    H245153   5.653   4.717   2.253  1.2081  0.4823 -0.9674
 7888TIP3   OH245154   0.470   4.183   0.252 -0.1770  0.0784  0.1428
 7888TIP3    H145155   0.551   4.148   0.288  0.2684  0.2940 -0.6230
 7888TIP3    H245156   0.411   4.192   0.328 -0.3490 -2.3630  0.3600
 7889TIP3   OH245157   1.249   0.254   0.280  0.0893  0.3564 -0.1007
 7889TIP3    H145158   1.159   0.275   0.253  0.3693  0.9461 -0.5841
 7889TIP3    H245159   1.249   0.266   0.375 -0.3093  0.4825 -0.1153
 7890TIP3   OH245160   1.655   4.392  11.339 -0.4704 -0.4790  0.3440
 7890TIP3    H145161   1.661   4.404  11.244 -0.4201 -2.6141  0.0277
 7890TIP3    H245162   1.587   4.326  11.350 -2.1316  1.3905  1.9891
 7891TIP3   OH245163   3.682   0.547  12.119  0.5307 -0.5134 -0.2592
 7891TIP3    H145164   3.707   0.631  12.158  0.8767 -0.7437  0.0291
 7891TIP3    H245165   3.764   0.498  12.116  0.1338 -1.2616  0.6256
 7892TIP3   OH245166   0.988   6.144   5.151 -0.3365 -0.2306 -0.5584
 7892TIP3    H145167   0.959   6.102   5.232  0.1859 -0.6767 -0.5973
 7892TIP3    H245168   0.908   6.156   5.100 -0.3356 -2.8252 -1.3156
 7893TIP3   OH245169   2.666   3.343   3.852  0.2592  0.2789 -0.0412
 7893TIP3    H145170   2.735   3.277   3.838  0.5445  0.7238 -0.7309
 7893TIP3    H245171   2.606   3.331   3.779  0.4833  0.9971 -0.3504
 7894TIP3   OH245172   5.485   3.980  14.052  0.0535 -0.1207  0.5048
 7894TIP3    H145173   5.565   4.033  14.052  0.5435 -0.8041 -0.5893
 7894TIP3    H245174   5.501   3.912  14.118  1.1934 -1.3495 -0.9526
 7895TIP3   OH245175   2.074   4.127  10.748  0.3018  0.3688  0.1179
 7895TIP3    H145176   2.103   4.075  10.823 -2.3180 -1.0382  0.2944
 7895TIP3    H245177   1.987   4.158  10.773 -0.0260  1.0996 -1.7611
 7896TIP3   OH245178   0.905   0.969  11.057  0.3893  0.2051  0.2100
 7896TIP3    H145179   0.967   1.030  11.016  1.3026  1.9309  3.8019
 7896TIP3    H245180   0.824   1.019  11.067  0.7285  0.4518  1.9968
 7897TIP3   OH245181   2.011   2.674   1.536 -0.0245  0.4463 -0.2521
 7897TIP3    H145182   2.070   2.647   1.607 -0.1603 -3.6747 -1.4326
 7897TIP3    H245183   2.068   2.686   1.461 -0.3410 -1.3031 -0.8332
 7898TIP3   OH245184   2.072   1.936   2.122 -0.1254  0.0911  0.0229
 7898TIP3    H145185   2.129   1.887   2.181  0.2936 -0.0814 -0.5253
 7898TIP3    H245186   1.987   1.937   2.167 -0.2623 -1.4980 -0.1525
 7899TIP3   OH245187   5.219   6.632  15.922 -0.4567  0.4253 -0.1496
 7899TIP3    H145188   5.313   6.614  15.929 -0.2911  1.1036 -0.5316
 7899TIP3    H245189   5.214   6.721  15.886 -1.2504  1.2884  1.9596
 7900TIP3   OH245190   5.500   4.409  15.840 -0.3181 -0.0116 -0.5888
 7900TIP3    H145191   5.502   4.479  15.775  0.5667  0.0071 -0.5441
 7900TIP3    H245192   5.539   4.448  15.919  0.6882 -0.7061 -0.7273
 7901TIP3   OH245193   5.083   0.942  14.798  0.1702 -0.0920 -0.4213
 7901TIP3    H145194   5.137   1.019  14.779 -1.1147  0.5514 -1.6449
 7901TIP3    H245195   5.144   0.868  14.793  1.5163  0.8338  1.2095
 7902TIP3   OH245196   6.361   4.278  11.797 -0.3814 -0.3454  0.3104
 7902TIP3    H145197   6.340   4.185  11.788 -1.8532 -0.1595  1.4428
 7902TIP3    H245198   6.277   4.323  11.785  0.3737  0.8868 -0.6253
 7903TIP3   OH245199   3.366   5.091   1.776 -0.5362  0.6430  0.3875
 7903TIP3    H145200   3.288   5.092   1.830  0.3107 -0.9264  1.7200
 7903TIP3    H245201   3.373   5.001   1.745  0.7281  0.7670  0.2668
 7904TIP3   OH245202   3.221   4.486   5.637  0.3183  0.5637  0.0885
 7904TIP3    H145203   3.283   4.512   5.706 -0.7802  2.0017  0.5968
 7904TIP3    H245204   3.148   4.445   5.685  0.3723 -0.1087 -0.3972
 7905TIP3   OH245205   2.403   1.727  13.911  0.0776 -0.1357  0.3414
 7905TIP3    H145206   2.433   1.817  13.926 -0.5985  0.0883  0.3886
 7905TIP3    H245207   2.476   1.684  13.868  0.7346  0.2003  1.1033
 7906TIP3   OH245208   1.742   3.433  12.192  0.1747 -0.1954  0.3384
 7906TIP3    H145209   1.747   3.343  12.225  0.5737  0.2368  1.5306
 7906TIP3    H245210   1.680   3.476  12.250  0.2524  0.3849 -0.0035
 7907TIP3   OH245211   2.328   4.927  16.842 -0.7919 -0.0308  0.8344
 7907TIP3    H145212   2.312   4.930  16.748  0.8006 -0.8178  0.5197
 7907TIP3    H245213   2.417   4.960  16.853 -0.3811 -1.4095  1.9014
 7908TIP3   OH245214   3.642   0.953   3.319  0.1846 -1.0564 -0.5035
 7908TIP3    H145215   3.555   0.961   3.359  0.0613  1.8174 -1.1308
 7908TIP3    H245216   3.698   1.008   3.373  0.9695 -0.6108 -1.7371
 7909TIP3   OH245217   1.795   6.462  11.731  0.1378 -0.1162 -0.1284
 7909TIP3    H145218   1.865   6.509  11.776 -0.1087  0.5661 -0.4524
 7909TIP3    H245219   1.837   6.381  11.701  1.1331  0.7961 -1.3540
 7910TIP3   OH245220   3.479   3.294  13.493  0.2423  0.0226 -0.4031
 7910TIP3    H145221   3.543   3.353  13.453  0.4938 -0.4738 -0.7348
 7910TIP3    H245222   3.506   3.206  13.466  0.7501 -0.3725  1.3005
 7911TIP3   OH245223   4.130   2.722  17.056  0.0461  0.4161  0.3079
 7911TIP3    H145224   4.044   2.759  17.036 -0.9143 -0.9699  1.5839
 7911TIP3    H245225   4.129   2.635  17.015  0.6450  0.2114  0.6958
 7912TIP3   OH245226   4.524   2.771  13.262 -0.6097  0.5283  0.3198
 7912TIP3    H145227   4.468   2.842  13.231 -0.5580  0.0044 -1.0467
 7912TIP3    H245228   4.607   2.814  13.284 -0.4641  0.8737 -0.8211
 7913TIP3   OH245229   0.905   3.604   0.022 -0.6625 -0.1356  0.0402
 7913TIP3    H145230   0.857   3.571   0.098  2.9083 -1.2592  2.0383
 7913TIP3    H245231   0.954   3.528  -0.009  0.6916  1.1712 -1.1337
 7914TIP3   OH245232   5.548   2.952  12.330  1.0635  0.1368  0.0898
 7914TIP3    H145233   5.510   2.926  12.414 -0.7257  2.0118 -0.0578
 7914TIP3    H245234   5.607   3.025  12.353 -0.8142  1.8851 -0.4016
 7915TIP3   OH245235   2.107   4.401  14.913 -0.4342  0.5778  0.3950
 7915TIP3    H145236   2.156   4.355  14.980 -1.7082  1.6803  2.1832
 7915TIP3    H245237   2.172   4.456  14.869  0.2653  0.5656  1.3899
 7916TIP3   OH245238   6.261   1.621   0.379  0.4847 -0.2714  0.5810
 7916TIP3    H145239   6.343   1.668   0.393  0.8147 -0.9884  1.0984
 7916TIP3    H245240   6.198   1.690   0.356  0.8706  0.4703  1.6622
 7917TIP3   OH245241   3.300   5.331   3.736 -0.1507 -0.4323 -0.3867
 7917TIP3    H145242   3.298   5.365   3.826 -0.8569 -3.7836  1.0427
 7917TIP3    H245243   3.237   5.384   3.688  0.9627  2.1021  0.7828
 7918TIP3   OH245244   2.373   2.069   5.096  0.4763  0.6116  0.3408
 7918TIP3    H145245   2.393   2.005   5.028  1.1027 -0.5780  1.6092
 7918TIP3    H245246   2.402   2.028   5.178 -0.5085  1.8801  1.3763
 7919TIP3   OH245247   4.688   0.077   2.201 -0.2152  0.1000 -0.0276
 7919TIP3    H145248   4.601   0.099   2.168  0.0926  0.0314 -0.9067
 7919TIP3    H245249   4.727   0.162   2.224 -0.7794  0.0796  1.1073
 7920TIP3   OH245250   2.108   0.818   5.356 -0.6434  0.1917 -0.5177
 7920TIP3    H145251   2.116   0.745   5.417 -0.4938  0.4701 -0.1955
 7920TIP3    H245252   2.182   0.875   5.378 -1.2040  0.8256 -0.2311
 7921TIP3   OH245253   2.507   4.828  12.656  0.2615  0.1669  0.0721
 7921TIP3    H145254   2.542   4.755  12.604  0.5049  0.0637  0.3743
 7921TIP3    H245255   2.512   4.904  12.598  0.0458 -0.0467 -0.2307
 7922TIP3   OH245256   4.733   4.074  16.278 -0.2947 -0.7206  0.3969
 7922TIP3    H145257   4.727   4.111  16.190  0.8832 -1.0629  0.1524
 7922TIP3    H245258   4.642   4.058  16.304 -0.6348 -2.1373 -1.4196
 7923TIP3   OH245259   2.407   4.102   0.804  0.2036  0.0892 -0.0169
 7923TIP3    H145260   2.400   4.086   0.710 -1.9796 -0.3365  0.1657
 7923TIP3    H245261   2.391   4.196   0.814  0.3820  0.1246 -0.0559
 7924TIP3   OH245262   1.059   2.370   1.018  0.2075 -0.3775  0.1261
 7924TIP3    H145263   1.101   2.387   1.102  1.5201 -1.1650 -0.3450
 7924TIP3    H245264   1.047   2.275   1.017  1.3395 -0.5260 -1.0848
 7925TIP3   OH245265   3.898   5.253  11.174  0.3465  0.0976  0.0244
 7925TIP3    H145266   3.905   5.331  11.229  1.1150 -0.6348  0.9926
 7925TIP3    H245267   3.829   5.275  11.111  0.8549  1.7187 -0.0143
 7926TIP3   OH245268   3.502   0.378  16.934 -0.3360 -0.4595  0.3866
 7926TIP3    H145269   3.507   0.472  16.913 -1.6430 -0.5108 -0.2294
 7926TIP3    H245270   3.570   0.338  16.880 -1.0606 -0.0880 -0.8404
 7927TIP3   OH245271   3.753   2.915   3.929 -0.7180 -0.1549 -0.0318
 7927TIP3    H145272   3.778   2.824   3.911  0.0630  0.0269  0.0694
 7927TIP3    H245273   3.808   2.941   4.003  0.9889  1.1826 -1.6595
 7928TIP3   OH245274   5.780   5.455  10.554  0.7086 -0.7585  0.5834
 7928TIP3    H145275   5.859   5.463  10.501  1.4318 -1.2753  1.5571
 7928TIP3    H245276   5.751   5.545  10.568  0.8542 -0.5917 -0.1752
 7929TIP3   OH245277   5.843   0.028  14.599 -0.2998  0.0753 -0.0429
 7929TIP3    H145278   5.911   0.029  14.667 -0.9782 -0.6475  0.6656
 7929TIP3    H245279   5.761   0.024  14.647 -0.8093 -0.0570 -0.9054
 7930TIP3   OH245280   2.964   4.095   3.521  0.8279 -0.1909 -0.0429
 7930TIP3    H145281   2.938   4.046   3.443  0.3355  2.6216 -1.7818
 7930TIP3    H245282   2.915   4.054   3.592 -1.7620 -0.5112 -1.8599
 7931TIP3   OH245283   0.446   1.842  11.308  0.3336  0.3911  0.6874
 7931TIP3    H145284   0.468   1.856  11.216  0.1346 -0.4608  0.5023
 7931TIP3    H245285   0.362   1.798  11.307  0.3113  0.4075  1.2833
 7932TIP3   OH245286   1.607   5.245  11.366  0.2332 -0.4485  0.3281
 7932TIP3    H145287   1.597   5.278  11.455  0.4859 -1.1619  0.6237
 7932TIP3    H245288   1.581   5.153  11.371 -1.4044 -0.0954 -0.6789
 7933TIP3   OH245289   0.614   0.218   5.547 -0.6333  0.1920  0.3060
 7933TIP3    H145290   0.663   0.144   5.582 -1.3958 -1.1438 -1.2675
 7933TIP3    H245291   0.658   0.239   5.464 -0.0154  1.9914  1.0459
 7934TIP3   OH245292   5.032   3.866   3.924  0.5961  0.0863 -0.3584
 7934TIP3    H145293   5.091   3.832   3.992  1.4018  1.1075 -0.5216
 7934TIP3    H245294   5.026   3.795   3.860 -2.0701 -1.8812  1.8318
 7935TIP3   OH245295   0.290   3.888   2.578 -0.2048  0.3435  0.3073
 7935TIP3    H145296   0.233   3.940   2.522 -1.6751 -0.9352  0.5328
 7935TIP3    H245297   0.245   3.885   2.663 -0.5538 -1.8408  0.0995
 7936TIP3   OH245298   1.556   2.321   5.741 -0.7448  0.0831  0.5494
 7936TIP3    H145299   1.542   2.234   5.779 -2.7429  0.9098  1.8498
 7936TIP3    H245300   1.624   2.360   5.795  1.6332 -1.3210 -1.2661
 7937TIP3   OH245301   2.513   3.035  13.562 -0.1625 -0.2904  0.0117
 7937TIP3    H145302   2.419   3.051  13.563 -0.0238  0.7246 -0.8413
 7937TIP3    H245303   2.550   3.108  13.613  0.2966  0.6364 -1.5585
 7938TIP3   OH245304   1.427   3.307   2.419 -0.4894 -0.4817  0.5439
 7938TIP3    H145305   1.447   3.260   2.338  0.0700 -1.4305  1.2166
 7938TIP3    H245306   1.340   3.275   2.444 -0.0647 -1.2679  1.0579
 7939TIP3   OH245307   1.961   0.807  11.320  0.4308  0.3761  0.0164
 7939TIP3    H145308   2.027   0.806  11.251  2.5610 -1.7957  1.8764
 7939TIP3    H245309   1.906   0.731  11.302  1.4685 -0.6624  1.0172
 7940TIP3   OH245310   6.446   5.812  16.042  0.3203 -0.2600 -0.3776
 7940TIP3    H145311   6.457   5.756  16.119 -0.6272 -1.0727 -0.8016
 7940TIP3    H245312   6.407   5.754  15.976 -0.6021  0.8766 -0.8689
 7941TIP3   OH245313   5.158   2.862  10.784 -0.4220  0.5562  0.0285
 7941TIP3    H145314   5.131   2.902  10.701  1.6485  2.1048  0.0424
 7941TIP3    H245315   5.189   2.775  10.760 -2.4588 -0.1106 -0.3815
 7942TIP3   OH245316   0.174   5.002   0.840 -0.3413 -0.2308  0.4765
 7942TIP3    H145317   0.253   4.963   0.802 -0.8543  2.0961 -3.4275
 7942TIP3    H245318   0.207   5.079   0.888 -0.1255  0.1172 -0.2183
 7943TIP3   OH245319   3.819   6.810   3.857 -0.7221  0.4909  0.1339
 7943TIP3    H145320   3.780   6.728   3.826  0.1689  1.0992 -2.9037
 7943TIP3    H245321   3.754   6.877   3.835 -0.3838  0.8709  0.2752
 7944TIP3   OH245322   3.864   6.299   5.888 -0.5522 -0.4309  0.2798
 7944TIP3    H145323   3.934   6.297   5.954  0.4429  0.1593 -0.7183
 7944TIP3    H245324   3.819   6.215   5.898  0.2504 -0.7926  1.0120
 7945TIP3   OH245325   2.139   1.500  13.444 -0.1989 -0.4705  0.1065
 7945TIP3    H145326   2.129   1.404  13.449 -0.8163 -0.4565 -0.6005
 7945TIP3    H245327   2.059   1.534  13.484  0.6044 -0.2239  1.5298
 7946TIP3   OH245328   5.714   0.529   1.928 -0.0242  0.7739  0.0463
 7946TIP3    H145329   5.650   0.532   1.857  1.8131 -0.8687 -1.8234
 7946TIP3    H245330   5.759   0.613   1.923  1.9324 -0.2940 -2.7227
 7947TIP3   OH245331   4.138   2.485  11.901 -0.1455  0.2373  0.0024
 7947TIP3    H145332   4.219   2.524  11.868 -0.5870  1.7025  0.5455
 7947TIP3    H245333   4.166   2.429  11.974  0.3925  0.6106  0.0872
 7948TIP3   OH245334   2.421   1.896   0.609  0.2548 -0.0740  0.2221
 7948TIP3    H145335   2.503   1.892   0.559 -0.3227 -0.0160 -0.7659
 7948TIP3    H245336   2.389   1.985   0.595 -0.9380 -0.6692 -1.0157
 7949TIP3   OH245337   0.190   5.466   3.283 -0.4195 -0.0547  0.6293
 7949TIP3    H145338   0.229   5.379   3.274 -0.4396  0.1135 -1.4536
 7949TIP3    H245339   0.132   5.458   3.359  0.5603 -1.4647  1.2679
 7950TIP3   OH245340   5.884   5.442   5.493  0.5480  0.1723  0.1079
 7950TIP3    H145341   5.882   5.469   5.585 -1.2043 -0.1488  0.1923
 7950TIP3    H245342   5.840   5.357   5.492  1.0883 -0.1067 -0.9504
 7951TIP3   OH245343   5.763   4.497  14.164 -0.0376  0.0843 -0.2679
 7951TIP3    H145344   5.825   4.425  14.157  0.1825  0.1827  0.4938
 7951TIP3    H245345   5.816   4.576  14.152 -0.2142  0.1287 -0.7485
 7952TIP3   OH245346   5.911   5.691   4.109  0.0557 -0.1377 -0.2152
 7952TIP3    H145347   5.905   5.595   4.115 -2.3627  0.0104  1.1976
 7952TIP3    H245348   5.972   5.707   4.037  0.2700 -2.7256 -0.7119
 7953TIP3   OH245349   4.616   3.039  13.140 -0.1957 -0.0827  0.0526
 7953TIP3    H145350   4.679   3.035  13.068  0.1273 -0.1932  0.3379
 7953TIP3    H245351   4.582   3.129  13.138  0.8902  0.3567  0.6639
 7954TIP3   OH245352   2.870   3.384   2.380 -0.4098 -0.3387  0.0243
 7954TIP3    H145353   2.862   3.315   2.446  1.3163  0.4345  1.0928
 7954TIP3    H245354   2.952   3.365   2.335  0.2376  1.1204  0.5172
 7955TIP3   OH245355   5.638   3.041   1.226  0.2272  0.1206 -0.3582
 7955TIP3    H145356   5.698   3.114   1.241 -0.2206  0.4656 -0.2068
 7955TIP3    H245357   5.686   2.982   1.168 -0.1432  1.5058 -2.1668
 7956TIP3   OH245358   5.430   6.379   2.585 -0.5964  0.5854  0.7420
 7956TIP3    H145359   5.510   6.342   2.548 -0.5633  1.1097  0.2672
 7956TIP3    H245360   5.460   6.453   2.638 -0.8677  1.9004 -0.8654
 7957TIP3   OH245361   2.063   5.486  11.346  0.1545 -0.0106  0.0685
 7957TIP3    H145362   2.092   5.478  11.437 -1.1694  0.9321  0.6131
 7957TIP3    H245363   2.051   5.396  11.316  3.3469 -0.4853 -0.1736
 7958TIP3   OH245364   5.486   3.886   0.069  0.4281  0.3964  0.5277
 7958TIP3    H145365   5.557   3.941   0.103  0.1709  0.7333  0.5249
 7958TIP3    H245366   5.522   3.846  -0.010  0.7312  0.2971  0.7131
 7959TIP3   OH245367   2.992   5.477   1.259 -0.2813  0.2040 -0.0636
 7959TIP3    H145368   2.963   5.557   1.302 -0.2910  0.9421 -1.3814
 7959TIP3    H245369   2.911   5.435   1.229 -0.4404 -1.2932  2.1801
 7960TIP3   OH245370   2.055   5.928   6.083  0.3328  0.0313 -0.0010
 7960TIP3    H145371   2.033   5.959   6.171 -0.6222 -0.3086 -0.1047
 7960TIP3    H245372   2.077   5.835   6.096 -1.8534 -0.5982 -0.3693
 7961TIP3   OH245373   0.216   2.729  11.595 -0.2349  0.0883 -0.1799
 7961TIP3    H145374   0.149   2.793  11.618 -0.9539 -1.1763  1.4909
 7961TIP3    H245375   0.201   2.656  11.656  1.3478 -1.1185 -1.1586
 7962TIP3   OH245376   1.278   3.006   5.927  0.2788 -0.4870 -0.2562
 7962TIP3    H145377   1.282   2.987   6.021 -2.2534 -1.3618 -0.2474
 7962TIP3    H245378   1.342   3.075   5.914 -1.2438  1.7402  2.6692
 7963TIP3   OH245379   2.689   4.291  15.134  0.0266  0.0506 -0.0626
 7963TIP3    H145380   2.755   4.301  15.202 -0.4498  0.1260  0.3972
 7963TIP3    H245381   2.739   4.280  15.053  0.6431 -1.6680  0.4977
 7964TIP3   OH245382   1.872   2.085  11.833 -0.0878  0.2151 -0.0598
 7964TIP3    H145383   1.800   2.023  11.847 -0.6888  0.7187 -0.8348
 7964TIP3    H245384   1.906   2.063  11.746  0.1856  0.4962 -0.0270
 7965TIP3   OH245385   5.567   3.272   6.357  0.4117 -0.1235  0.2596
 7965TIP3    H145386   5.504   3.217   6.311  0.3229  2.0979 -2.5782
 7965TIP3    H245387   5.648   3.220   6.358 -0.2542 -1.1940 -0.2031
 7966TIP3   OH245388   3.791   0.345  14.952 -0.5958  0.1744  0.0394
 7966TIP3    H145389   3.846   0.348  14.874 -1.3164  1.8059 -0.4590
 7966TIP3    H245390   3.717   0.290  14.928 -1.0123  0.9917 -0.5891
 7967TIP3   OH245391   1.814   6.230  15.868 -0.3365  0.0380 -0.6916
 7967TIP3    H145392   1.826   6.318  15.903 -2.1579  0.5851 -1.2949
 7967TIP3    H245393   1.815   6.173  15.945  0.2807  0.6506 -0.2389
 7968TIP3   OH245394   2.509   6.704  14.478  0.4533  0.5873 -0.4363
 7968TIP3    H145395   2.438   6.766  14.465 -0.9915 -1.0740 -0.8353
 7968TIP3    H245396   2.507   6.647  14.401  2.8836  1.0847 -0.9485
 7969TIP3   OH245397   6.504   5.932  10.868  0.2069 -0.9446  0.2632
 7969TIP3    H145398   6.437   5.989  10.907 -1.0303 -2.4122  0.3624
 7969TIP3    H245399   6.569   5.992  10.833 -0.9538  0.5254  0.5358
 7970TIP3   OH245400   6.292   3.118  13.266 -0.2253  0.3804  0.4274
 7970TIP3    H145401   6.379   3.146  13.238 -0.9326  1.2165 -1.0753
 7970TIP3    H245402   6.295   3.119  13.362  0.9438  1.9278  0.4030
 7971TIP3   OH245403   2.200   3.928  15.239 -0.0412  0.1706  0.7323
 7971TIP3    H145404   2.149   3.860  15.195 -0.5555 -0.6913  2.5382
 7971TIP3    H245405   2.286   3.924  15.198  0.1341 -2.0160  1.1618
 7972TIP3   OH245406   5.628   2.302   0.077  0.3738  0.3545 -0.2900
 7972TIP3    H145407   5.612   2.386   0.033 -0.4324 -0.0007 -0.6944
 7972TIP3    H245408   5.562   2.298   0.146  1.2019  0.6004  0.5402
 7973TIP3   OH245409   2.135   2.348  11.397 -0.4140  0.1966 -0.5056
 7973TIP3    H145410   2.072   2.357  11.326  0.4234  0.5122 -1.2377
 7973TIP3    H245411   2.220   2.339  11.353  0.1698  0.7387  0.4512
 7974TIP3   OH245412   3.937   1.038  15.342  0.1145  0.2810 -0.1171
 7974TIP3    H145413   3.948   1.012  15.250  1.7557  1.0203 -0.1751
 7974TIP3    H245414   4.026   1.046  15.375 -0.3792 -2.7615  2.4217
 7975TIP3   OH245415   4.331   0.578   1.928  0.4698  0.2427 -0.0902
 7975TIP3    H145416   4.413   0.537   1.958 -0.2620 -0.8523  0.4765
 7975TIP3    H245417   4.306   0.528   1.851 -0.8167 -0.9209  1.0320
 7976TIP3   OH245418   2.413   6.559  16.219  0.1647  0.3585  0.0087
 7976TIP3    H145419   2.337   6.536  16.166  1.1489 -2.3649 -0.3846
 7976TIP3    H245420   2.400   6.512  16.301 -0.0749  2.4578  1.2516
 7977TIP3   OH245421   0.166   0.434   5.592  0.1331 -0.0319 -0.2143
 7977TIP3    H145422   0.261   0.439   5.580  0.1072  0.5672 -0.1969
 7977TIP3    H245423   0.133   0.401   5.508  0.6288 -3.6345  0.8399
 7978TIP3   OH245424   4.821   6.764   5.901 -0.7250 -0.3834  0.9740
 7978TIP3    H145425   4.800   6.850   5.863  2.1276 -0.1219 -0.2644
 7978TIP3    H245426   4.756   6.705   5.865 -1.2490  0.8249 -0.1456
 7979TIP3   OH245427   3.198   0.973   2.251  0.1771 -0.2758 -0.1622
 7979TIP3    H145428   3.119   0.921   2.266 -1.0648  1.5242 -0.1292
 7979TIP3    H245429   3.256   0.950   2.323 -1.3570  0.2264  1.2858
 7980TIP3   OH245430   2.964   1.295   0.020 -0.5092  0.1825  0.2536
 7980TIP3    H145431   3.000   1.347   0.092  0.7680  2.1962 -1.6979
 7980TIP3    H245432   3.035   1.236  -0.005 -0.7577 -0.1250  0.2628
 7981TIP3   OH245433   1.824   1.202   1.844 -0.4357  0.1031  0.1018
 7981TIP3    H145434   1.909   1.184   1.884 -0.4819  1.8516  1.0918
 7981TIP3    H245435   1.831   1.292   1.811 -1.3689 -0.3032 -1.2692
 7982TIP3   OH245436   3.870   5.008   1.486  0.4818 -0.4342  0.2007
 7982TIP3    H145437   3.882   4.940   1.553  2.8286  0.1881  0.4646
 7982TIP3    H245438   3.777   5.000   1.462 -0.6411 -0.3510  3.8646
 7983TIP3   OH245439   3.488   5.001   6.245  0.2006  0.0591  0.1636
 7983TIP3    H145440   3.411   4.948   6.267 -0.7066  0.7712 -1.1793
 7983TIP3    H245441   3.543   4.943   6.193 -0.0917 -0.0266 -0.0520
 7984TIP3   OH245442   1.213   5.128   5.435 -0.2496  0.2714  0.1093
 7984TIP3    H145443   1.166   5.070   5.494  2.3790 -0.6906  1.4001
 7984TIP3    H245444   1.234   5.205   5.488  2.8816 -0.9657  0.8296
 7985TIP3   OH245445   0.538   1.145   6.513  0.0544 -0.6909 -0.9666
 7985TIP3    H145446   0.457   1.155   6.564  0.1773 -0.5813 -0.7911
 7985TIP3    H245447   0.608   1.160   6.577  0.2214 -1.2772 -1.0023
 7986TIP3   OH245448   5.553   3.457  13.841 -0.2464  0.2720  0.3692
 7986TIP3    H145449   5.592   3.372  13.817  0.9648  0.5632  1.2414
 7986TIP3    H245450   5.503   3.438  13.920  2.0694  0.7902  2.0820
 7987TIP3   OH245451   4.301   4.982   6.385  0.0554 -0.2595  0.2989
 7987TIP3    H145452   4.367   5.036   6.342 -1.4421 -0.6408 -2.7297
 7987TIP3    H245453   4.352   4.917   6.434  1.8642  2.0347  1.6651
 7988TIP3   OH245454   1.382   0.768  13.884  0.3916  0.2994  0.1622
 7988TIP3    H145455   1.330   0.815  13.949 -1.1595 -0.4509 -0.4726
 7988TIP3    H245456   1.432   0.704  13.935  0.1656  0.5694  0.7300
 7989TIP3   OH245457   3.754   2.297  10.369  0.1979  0.0699 -0.0960
 7989TIP3    H145458   3.760   2.272  10.277  0.9369 -0.1591  0.0143
 7989TIP3    H245459   3.664   2.328  10.379  0.3147  0.7659 -1.0635
 7990TIP3   OH245460   5.258   4.829   0.903 -0.8281 -0.1101  0.9455
 7990TIP3    H145461   5.282   4.782   0.823  0.4788  0.6692  0.8404
 7990TIP3    H245462   5.221   4.761   0.960  2.1764 -1.6470  1.2998
 7991TIP3   OH245463   5.424   6.563   2.828  0.1426  0.1174  0.1977
 7991TIP3    H145464   5.340   6.571   2.872 -0.4792 -0.5888 -0.8208
 7991TIP3    H245465   5.458   6.478   2.857  0.6315  0.5138  0.8037
 7992TIP3   OH245466   4.569   2.877  14.133 -0.4390  0.2041  0.5201
 7992TIP3    H145467   4.497   2.937  14.112  0.1598  0.9540  0.5647
 7992TIP3    H245468   4.578   2.821  14.056 -1.4455 -0.2811  0.7425
 7993TIP3   OH245469   0.693   3.946  11.723  0.6226  0.1360 -0.1891
 7993TIP3    H145470   0.779   3.944  11.764  0.8457  1.4926 -0.5262
 7993TIP3    H245471   0.703   4.005  11.648 -1.3169  2.9699  1.5606
 7994TIP3   OH245472   0.465   1.028   1.856 -0.2914 -0.2486  0.3876
 7994TIP3    H145473   0.419   1.076   1.786 -2.3337 -2.5607  0.0058
 7994TIP3    H245474   0.490   1.096   1.919  0.3017  1.7424 -1.8138
 7995TIP3   OH245475   1.982   2.644   4.708  0.6014  0.5250 -0.0291
 7995TIP3    H145476   1.924   2.648   4.783  0.6609 -2.1999  0.2297
 7995TIP3    H245477   1.926   2.667   4.633 -0.1364  0.5719  0.5284
 7996TIP3   OH245478   4.981   3.032   1.981 -0.0748  0.1588 -0.3236
 7996TIP3    H145479   4.938   3.106   2.024 -1.9076  0.0146 -1.7606
 7996TIP3    H245480   5.025   3.070   1.905 -1.6902 -0.2396 -1.5263
 7997TIP3   OH245481   4.999   4.416  12.104  0.1889  0.1862  0.1636
 7997TIP3    H145482   5.019   4.404  12.011 -0.7229 -0.5173  0.0467
 7997TIP3    H245483   5.054   4.353  12.149 -0.2977 -0.3518  0.0040
 7998TIP3   OH245484   0.479   3.514  15.507 -1.3532  0.4430  0.2717
 7998TIP3    H145485   0.555   3.570  15.490 -0.2943 -1.0273  0.0102
 7998TIP3    H245486   0.406   3.575  15.515 -0.1822  1.8819  0.3416
 7999TIP3   OH245487   3.190   6.397   3.613  0.1785 -0.4197 -0.2672
 7999TIP3    H145488   3.122   6.431   3.554 -0.3225 -1.0350 -0.0572
 7999TIP3    H245489   3.165   6.430   3.699  1.6028  1.5326 -0.5407
 8000TIP3   OH245490   2.614   1.398  13.814 -0.2223 -0.1240 -0.3111
 8000TIP3    H145491   2.648   1.469  13.759  0.1298  1.0870  1.3869
 8000TIP3    H245492   2.636   1.424  13.903 -1.3920 -1.6841  0.4838
 8001TIP3   OH245493   2.244   6.414  16.987  0.6753 -0.3628 -0.3055
 8001TIP3    H145494   2.149   6.414  16.998  0.6107 -0.7983 -0.8094
 8001TIP3    H245495   2.275   6.345  17.046  0.4543 -1.7671 -1.7423
 8002TIP3   OH245496   2.107   5.993  16.518  0.0509  0.4428 -0.8881
 8002TIP3    H145497   2.188   5.942  16.510 -1.0943 -2.3192  2.4201
 8002TIP3    H245498   2.104   6.019  16.610 -1.7501  2.5113 -1.4488
 8003TIP3   OH245499   4.183   5.324   4.124  0.0874 -0.3934 -0.1869
 8003TIP3    H145500   4.125   5.255   4.156  0.6902 -1.0627 -0.4991
 8003TIP3    H245501   4.149   5.345   4.037 -0.0872 -0.3123 -0.0990
 8004TIP3   OH245502   2.218   1.039   0.680  0.5085 -0.0326 -0.0488
 8004TIP3    H145503   2.174   0.958   0.658  0.6453  0.4701 -2.4559
 8004TIP3    H245504   2.246   1.075   0.595  3.2083  0.9782  1.1554
 8005TIP3   OH245505   0.570   3.742   4.027  0.2311 -0.6613 -0.0660
 8005TIP3    H145506   0.665   3.734   4.017  0.2213  0.1102 -0.9848
 8005TIP3    H245507   0.557   3.773   4.117  0.8497 -0.7706  0.0621
 8006TIP3   OH245508   1.645   1.280   0.273 -0.8280 -0.0121 -0.3781
 8006TIP3    H145509   1.660   1.275   0.367  2.1035 -2.3836 -0.8209
 8006TIP3    H245510   1.554   1.251   0.261 -1.2150  0.2392  1.6703
 8007TIP3   OH245511   4.776   0.409  11.869 -0.2054  0.0131 -0.6838
 8007TIP3    H145512   4.776   0.504  11.864 -0.8555  0.0016 -1.0291
 8007TIP3    H245513   4.802   0.390  11.959  1.6427  0.4646 -1.0927
 8008TIP3   OH245514   5.187   6.098  14.093 -0.4139 -0.2392 -0.2415
 8008TIP3    H145515   5.134   6.023  14.067 -0.8102 -1.0893  2.6601
 8008TIP3    H245516   5.239   6.066  14.167 -1.3459  2.5419  1.7956
 8009TIP3   OH245517   1.070   4.793  13.647 -0.5911  0.4768 -0.0014
 8009TIP3    H145518   1.002   4.807  13.712  0.7885  1.9434  1.2088
 8009TIP3    H245519   1.048   4.709  13.606 -2.8721  0.7410  0.5864
 8010TIP3   OH245520   5.241   1.497   5.401 -0.2414 -0.4613  0.1370
 8010TIP3    H145521   5.195   1.530   5.478 -1.3598 -1.1618 -0.2030
 8010TIP3    H245522   5.326   1.467   5.434  0.2021  1.2981  0.7015
 8011TIP3   OH245523   6.259   3.785  16.600  0.0904 -0.4157  0.3249
 8011TIP3    H145524   6.317   3.709  16.607  1.1530  0.2990 -0.4784
 8011TIP3    H245525   6.294   3.836  16.527  0.2125  1.5468  1.6780
 8012TIP3   OH245526   4.507   0.062   5.169  0.8793  0.1311 -0.1882
 8012TIP3    H145527   4.536   0.064   5.260 -0.2702 -1.2196  0.2411
 8012TIP3    H245528   4.440   0.130   5.163  0.6006 -0.1092  0.1255
 8013TIP3   OH245529   1.032   0.276  15.064 -0.2384 -0.2475  0.5591
 8013TIP3    H145530   1.066   0.188  15.077  1.0527  0.0840 -0.2685
 8013TIP3    H245531   1.068   0.327  15.136 -0.0259 -0.1599  0.3925
 8014TIP3   OH245532   1.975   5.881  14.887 -0.1237  0.1765  0.1888
 8014TIP3    H145533   1.973   5.973  14.910  0.8347 -0.2355  2.1096
 8014TIP3    H245534   2.051   5.846  14.933 -1.0384 -1.7855  0.3228
 8015TIP3   OH245535   3.887   5.412  12.358 -0.0090  0.0968  0.3485
 8015TIP3    H145536   3.814   5.349  12.352  0.4633 -0.6001  1.5291
 8015TIP3    H245537   3.945   5.388  12.285 -0.1800 -0.3841  0.3662
 8016TIP3   OH245538   2.670   6.777   3.586 -0.3113 -0.0058  0.0036
 8016TIP3    H145539   2.600   6.750   3.527 -0.8551 -0.2416  0.7403
 8016TIP3    H245540   2.725   6.835   3.534 -1.6673  1.0672 -0.2757
 8017TIP3   OH245541   1.772   2.149   0.265 -0.1418  0.4514 -0.0832
 8017TIP3    H145542   1.706   2.154   0.196  1.2808 -0.9433 -1.6315
 8017TIP3    H245543   1.846   2.199   0.231  0.5143 -0.1052  0.5029
 8018TIP3   OH245544   2.019   5.603  16.377  0.4460  0.6697  0.2436
 8018TIP3    H145545   2.105   5.563  16.389  0.4063  0.6035  0.3102
 8018TIP3    H245546   1.988   5.622  16.466  0.7198  1.3913  0.1926
 8019TIP3   OH245547   1.973   3.436  15.298 -0.3227  0.3952 -0.3181
 8019TIP3    H145548   2.045   3.382  15.266 -1.9132 -0.5356 -2.5916
 8019TIP3    H245549   1.959   3.502  15.230  0.6921  2.9507  1.7866
 8020TIP3   OH245550   4.569   4.590   3.040 -0.3343  0.9953 -0.3755
 8020TIP3    H145551   4.477   4.572   3.018 -0.0608  1.0997 -1.7181
 8020TIP3    H245552   4.619   4.531   2.984  0.4307  0.1845  1.0917
 8021TIP3   OH245553   2.975   2.634  15.905  0.7165  0.3037 -0.2431
 8021TIP3    H145554   2.905   2.641  15.969  1.1858  2.0679  0.1208
 8021TIP3    H245555   2.997   2.724  15.883  1.8185 -0.2396 -1.5166
 8022TIP3   OH245556   2.838   6.565   1.711 -0.3836  0.1390 -0.3488
 8022TIP3    H145557   2.757   6.590   1.757  0.0206 -2.4981  2.0574
 8022TIP3    H245558   2.908   6.590   1.771  0.5588  1.1421 -1.8086
 8023TIP3   OH245559   0.686   5.293   0.532 -0.2535  0.4581  0.5471
 8023TIP3    H145560   0.762   5.235   0.539  0.5203  1.2947 -0.4398
 8023TIP3    H245561   0.615   5.245   0.573  0.3759 -1.1540 -0.1516
 8024TIP3   OH245562   2.137   6.496   4.318 -0.6096  0.3857  0.2926
 8024TIP3    H145563   2.136   6.526   4.409  0.3948 -0.6822  0.6812
 8024TIP3    H245564   2.199   6.554   4.274  0.0125 -0.0094  0.6353
 8025TIP3   OH245565   1.460   6.813   0.681  0.6155  0.0823 -0.1287
 8025TIP3    H145566   1.404   6.890   0.676 -0.3587 -0.3458  2.5823
 8025TIP3    H245567   1.426   6.754   0.614  0.4531  1.3881 -1.2467
 8026TIP3   OH245568   5.058   1.603  11.469 -0.1131  0.2145 -0.0159
 8026TIP3    H145569   4.986   1.561  11.516  1.7412 -2.0076  1.0352
 8026TIP3    H245570   5.078   1.542  11.397  1.1697  0.3950  0.1621
 8027TIP3   OH245571   5.997   0.354  15.734 -0.3247  0.2993 -0.3691
 8027TIP3    H145572   5.960   0.289  15.792  1.2950 -0.9688 -0.6629
 8027TIP3    H245573   5.975   0.438  15.773  0.2470 -0.4980  1.7900
 8028TIP3   OH245574   6.277   4.882   4.572 -0.0564  0.4171 -0.1899
 8028TIP3    H145575   6.369   4.860   4.589  0.0201  0.3306 -0.7177
 8028TIP3    H245576   6.260   4.848   4.485 -0.0990  1.9879 -0.8243
 8029TIP3   OH245577   0.082   4.366  15.292 -0.1398 -0.0089 -0.0146
 8029TIP3    H145578   0.143   4.295  15.271 -0.2976  0.6438 -3.2087
 8029TIP3    H245579   0.129   4.421  15.354  0.9963 -1.4970  0.5091
 8030TIP3   OH245580   1.350   1.795  13.221 -0.6095  0.0619 -0.1516
 8030TIP3    H145581   1.414   1.845  13.171 -0.6414 -0.5405 -0.8221
 8030TIP3    H245582   1.265   1.819  13.183 -0.6546 -0.2067 -0.2281
 8031TIP3   OH245583   1.212   1.604  17.086  0.0301 -0.0010 -0.2298
 8031TIP3    H145584   1.199   1.541  17.157 -0.7106 -1.2579 -1.4343
 8031TIP3    H245585   1.277   1.665  17.120 -0.9307 -0.0465  1.8554
 8032TIP3   OH245586   4.671   3.245   4.810  0.0735 -0.3109 -0.0398
 8032TIP3    H145587   4.743   3.291   4.768  0.4861 -2.2214 -1.5345
 8032TIP3    H245588   4.604   3.238   4.742 -0.2717 -1.2796  0.3896
 8033TIP3   OH245589   5.918   3.651  12.592 -0.1016  0.2991 -0.3926
 8033TIP3    H145590   5.888   3.741  12.602  0.9556  1.1129 -3.3557
 8033TIP3    H245591   5.875   3.621  12.512  0.3205 -1.5100  0.0249
 8034TIP3   OH245592   0.588   5.105  16.481  0.5933  0.2307  0.0190
 8034TIP3    H145593   0.684   5.101  16.482  0.5408 -1.3294  0.6150
 8034TIP3    H245594   0.567   5.189  16.522  1.6990  0.9815 -0.8752
 8035TIP3   OH245595   4.682   5.376  13.178 -0.1686  0.3732 -0.0188
 8035TIP3    H145596   4.608   5.315  13.168  0.4168 -0.1628 -1.3039
 8035TIP3    H245597   4.685   5.394  13.272 -0.5072 -1.4333  0.3890
 8036TIP3   OH245598   1.719   4.623  15.065 -0.6420 -0.0091 -0.3088
 8036TIP3    H145599   1.692   4.604  14.976  0.4070  0.3339 -0.7130
 8036TIP3    H245600   1.678   4.554  15.118 -0.9510 -0.4448 -1.1015
 8037TIP3   OH245601   2.218   0.996  16.823 -0.0271  0.0690  0.5032
 8037TIP3    H145602   2.151   0.929  16.834  0.0590 -0.4647 -1.7824
 8037TIP3    H245603   2.300   0.953  16.847  0.0827 -0.8398 -1.3410
 8038TIP3   OH245604   1.632   2.164  14.930  0.3297 -0.3241  0.3516
 8038TIP3    H145605   1.551   2.117  14.951 -0.0991  0.1285 -0.2813
 8038TIP3    H245606   1.665   2.193  15.015 -0.2594 -0.3698  0.6013
 8039TIP3   OH245607   2.909   2.841   0.219  0.3114 -0.0599  0.1433
 8039TIP3    H145608   2.912   2.924   0.173 -0.6695 -0.0461  0.0846
 8039TIP3    H245609   2.832   2.847   0.275  0.3794 -0.8255  0.3397
 8040TIP3   OH245610   5.243   4.090  14.745  0.1440  0.0682  0.1126
 8040TIP3    H145611   5.231   4.031  14.819 -1.2252  0.8336  0.5313
 8040TIP3    H245612   5.256   4.176  14.785  1.6363  0.1571 -0.5039
 8041TIP3   OH245613   1.631   5.200  16.758 -0.5028  0.6249  0.2682
 8041TIP3    H145614   1.588   5.115  16.756  0.2602  0.2360  0.0158
 8041TIP3    H245615   1.709   5.189  16.704  1.0955  0.6689  2.4381
 8042TIP3   OH245616   5.158   3.401   4.910 -0.0755 -0.2003  0.7282
 8042TIP3    H145617   5.081   3.386   4.964 -0.3484  0.1674  0.4497
 8042TIP3    H245618   5.140   3.351   4.830  0.8258 -1.6687  1.4018
 8043TIP3   OH245619   4.689   5.780  13.267  0.1193 -0.3271  0.1355
 8043TIP3    H145620   4.749   5.707  13.250  0.6537  0.2991 -0.7389
 8043TIP3    H245621   4.741   5.842  13.319 -0.0534 -0.1858  0.1402
 8044TIP3   OH245622   0.310   2.113  14.382 -0.3956  0.2255  0.2677
 8044TIP3    H145623   0.291   2.118  14.476 -1.0584 -1.5671  0.2728
 8044TIP3    H245624   0.310   2.019  14.363 -1.6689  0.5861 -1.8045
 8045TIP3   OH245625   0.624   3.765   6.321 -0.2318 -0.2200 -0.2659
 8045TIP3    H145626   0.708   3.751   6.364  0.0932  0.7724 -0.5399
 8045TIP3    H245627   0.609   3.685   6.271  1.8896  0.5530 -2.3778
 8046TIP3   OH245628   0.296   5.284   2.457 -0.4084  0.2164  0.0436
 8046TIP3    H145629   0.336   5.251   2.377 -0.4476  0.5795 -0.1245
 8046TIP3    H245630   0.369   5.294   2.518 -0.2256  1.0080 -0.3063
 8047TIP3   OH245631   0.583   4.026  16.366  0.1329 -0.0503 -0.1764
 8047TIP3    H145632   0.558   4.118  16.379 -1.0039 -0.6289  2.3335
 8047TIP3    H245633   0.672   4.030  16.331  0.8499  2.0275  1.6736
 8048TIP3   OH245634   4.236   3.183   2.812  0.0618 -0.3436 -0.3259
 8048TIP3    H145635   4.154   3.220   2.779  0.4541  0.4587 -0.4249
 8048TIP3    H245636   4.213   3.094   2.839 -0.8207 -0.1585 -0.4364
 8049TIP3   OH245637   6.609   0.558  12.223  0.1228  0.4221 -0.1177
 8049TIP3    H145638   6.632   0.470  12.192  2.8393  0.8631  0.3771
 8049TIP3    H245639   6.629   0.556  12.317 -0.8521  1.2718  0.1192
 8050TIP3   OH245640   5.210   0.676   1.577 -0.5385  0.1310 -0.0369
 8050TIP3    H145641   5.168   0.618   1.640 -1.9423  1.8832  0.7050
 8050TIP3    H245642   5.147   0.683   1.505 -1.4513  2.4797  0.9118
 8051TIP3   OH245643   2.073   0.461  14.972  0.1452  0.1530 -0.4199
 8051TIP3    H145644   2.057   0.434  15.062 -0.1138  0.6102 -0.3242
 8051TIP3    H245645   2.137   0.398  14.938  1.8824  1.2124  0.7430
 8052TIP3   OH245646   2.398   0.285  16.400 -0.3125  0.3068  0.0458
 8052TIP3    H145647   2.333   0.335  16.350  0.0865  1.1570  0.3530
 8052TIP3    H245648   2.482   0.322  16.373  0.0452 -0.7202 -0.2794
 8053TIP3   OH245649   6.422   5.988  15.642  0.4466  0.1587  0.3660
 8053TIP3    H145650   6.344   6.044  15.643  0.2607 -0.0817 -0.0515
 8053TIP3    H245651   6.448   5.981  15.734  0.7851  1.3417  0.3807
 8054TIP3   OH245652   4.578   0.742   4.506 -0.3548  0.0874  0.4803
 8054TIP3    H145653   4.493   0.719   4.542 -2.0535  0.6326 -2.7667
 8054TIP3    H245654   4.623   0.658   4.494 -1.4762 -0.4667  0.0193
 8055TIP3   OH245655   0.907   6.482  15.404 -0.3017  0.6595  0.1953
 8055TIP3    H145656   0.928   6.542  15.333 -0.7563  0.3932 -0.1688
 8055TIP3    H245657   0.951   6.400  15.381  0.1314  0.7785  0.5772
 8056TIP3   OH245658   5.350   3.502   4.119  0.0083 -0.8985  0.3245
 8056TIP3    H145659   5.295   3.574   4.088 -0.5835 -2.0132 -1.3446
 8056TIP3    H245660   5.419   3.544   4.169 -2.9170  0.5576  3.6100
 8057TIP3   OH245661   6.441   3.826   1.666 -0.3375  0.0842 -0.2516
 8057TIP3    H145662   6.372   3.776   1.710 -1.6792  0.7321 -1.5418
 8057TIP3    H245663   6.493   3.863   1.738 -2.0192  0.5021  0.8110
 8058TIP3   OH245664   1.854   6.211  15.599 -0.4060  0.0872 -0.2347
 8058TIP3    H145665   1.839   6.221  15.693 -0.4183 -1.2983 -0.0799
 8058TIP3    H245666   1.771   6.236  15.559 -0.1133  1.5985  0.0447
 8059TIP3   OH245667   1.080   0.838   0.657 -0.7961 -0.3299 -0.0104
 8059TIP3    H145668   1.171   0.828   0.629 -0.4040  0.4556  0.9045
 8059TIP3    H245669   1.032   0.857   0.577  0.0256  0.2832 -0.3815
 8060TIP3   OH245670   6.431   5.846  13.527  0.6057 -0.3598  0.0098
 8060TIP3    H145671   6.511   5.892  13.552  1.0573 -0.8353 -0.5296
 8060TIP3    H245672   6.438   5.836  13.432 -0.3270  0.0161 -0.1104
 8061TIP3   OH245673   4.615   2.107   0.758 -0.1742 -0.0092 -0.4520
 8061TIP3    H145674   4.609   2.051   0.680 -0.1508 -1.3435  0.4633
 8061TIP3    H245675   4.611   2.196   0.724  0.0101 -0.5554 -1.9924
 8062TIP3   OH245676   1.604   2.695   4.342  0.0631 -0.2448 -0.5042
 8062TIP3    H145677   1.509   2.689   4.330  0.0973 -1.2592 -0.3359
 8062TIP3    H245678   1.624   2.629   4.407  0.8093  0.4356 -0.0334
 8063TIP3   OH245679   2.238   3.247   3.847 -0.3797  0.1593  0.4699
 8063TIP3    H145680   2.174   3.265   3.779 -0.2693 -2.0157 -0.2882
 8063TIP3    H245681   2.322   3.269   3.807 -0.3722 -0.4830  0.1137
 8064TIP3   OH245682   0.753   4.603  14.286 -0.2286 -0.1340  0.1329
 8064TIP3    H145683   0.733   4.693  14.260  0.3139 -0.0402  0.0251
 8064TIP3    H245684   0.834   4.582  14.240 -1.1348 -1.2241 -1.0578
 8065TIP3   OH245685   3.549   1.800   0.236 -0.2964  0.0047 -0.3156
 8065TIP3    H145686   3.628   1.846   0.211  0.4633 -1.1206 -0.0778
 8065TIP3    H245687   3.491   1.868   0.270  0.6045  0.8302 -0.3838
 8066TIP3   OH245688   4.122   5.726   5.168  0.1841  0.9131  0.3579
 8066TIP3    H145689   4.046   5.748   5.115 -0.2185  0.3055  0.6740
 8066TIP3    H245690   4.192   5.712   5.104 -0.6965 -1.4918 -0.2103
 8067TIP3   OH245691   3.562   6.001   3.627 -0.2100  0.3228 -0.6154
 8067TIP3    H145692   3.516   6.028   3.705 -0.8707 -1.8159 -0.1926
 8067TIP3    H245693   3.646   6.047   3.631  0.1011 -0.3365  1.7773
 8068TIP3   OH245694   4.345   0.731  14.554 -0.4851 -0.7737 -0.4755
 8068TIP3    H145695   4.413   0.795  14.533 -1.6004  0.0159 -1.8777
 8068TIP3    H245696   4.263   0.779  14.545 -1.2453 -1.3598  2.4308
 8069TIP3   OH245697   3.398   0.883   1.074  0.5552  0.3019  0.3110
 8069TIP3    H145698   3.346   0.918   1.146  1.9424  2.1625  0.4739
 8069TIP3    H245699   3.351   0.911   0.995  0.3721  0.4268  0.4632
 8070TIP3   OH245700   2.494   0.112   1.955 -0.6651 -0.1803  0.3171
 8070TIP3    H145701   2.508   0.205   1.937  0.4333 -0.1975  0.9859
 8070TIP3    H245702   2.401   0.098   1.939 -0.7135  0.8783 -0.4556
 8071TIP3   OH245703   5.177   6.494   0.520  0.1109  0.3943  0.3265
 8071TIP3    H145704   5.169   6.581   0.560 -0.8170  0.5075 -0.0879
 8071TIP3    H245705   5.171   6.510   0.426 -1.8029 -0.2728  0.2965
 8072TIP3   OH245706   6.806   3.794   5.646 -0.5482  0.0405  0.3338
 8072TIP3    H145707   6.727   3.847   5.654 -1.3008 -0.9127 -0.4517
 8072TIP3    H245708   6.791   3.718   5.702 -0.1492 -0.0945  0.2649
 8073TIP3   OH245709   2.553   2.957  12.603  0.0976 -0.0572 -0.1517
 8073TIP3    H145710   2.498   3.035  12.594  0.6900  0.6149  1.5586
 8073TIP3    H245711   2.572   2.931  12.513  0.2825  2.0812 -0.8002
 8074TIP3   OH245712   3.523   2.031  17.159 -0.8084  0.6243  0.6128
 8074TIP3    H145713   3.519   1.948  17.111 -0.2062  0.4005  0.9343
 8074TIP3    H245714   3.556   2.094  17.096  0.4625  0.2239  0.8583
 8075TIP3   OH245715   3.323   6.404   0.417  0.3852  0.6534 -0.0351
 8075TIP3    H145716   3.351   6.319   0.383 -0.8742 -0.2738  1.1289
 8075TIP3    H245717   3.386   6.467   0.381  1.8516 -0.8651 -0.2284
 8076TIP3   OH245718   5.483   2.225  14.740  0.1256  0.6577 -0.3653
 8076TIP3    H145719   5.543   2.298  14.751  0.4301  0.4894 -0.9200
 8076TIP3    H245720   5.399   2.258  14.773  0.4703  0.9528  0.2314
 8077TIP3   OH245721   5.594   4.459   0.811 -0.4205  0.0654  0.4268
 8077TIP3    H145722   5.512   4.472   0.859 -0.6878  0.5671 -0.1480
 8077TIP3    H245723   5.657   4.516   0.853 -0.6742  0.5624  0.1396
 8078TIP3   OH245724   2.594   4.776  14.723  0.0757 -0.3085 -0.1774
 8078TIP3    H145725   2.687   4.796  14.713 -0.2941  2.6594  1.3237
 8078TIP3    H245726   2.554   4.808  14.642  0.1860 -0.3445 -0.2465
 8079TIP3   OH245727   2.765   1.612  14.914 -0.4260 -0.5199  0.0808
 8079TIP3    H145728   2.699   1.651  14.857 -1.0194  1.4303  1.9997
 8079TIP3    H245729   2.719   1.594  14.996  1.4801  1.5001  1.7120
 8080TIP3   OH245730   2.990   6.100  12.347  0.4972  0.0055  0.2860
 8080TIP3    H145731   3.036   6.032  12.396 -0.0820 -0.4047  0.2760
 8080TIP3    H245732   2.917   6.125  12.403 -0.4397 -0.7970 -0.5459
 8081TIP3   OH245733   1.283   5.537   1.964 -0.4184  0.3399  0.6004
 8081TIP3    H145734   1.212   5.473   1.955  1.1165 -1.2670 -0.8256
 8081TIP3    H245735   1.346   5.495   2.023  0.6845  0.4210 -0.4722
 8082TIP3   OH245736   2.340   0.441  14.393 -0.1995  0.0843  0.2066
 8082TIP3    H145737   2.249   0.428  14.420 -0.0907  0.1376  0.6042
 8082TIP3    H245738   2.334   0.489  14.311 -0.4999  2.8132  1.7103
 8083TIP3   OH245739   0.080   2.775   5.301 -0.0559 -0.6087 -0.2407
 8083TIP3    H145740  -0.004   2.734   5.280 -0.8855  0.6332  0.5037
 8083TIP3    H245741   0.063   2.824   5.382  1.0592  0.6310 -0.7200
 8084TIP3   OH245742   1.817   1.311   0.054 -0.9249 -0.0585  0.7418
 8084TIP3    H145743   1.867   1.229   0.059 -0.5031  0.1849  0.6257
 8084TIP3    H245744   1.760   1.309   0.130 -0.9284 -0.4667  0.7323
 8085TIP3   OH245745   6.203   1.091  12.920  0.4553 -0.3993 -0.2827
 8085TIP3    H145746   6.142   1.038  12.868 -0.6655  1.8568 -1.3894
 8085TIP3    H245747   6.228   1.163  12.863  1.9912  0.2677  1.1370
 8086TIP3   OH245748   6.307   1.928   5.523  0.1779 -0.0050  0.6650
 8086TIP3    H145749   6.348   1.859   5.575  1.0341  0.2196  0.3044
 8086TIP3    H245750   6.377   1.959   5.466 -0.6717 -0.0480 -0.4215
 8087TIP3   OH245751   2.837   0.400   3.433  0.5404  0.8649  0.0855
 8087TIP3    H145752   2.912   0.427   3.486  0.4606 -0.7308  1.0491
 8087TIP3    H245753   2.762   0.443   3.474  0.6187  0.4981  0.6179
 8088TIP3   OH245754   6.285   5.402  12.858  0.9438  0.6008 -0.7006
 8088TIP3    H145755   6.370   5.387  12.816  0.6046 -1.5063 -0.7602
 8088TIP3    H245756   6.289   5.352  12.939 -0.2930  0.3436 -0.7824
 8089TIP3   OH245757   6.695   1.437  13.202  0.3325 -0.7276 -0.0388
 8089TIP3    H145758   6.600   1.424  13.203  0.3200 -0.6382 -0.0501
 8089TIP3    H245759   6.731   1.349  13.214  0.2422 -0.6662  0.7294
 8090TIP3   OH245760   4.303   5.775   4.350  0.0905 -0.3428  0.0342
 8090TIP3    H145761   4.237   5.774   4.420  1.1466  1.6413  1.1397
 8090TIP3    H245762   4.324   5.683   4.336  0.4587 -0.8164  2.9735
 8091TIP3   OH245763   3.012   3.046   2.159  0.0737 -0.2306 -0.1830
 8091TIP3    H145764   3.022   3.141   2.157  0.4218 -0.2209  1.2685
 8091TIP3    H245765   3.100   3.012   2.145  0.5465 -0.2701  2.5226
 8092TIP3   OH245766   2.181   2.717   5.071  0.3785 -0.3758 -0.0087
 8092TIP3    H145767   2.164   2.783   5.138  1.8472  0.4881 -0.4396
 8092TIP3    H245768   2.095   2.695   5.036 -0.1315  1.3701  0.0918
 8093TIP3   OH245769   1.420   3.446   3.553  0.0470  0.1071 -0.1670
 8093TIP3    H145770   1.383   3.534   3.558  0.2038  0.2888 -1.7186
 8093TIP3    H245771   1.344   3.388   3.555 -0.1964  0.3762 -1.0784
 8094TIP3   OH245772   5.717   0.043   1.219 -0.1520 -0.0070 -0.4386
 8094TIP3    H145773   5.681  -0.046   1.209 -0.5915 -0.0209  1.0368
 8094TIP3    H245774   5.647   0.100   1.189 -0.2111 -0.1340 -0.5456
 8095TIP3   OH245775   2.448   5.085   4.687  0.0657  0.0928 -0.0221
 8095TIP3    H145776   2.356   5.064   4.701  0.0098 -0.3726 -0.9618
 8095TIP3    H245777   2.462   5.168   4.733 -1.0368  0.5936 -0.5537
 8096TIP3   OH245778   0.031   4.788   2.231  0.0955  0.5123 -0.0341
 8096TIP3    H145779  -0.051   4.784   2.281  0.1837  1.3100  0.1854
 8096TIP3    H245780   0.029   4.874   2.188  0.2722  0.0571 -0.9797
 8097TIP3   OH245781   3.540   0.591  12.945  0.1326 -0.3744 -0.1262
 8097TIP3    H145782   3.621   0.581  12.895 -0.4345  1.9597 -1.7197
 8097TIP3    H245783   3.490   0.657  12.896 -2.4646 -1.2506  1.1461
 8098TIP3   OH245784   6.730   5.703   5.683 -0.5531 -0.6418  0.0444
 8098TIP3    H145785   6.666   5.760   5.725 -0.5287  2.2814 -3.3988
 8098TIP3    H245786   6.810   5.713   5.736 -0.4448  3.0196 -0.5497
 8099TIP3   OH245787   5.497   5.942   6.763  0.6806 -0.4286  0.4736
 8099TIP3    H145788   5.449   5.865   6.795  2.5891 -0.9062  2.4101
 8099TIP3    H245789   5.557   5.908   6.697 -0.1573 -0.1595 -0.4548
 8100TIP3   OH245790   3.310   0.365  17.169 -0.4213 -0.2431  0.2186
 8100TIP3    H145791   3.367   0.383  17.095 -0.5419  0.2798  0.2550
 8100TIP3    H245792   3.341   0.281  17.203  0.1148 -0.1205  0.0359
 8101TIP3   OH245793   0.261   3.917   3.943 -0.1061 -0.1881  0.1918
 8101TIP3    H145794   0.255   3.971   3.864  0.5867  1.2027  1.0566
 8101TIP3    H245795   0.229   3.973   4.013 -0.0761 -1.1700  1.0199
 8102TIP3   OH245796   3.294   6.274  15.785  0.2840  0.2694 -0.0842
 8102TIP3    H145797   3.204   6.285  15.817 -0.2449  0.4881 -1.5807
 8102TIP3    H245798   3.349   6.306  15.857 -0.7774 -0.9846  1.3280
 8103TIP3   OH245799   4.107   3.058  14.737 -0.4641  0.3781 -0.3375
 8103TIP3    H145800   4.052   3.136  14.749  1.5071  2.0828 -1.5609
 8103TIP3    H245801   4.167   3.060  14.812 -1.3485 -0.8747  0.4348
 8104TIP3   OH245802   0.715   6.158   3.366 -0.0162 -0.4381 -0.4606
 8104TIP3    H145803   0.773   6.083   3.367  0.1005 -0.3444  0.5870
 8104TIP3    H245804   0.654   6.143   3.439 -0.3005  0.2391 -0.5451
 8105TIP3   OH245805   3.940   5.660   0.187 -0.1800  0.3504  0.8613
 8105TIP3    H145806   3.877   5.730   0.201 -0.1265  0.6679 -0.3599
 8105TIP3    H245807   3.892   5.580   0.208 -0.2493  0.7272  2.2256
 8106TIP3   OH245808   3.804   4.431   4.281 -0.3578  0.0511  0.7881
 8106TIP3    H145809   3.709   4.441   4.280 -0.4035  0.0974 -2.0821
 8106TIP3    H245810   3.820   4.346   4.241  0.8413  0.4237  0.4314
 8107TIP3   OH245811   1.414   1.050  14.810 -0.1091  0.2593 -0.3938
 8107TIP3    H145812   1.372   0.966  14.791  0.9714 -1.1065  2.6292
 8107TIP3    H245813   1.375   1.111  14.747 -2.1207 -2.1442 -1.6668
 8108TIP3   OH245814   5.482   3.237   6.717  0.4690  0.0785  0.3567
 8108TIP3    H145815   5.524   3.155   6.691 -1.0472 -1.9567  3.6005
 8108TIP3    H245816   5.397   3.210   6.750 -0.9128  3.2897 -0.2737
 8109TIP3   OH245817   5.173   5.285   5.799  0.1721  0.1061 -0.0304
 8109TIP3    H145818   5.158   5.376   5.824  3.9391  0.8466  0.1255
 8109TIP3    H245819   5.181   5.238   5.883 -0.1546 -0.0661 -0.0921
 8110TIP3   OH245820   4.885   0.422   3.058 -0.4594 -0.6550 -0.0964
 8110TIP3    H145821   4.819   0.480   3.021 -2.6951 -3.3992 -0.7463
 8110TIP3    H245822   4.850   0.398   3.144  0.5697 -0.7992  0.2951
 8111TIP3   OH245823   0.806   4.523   1.315  0.3021 -0.3861 -0.2399
 8111TIP3    H145824   0.833   4.563   1.398  2.0386  0.2536 -1.0544
 8111TIP3    H245825   0.876   4.460   1.296 -0.1530 -0.6278 -1.1551
 8112TIP3   OH245826   2.690   5.945  12.225  0.3147 -0.0606  0.3653
 8112TIP3    H145827   2.637   6.021  12.200  0.8736 -0.4901 -2.4707
 8112TIP3    H245828   2.669   5.879  12.159  0.6779 -2.0236  2.1125
 8113TIP3   OH245829   3.467   0.207  12.227 -0.5707 -0.2926 -0.6882
 8113TIP3    H145830   3.472   0.253  12.143  0.2285  2.9153  0.9197
 8113TIP3    H245831   3.556   0.173  12.241 -0.4385  0.0249 -0.7384
 8114TIP3   OH245832   0.632   1.099  14.386  0.0228 -0.4074 -1.0359
 8114TIP3    H145833   0.554   1.080  14.438 -0.4372 -0.2574 -1.6569
 8114TIP3    H245834   0.693   1.140  14.448 -0.6450  0.0845 -0.6898
 8115TIP3   OH245835   2.313   5.963   4.327  0.5357 -0.6400 -0.0597
 8115TIP3    H145836   2.351   5.957   4.415  1.4868 -0.7983 -0.4698
 8115TIP3    H245837   2.297   6.057   4.314  3.2610 -0.1844 -0.8594
 8116TIP3   OH245838   3.349   4.411   2.830 -0.1136  0.3152  0.3776
 8116TIP3    H145839   3.357   4.374   2.918 -3.0655  1.9573  1.4702
 8116TIP3    H245840   3.412   4.483   2.828  0.1672  0.0939  1.0484
 8117TIP3   OH245841   3.446   4.042   1.156 -0.9018 -0.7330 -0.5822
 8117TIP3    H145842   3.436   4.133   1.128 -1.8617 -0.6253  0.0660
 8117TIP3    H245843   3.409   4.040   1.244  0.9080 -1.3289  0.2119
 8118TIP3   OH245844   6.109   1.772  11.833 -0.6119  0.1892  0.5960
 8118TIP3    H145845   6.126   1.865  11.847 -0.6436  0.1261  1.0892
 8118TIP3    H245846   6.176   1.744  11.772 -1.5986  0.9004 -0.8665
 8119TIP3   OH245847   2.755   3.289  14.178  0.5447  0.1450  0.2474
 8119TIP3    H145848   2.713   3.277  14.093 -0.7877  0.0005  0.8932
 8119TIP3    H245849   2.704   3.358  14.220  0.2341 -0.8148  1.5138
 8120TIP3   OH245850   1.272   2.218   5.713  0.0245  0.2215  0.2874
 8120TIP3    H145851   1.256   2.206   5.807 -1.1844 -1.2773 -0.0575
 8120TIP3    H245852   1.351   2.271   5.709  0.6360 -0.4343  2.1639
 8121TIP3   OH245853   4.492   5.503   5.457 -0.2432 -0.5100  0.3888
 8121TIP3    H145854   4.568   5.539   5.412 -0.2457  0.2411  0.9581
 8121TIP3    H245855   4.524   5.424   5.501  0.2323 -0.1414  0.7068
 8122TIP3   OH245856   5.137   6.350  16.701  0.0948  0.1619  0.1502
 8122TIP3    H145857   5.105   6.351  16.792  0.2889 -0.6308  0.2366
 8122TIP3    H245858   5.063   6.380  16.649 -0.6487 -1.1774  0.3977
 8123TIP3   OH245859   0.200   0.126   5.217 -0.2998  0.3206 -0.2877
 8123TIP3    H145860   0.291   0.095   5.217 -0.7165 -1.0959  1.6348
 8123TIP3    H245861   0.205   0.215   5.254  0.3017  0.2659 -0.2281
 8124TIP3   OH245862   4.125   5.520   6.066  0.1283  0.9190  1.1399
 8124TIP3    H145863   4.076   5.472   5.998  0.7152 -0.0123  1.3572
 8124TIP3    H245864   4.204   5.467   6.080  1.1755  2.3522  0.8494
 8125TIP3   OH245865   3.238   0.380   5.130  0.1321 -0.7402  0.2669
 8125TIP3    H145866   3.291   0.387   5.051 -0.2891 -0.6688 -0.0101
 8125TIP3    H245867   3.148   0.393   5.100 -0.0393 -0.8226  0.7396
 8126TIP3   OH245868   5.152   2.267   2.940  0.0326 -0.3844  0.2709
 8126TIP3    H145869   5.105   2.350   2.935 -1.7575 -1.4150 -1.0495
 8126TIP3    H245870   5.128   2.231   3.026 -0.0580 -0.0646  0.3826
 8127TIP3   OH245871   4.632   6.569  11.684  0.2562 -0.1237 -0.4751
 8127TIP3    H145872   4.706   6.612  11.641  0.6326  0.5127  0.7613
 8127TIP3    H245873   4.645   6.586  11.777 -1.0584 -0.6292 -0.1746
 8128TIP3   OH245874   1.790   5.617   4.556 -0.5405  0.7392  0.0174
 8128TIP3    H145875   1.811   5.623   4.463 -1.2034  1.0118 -0.1193
 8128TIP3    H245876   1.739   5.696   4.574  0.6327  1.3424  0.9037
 8129TIP3   OH245877   5.706   4.412   5.185  0.0061  0.3941  1.3117
 8129TIP3    H145878   5.641   4.438   5.251  0.8409  0.8415  1.9773
 8129TIP3    H245879   5.758   4.491   5.171 -0.8306  0.6470 -0.7323
 8130TIP3   OH245880   2.269   5.281  14.103  0.4909 -0.0199 -0.4384
 8130TIP3    H145881   2.261   5.345  14.032  1.0376 -0.6303 -1.0663
 8130TIP3    H245882   2.278   5.197  14.058 -0.0130 -0.5163  0.3744
 8131TIP3   OH245883   4.103   5.570   1.156  0.0678 -0.4728  0.2898
 8131TIP3    H145884   4.019   5.548   1.115 -0.2605  0.8420  0.2074
 8131TIP3    H245885   4.086   5.652   1.202  1.0942 -0.6316  0.9924
 8132TIP3   OH245886   4.165   0.154   0.894 -0.2646  0.6277 -0.0031
 8132TIP3    H145887   4.219   0.077   0.881 -1.6248 -0.4020  0.2140
 8132TIP3    H245888   4.187   0.185   0.982 -0.9719 -0.5805  0.6193
 8133TIP3   OH245889   1.479   3.961  14.255 -0.3999  0.0354  0.0749
 8133TIP3    H145890   1.483   4.056  14.250  0.6604  0.1169  1.6780
 8133TIP3    H245891   1.470   3.942  14.348  2.6079 -1.4480  0.1821
 8134TIP3   OH245892   0.167   3.124   2.070  0.6394 -0.4625 -0.0842
 8134TIP3    H145893   0.167   3.030   2.088  0.0003 -0.1345  1.8753
 8134TIP3    H245894   0.259   3.150   2.079  0.6627 -0.7232  0.4661
 8135TIP3   OH245895   0.728   5.065   1.835  0.3681 -0.1959 -0.3311
 8135TIP3    H145896   0.653   5.052   1.777 -0.1654  0.3334  0.2272
 8135TIP3    H245897   0.752   5.157   1.823  0.5780 -0.2194 -0.0980
 8136TIP3   OH245898   3.215   5.085   3.436  0.0992  0.1112  0.3770
 8136TIP3    H145899   3.249   4.998   3.412 -1.0361 -0.1991 -0.1567
 8136TIP3    H245900   3.198   5.079   3.530 -0.9155 -0.5858  0.1654
 8137TIP3   OH245901   4.524   4.909  14.131  0.3790 -0.1527  0.1262
 8137TIP3    H145902   4.511   4.822  14.094 -1.1045 -0.6740  1.7496
 8137TIP3    H245903   4.604   4.941  14.089  1.0960 -2.3710 -0.3530
 8138TIP3   OH245904   2.685   4.341   2.344 -0.5127 -0.0591 -0.4354
 8138TIP3    H145905   2.753   4.295   2.394 -0.1526 -1.2200 -1.9031
 8138TIP3    H245906   2.725   4.358   2.259 -1.6287  0.3961 -0.8938
 8139TIP3   OH245907   1.884   6.450  12.337 -0.4842 -0.0205  0.1367
 8139TIP3    H145908   1.806   6.425  12.286  0.4159 -1.0138 -0.8239
 8139TIP3    H245909   1.899   6.542  12.314 -1.2662  0.1323  0.2020
 8140TIP3   OH245910   6.538   5.588   4.591 -0.2762 -0.0626 -0.6105
 8140TIP3    H145911   6.506   5.676   4.612  3.5693  2.2127 -3.1620
 8140TIP3    H245912   6.469   5.551   4.536 -1.3099  1.9954 -0.8365
 8141TIP3   OH245913   2.469   4.618  17.068  0.0412 -0.1706  0.5773
 8141TIP3    H145914   2.470   4.692  17.129 -0.8862  0.7441 -0.4736
 8141TIP3    H245915   2.507   4.545  17.118  2.5825  1.3880  1.1484
 8142TIP3   OH245916   3.621   4.080  16.312  0.0377  0.1990 -0.8094
 8142TIP3    H145917   3.635   4.012  16.245  1.4332  0.7461 -1.1025
 8142TIP3    H245918   3.620   4.162  16.263  0.8898  0.5902 -0.1959
 8143TIP3   OH245919   5.222   5.510   3.471  0.7627  0.2645 -0.6524
 8143TIP3    H145920   5.229   5.539   3.562 -1.4744  2.2855 -1.0094
 8143TIP3    H245921   5.143   5.455   3.470  1.8458 -1.3516 -1.0701
 8144TIP3   OH245922   4.434   0.301   0.693 -0.0146 -0.0897  0.8676
 8144TIP3    H145923   4.347   0.311   0.654 -0.1760  2.3607  1.6583
 8144TIP3    H245924   4.482   0.247   0.630 -1.3412  0.6507 -0.8978
 8145TIP3   OH245925   6.331   1.062  17.182  0.0175  0.0721  0.1876
 8145TIP3    H145926   6.245   1.032  17.152  0.1737  0.4161 -0.6353
 8145TIP3    H245927   6.371   1.102  17.105  0.3481  1.1943  0.9105
 8146TIP3   OH245928   6.456   2.514  14.029  0.2724  0.3041 -0.0769
 8146TIP3    H145929   6.533   2.491  13.977  0.9219 -0.9103  1.3456
 8146TIP3    H245930   6.392   2.545  13.965  0.5377 -2.3692 -1.8166
 8147TIP3   OH245931   3.607   0.937  14.111  0.2715 -0.4769 -0.2509
 8147TIP3    H145932   3.636   0.856  14.069 -1.1975 -0.3062 -1.7194
 8147TIP3    H245933   3.573   0.909  14.196  1.3598 -1.1552 -0.0264
 8148TIP3   OH245934   5.817   4.302  11.790  0.0649 -0.4869  0.2568
 8148TIP3    H145935   5.789   4.392  11.776 -1.9804 -1.3846 -2.0287
 8148TIP3    H245936   5.745   4.260  11.837 -1.1153 -1.9325 -2.5719
 8149TIP3   OH245937   1.243   3.731  14.241  0.3001 -0.1135  0.2184
 8149TIP3    H145938   1.153   3.764  14.234  0.1404 -0.3393  1.0998
 8149TIP3    H245939   1.298   3.809  14.243  0.3957  0.0471 -3.0318
 8150TIP3   OH245940   6.332   1.616  12.019 -0.4640 -0.6329  0.2778
 8150TIP3    H145941   6.361   1.548  11.958 -3.0132 -0.9887 -0.6279
 8150TIP3    H245942   6.329   1.572  12.104 -0.4334 -1.1587  0.0118
 8151TIP3   OH245943   0.533   5.318  15.743  0.2127 -0.6797 -0.0531
 8151TIP3    H145944   0.589   5.241  15.728  1.3710 -0.3832  2.3097
 8151TIP3    H245945   0.594   5.392  15.739 -0.5056 -0.0865 -0.0970
 8152TIP3   OH245946   6.534   1.217   0.909 -0.5685  0.8069 -0.1101
 8152TIP3    H145947   6.483   1.280   0.857 -4.2005 -0.5093  1.5070
 8152TIP3    H245948   6.522   1.134   0.864  1.0582  0.5842 -0.1945
 8153TIP3   OH245949   2.220   0.932  13.886  0.1571  0.3766 -0.6291
 8153TIP3    H145950   2.158   0.860  13.891  0.5039  0.0909 -0.4491
 8153TIP3    H245951   2.177   0.996  13.828 -0.7364  0.6227  0.2683
 8154TIP3   OH245952   6.059   6.283   7.098 -0.0854 -0.3752  0.3138
 8154TIP3    H145953   5.974   6.315   7.067  0.8349 -0.4020 -2.5384
 8154TIP3    H245954   6.071   6.199   7.054  1.5409 -0.2100  0.3747
 8155TIP3   OH245955   4.388   6.621   4.241  0.1528  0.0185 -0.0276
 8155TIP3    H145956   4.418   6.666   4.161  1.3336 -1.2414 -0.3298
 8155TIP3    H245957   4.440   6.541   4.244 -1.2690 -0.9123  0.9779
 8156TIP3   OH245958   4.273   0.485   4.230 -0.3725 -0.5214 -0.4511
 8156TIP3    H145959   4.331   0.413   4.256 -1.7585 -1.6389 -0.3529
 8156TIP3    H245960   4.278   0.546   4.304  0.2428 -0.8625 -0.1965
 8157TIP3   OH245961   6.413   4.039   3.772  0.9194 -0.0694 -0.3233
 8157TIP3    H145962   6.355   4.111   3.796  1.7360 -0.5101  3.7100
 8157TIP3    H245963   6.497   4.080   3.754  0.6496  0.1659 -1.0946
 8158TIP3   OH245964   5.237   0.210  16.811 -1.1195  0.3733  0.2093
 8158TIP3    H145965   5.325   0.173  16.817 -0.3845  1.7339 -1.3753
 8158TIP3    H245966   5.229   0.267  16.887 -0.2693  0.9496 -0.1226
 8159TIP3   OH245967   2.674   3.558   0.379 -0.4463 -0.0673 -0.1671
 8159TIP3    H145968   2.675   3.622   0.451 -0.0888 -1.7515  1.3899
 8159TIP3    H245969   2.586   3.521   0.382 -0.7190  0.4741 -1.2003
 8160TIP3   OH245970   6.641   2.115   2.532 -0.1409  0.2175 -0.0745
 8160TIP3    H145971   6.623   2.027   2.499 -0.1103  0.4004 -0.5958
 8160TIP3    H245972   6.645   2.170   2.453 -1.4783  0.9264  0.3185
 8161TIP3   OH245973   5.830   2.470   3.502 -0.1340 -0.1292 -0.3066
 8161TIP3    H145974   5.920   2.501   3.499  0.0986 -0.6640  0.8201
 8161TIP3    H245975   5.837   2.375   3.505 -0.6617 -0.1515  1.3397
 8162TIP3   OH245976   1.799   5.487  11.493  0.2044 -0.3123 -0.6945
 8162TIP3    H145977   1.877   5.542  11.496 -0.9997  1.5881 -1.6911
 8162TIP3    H245978   1.789   5.464  11.401  0.2757 -1.6324 -0.3923
 8163TIP3   OH245979   0.425   3.785  16.433 -0.1253 -0.2113 -0.2538
 8163TIP3    H145980   0.339   3.805  16.469  0.8658 -0.2798  2.4090
 8163TIP3    H245981   0.456   3.868  16.396 -0.9135  0.0630 -0.3180
 8164TIP3   OH245982   2.271   5.944  12.374  0.4679 -0.1177  0.4336
 8164TIP3    H145983   2.247   5.852  12.367  0.2887 -0.1878  1.8386
 8164TIP3    H245984   2.210   5.989  12.314  0.5698 -0.8976 -0.2680
 8165TIP3   OH245985   5.890   5.131  15.285 -0.0552 -0.3842  0.2280
 8165TIP3    H145986   5.835   5.125  15.207 -0.9634 -1.9587  0.9337
 8165TIP3    H245987   5.969   5.175  15.255 -0.6667 -0.3153 -1.4144
 8166TIP3   OH245988   1.968   5.584  14.631 -0.6262 -0.3525  0.5016
 8166TIP3    H145989   1.941   5.630  14.710 -0.2021 -0.7839  0.9036
 8166TIP3    H245990   2.015   5.507  14.663  0.3562 -0.0509 -0.1694
 8167TIP3   OH245991   0.641   4.576  14.811 -0.3967  0.6469 -0.1876
 8167TIP3    H145992   0.631   4.613  14.723 -0.7908  1.4716  0.1967
 8167TIP3    H245993   0.579   4.504  14.815 -0.7091  0.9035 -0.4283
 8168TIP3   OH245994   3.742   4.047   4.602  0.1520 -0.1564 -0.0905
 8168TIP3    H145995   3.731   3.977   4.538  3.7501  0.3514 -1.4498
 8168TIP3    H245996   3.800   4.010   4.669 -1.3604  0.2253  1.5256
 8169TIP3   OH245997   5.235   2.540  13.657  0.3432  0.2820  0.2027
 8169TIP3    H145998   5.272   2.592  13.585  0.2943 -0.1143 -0.1137
 8169TIP3    H245999   5.310   2.514  13.709  1.0633 -3.3465 -2.2491
 8170TIP3   OH246000   5.692   4.555  14.548 -0.2650  0.6481  0.3944
 8170TIP3    H146001   5.764   4.604  14.509  1.1772 -0.9877  0.8542
 8170TIP3    H246002   5.711   4.555  14.642 -0.8282  0.1457  0.5165
 8171TIP3   OH246003   5.500   0.820   1.824  0.1647 -0.4973  0.1142
 8171TIP3    H146004   5.523   0.912   1.836  0.8984 -0.6202 -0.3082
 8171TIP3    H246005   5.560   0.772   1.882  0.6581 -0.7872 -0.6204
 8172TIP3   OH246006   4.439   4.685  14.730  0.5286  0.6538  0.4859
 8172TIP3    H146007   4.359   4.682  14.677 -0.9120  2.3387  2.3654
 8172TIP3    H246008   4.472   4.774  14.719  0.2317  1.0327  2.2363
 8173TIP3   OH246009   3.486   0.148   4.911 -0.1206 -0.0263 -0.2270
 8173TIP3    H146010   3.569   0.172   4.869  0.1021 -0.4329 -0.0199
 8173TIP3    H246011   3.510   0.124   5.001 -0.0968 -2.6397 -0.8619
 8174TIP3   OH246012   5.014   2.139  11.729 -0.0320  0.1036 -0.3395
 8174TIP3    H146013   4.977   2.129  11.817  0.8259 -1.2108 -0.1024
 8174TIP3    H246014   5.094   2.190  11.742 -0.3080  0.5776 -0.4739
 8175TIP3   OH246015   1.383   6.082   5.327  0.2355 -0.4960  0.5798
 8175TIP3    H146016   1.452   6.149   5.323  1.0430 -1.3047  0.4904
 8175TIP3    H246017   1.342   6.087   5.240 -0.0403  0.2086  0.7424
 8176TIP3   OH246018   0.555   4.675   0.854 -0.0535  0.2995  0.2848
 8176TIP3    H146019   0.612   4.752   0.858  0.5644 -0.1565  0.3208
 8176TIP3    H246020   0.581   4.621   0.929  0.9711 -0.9266 -0.8929
 8177TIP3   OH246021   3.800   4.615   2.387 -0.1860  0.2526 -0.0610
 8177TIP3    H146022   3.827   4.664   2.464  2.2173 -1.5839  0.3866
 8177TIP3    H246023   3.789   4.680   2.319  0.5236  1.6281  1.0949
 8178TIP3   OH246024   5.820   5.230   1.679  0.0063  0.6275  0.5061
 8178TIP3    H146025   5.797   5.164   1.745 -0.2182 -0.0417 -0.2286
 8178TIP3    H246026   5.771   5.308   1.706  0.7454  0.7075  1.7315
 8179TIP3   OH246027   5.645   0.300  16.753  0.3088  0.3695  0.1186
 8179TIP3    H146028   5.665   0.339  16.668  0.8838  1.3376  0.6887
 8179TIP3    H246029   5.650   0.205  16.737  0.1603  0.5315 -0.9785
 8180TIP3   OH246030   0.201   4.131   3.315 -0.4720 -0.3142 -0.3588
 8180TIP3    H146031   0.291   4.111   3.290  0.0107  0.6812  0.5138
 8180TIP3    H246032   0.171   4.052   3.360  0.6123  0.0156  1.0049
 8181TIP3   OH246033   5.610   0.649   5.908 -0.1730  0.1771  0.6156
 8181TIP3    H146034   5.684   0.588   5.916 -0.2407  0.0884  0.5663
 8181TIP3    H246035   5.631   0.719   5.969 -0.7357 -0.5564  1.6973
 8182TIP3   OH246036   1.057   0.757   3.483 -0.4052 -0.0651 -0.1665
 8182TIP3    H146037   1.023   0.736   3.570 -0.3167 -1.3939 -0.4370
 8182TIP3    H246038   1.073   0.852   3.486 -2.9229  0.4285  0.3766
 8183TIP3   OH246039   5.620   0.486  14.511  0.1600  0.1461 -0.8714
 8183TIP3    H146040   5.563   0.409  14.511 -0.6820  0.6680  1.7133
 8183TIP3    H246041   5.559   0.560  14.507  0.6899  0.6964  0.6067
 8184TIP3   OH246042   6.090   0.561   2.420  0.8215 -0.6944 -0.4004
 8184TIP3    H146043   6.161   0.591   2.363  0.0812  2.2108  0.0253
 8184TIP3    H246044   6.015   0.551   2.362  0.3864  1.0792 -0.2255
 8185TIP3   OH246045   1.961   4.924  16.325  0.3944 -0.2641 -0.4894
 8185TIP3    H146046   2.010   5.006  16.324 -1.6891  1.0715 -0.3086
 8185TIP3    H246047   1.996   4.874  16.252  0.5666  1.5481 -1.7229
 8186TIP3   OH246048   2.498   6.517  14.265  0.0807  0.5914  0.6356
 8186TIP3    H146049   2.408   6.505  14.234  0.8566 -1.9269 -0.9249
 8186TIP3    H246050   2.552   6.509  14.187  1.8094 -0.7929  1.8852
 8187TIP3   OH246051   4.955   1.152  17.101 -0.1915 -0.1044  0.0714
 8187TIP3    H146052   5.032   1.133  17.154 -1.0335 -0.0037  1.3633
 8187TIP3    H246053   4.881   1.142  17.160 -1.1638  0.1292 -1.0555
 8188TIP3   OH246054   0.811   4.322   4.429 -0.1279  0.7365  0.2783
 8188TIP3    H146055   0.906   4.321   4.416  0.0186 -0.3283  1.2310
 8188TIP3    H246056   0.790   4.234   4.461 -1.7402  0.2870 -1.7998
 8189TIP3   OH246057   4.315   1.969   6.338 -0.0025  0.2920  0.2108
 8189TIP3    H146058   4.309   1.876   6.360  0.0087 -0.3100 -2.0869
 8189TIP3    H246059   4.228   1.992   6.306  0.5204  0.5126 -1.1315
 8190TIP3   OH246060   2.530   4.219   5.375 -0.4878  0.0269  0.2515
 8190TIP3    H146061   2.618   4.195   5.402 -1.0085 -2.6716 -0.1818
 8190TIP3    H246062   2.538   4.238   5.281 -0.4928 -1.3396 -0.0564
 8191TIP3   OH246063   2.433   5.737  13.563 -0.7000  0.4571  0.3120
 8191TIP3    H146064   2.398   5.804  13.504 -0.6876  1.0633  0.9837
 8191TIP3    H246065   2.400   5.655  13.527 -0.2030  0.7559 -0.8924
 8192TIP3   OH246066   6.024   2.885  12.829  0.2353 -0.1324 -0.1695
 8192TIP3    H146067   6.007   2.895  12.735  1.5162  1.3078 -0.2854
 8192TIP3    H246068   5.960   2.943  12.870  1.2951  1.1848 -0.3187
 8193TIP3   OH246069   3.629   2.831   2.377 -0.1677  0.2167  0.5200
 8193TIP3    H146070   3.662   2.813   2.465  0.1584 -2.0014 -0.0095
 8193TIP3    H246071   3.588   2.749   2.350  0.9642  0.3849 -1.9137
 8194TIP3   OH246072   2.051   4.979  13.892  0.4503 -0.2778 -0.0583
 8194TIP3    H146073   2.103   4.966  13.812 -1.0006  1.0481 -1.3008
 8194TIP3    H246074   1.967   4.935  13.873 -0.1340  0.5810  0.4760
 8195TIP3   OH246075   4.018   1.796  11.309  0.0454  0.1808  0.2785
 8195TIP3    H146076   4.107   1.801  11.344  0.4349  1.3968 -0.7947
 8195TIP3    H246077   4.025   1.743  11.230 -0.7073 -1.9783  1.5837
 8196TIP3   OH246078   4.047   4.309   2.244 -0.0192 -0.3893 -0.1198
 8196TIP3    H146079   4.097   4.361   2.182 -0.9010  0.3595 -0.2167
 8196TIP3    H246080   4.097   4.314   2.325 -1.3844  2.9202  0.6793
 8197TIP3   OH246081   3.710   6.548  14.239 -0.4615 -0.2757 -0.2709
 8197TIP3    H146082   3.758   6.465  14.234  0.9293  0.5674 -1.6539
 8197TIP3    H246083   3.717   6.586  14.152 -0.5745  1.5725  0.4740
 8198TIP3   OH246084   5.869   1.107   5.979  0.1719 -0.0405 -0.2899
 8198TIP3    H146085   5.898   1.096   6.070 -0.7819  0.2474  0.0667
 8198TIP3    H246086   5.926   1.176   5.945 -0.5310  1.0409  0.6244
 8199TIP3   OH246087   0.961   5.245  12.595  0.0019 -0.3971  0.4546
 8199TIP3    H146088   0.944   5.151  12.599  1.3930 -0.6573  1.2567
 8199TIP3    H246089   1.046   5.253  12.552  0.3462  0.4083  1.2235
 8200TIP3   OH246090   2.734   3.695   3.500  0.4773 -0.3728 -0.3068
 8200TIP3    H146091   2.827   3.679   3.515  0.9397  2.4819  0.5980
 8200TIP3    H246092   2.691   3.655   3.576  1.4703  1.8544  1.5627
 8201TIP3   OH246093   3.724   0.833  13.337  0.6092 -0.3547  0.1817
 8201TIP3    H146094   3.786   0.902  13.313  0.4217  0.0151  0.7425
 8201TIP3    H246095   3.667   0.874  13.402 -0.5384 -0.5362 -0.6901
 8202TIP3   OH246096   0.975   1.113   5.681  0.4523 -0.3286  0.0938
 8202TIP3    H146097   1.049   1.169   5.702  0.1220  0.0285  0.3179
 8202TIP3    H246098   0.909   1.134   5.747 -0.2127  0.0764 -0.6662
 8203TIP3   OH246099   2.073   1.754   3.672 -0.0365  0.1595  0.1366
 8203TIP3    H146100   2.168   1.762   3.664 -0.0567  0.9025  0.5564
 8203TIP3    H246101   2.039   1.783   3.587  0.1275 -0.6969 -0.2349
 8204TIP3   OH246102   2.058   6.724   1.700 -0.3409  0.1989 -0.1998
 8204TIP3    H146103   2.135   6.771   1.670 -0.6771  1.2453  0.5321
 8204TIP3    H246104   1.987   6.753   1.643 -0.8667  1.7838  1.1918
 8205TIP3   OH246105   2.992   2.250   1.254  0.2427  0.3703  0.8266
 8205TIP3    H146106   2.919   2.307   1.278  0.0227  1.4421 -2.0795
 8205TIP3    H246107   3.033   2.292   1.179  3.1812 -0.8102  1.5866
 8206TIP3   OH246108   3.721   2.236  16.023  1.0595 -0.6346  0.6668
 8206TIP3    H146109   3.776   2.290  16.080 -0.8522 -0.0068  2.0427
 8206TIP3    H246110   3.677   2.299  15.966  0.3023 -0.9231  0.9219
 8207TIP3   OH246111   2.449   3.822  14.521 -0.1819 -0.2944  0.3990
 8207TIP3    H146112   2.391   3.876  14.467 -0.1211 -0.9889 -0.3891
 8207TIP3    H246113   2.521   3.798  14.462 -0.2900 -1.3639  0.6831
 8208TIP3   OH246114   6.559   1.748   1.411 -0.2715  0.5643 -0.0313
 8208TIP3    H146115   6.526   1.796   1.336  1.2583  2.1588  0.2541
 8208TIP3    H246116   6.496   1.768   1.481 -0.3018  1.1762 -0.2251
 8209TIP3   OH246117   5.923   4.144  16.605  0.0067 -0.0321 -0.3868
 8209TIP3    H146118   5.842   4.114  16.563  0.2396 -0.6523 -0.3891
 8209TIP3    H246119   5.905   4.236  16.625 -0.5026 -0.0115 -0.8789
 8210TIP3   OH246120   5.455   0.720   3.343 -0.3992 -0.0372  0.1576
 8210TIP3    H146121   5.381   0.727   3.282  0.2088  0.2216 -0.5644
 8210TIP3    H246122   5.529   0.756   3.295  0.9707 -3.2877 -0.3948
 8211TIP3   OH246123   3.786   2.543   4.527 -0.0530  0.3350 -0.3650
 8211TIP3    H146124   3.707   2.489   4.533 -1.5547  2.3310 -1.1051
 8211TIP3    H246125   3.782   2.581   4.439  2.2718 -0.2296 -0.7892
 8212TIP3   OH246126   4.590   5.166  16.164  0.5265  0.0328 -0.4805
 8212TIP3    H146127   4.656   5.154  16.233 -0.0019 -1.4185 -0.1878
 8212TIP3    H246128   4.510   5.187  16.210 -0.2822 -2.7754 -0.4254
 8213TIP3   OH246129   6.128   3.919  13.682  0.3446 -0.0532  0.4738
 8213TIP3    H146130   6.169   3.833  13.690 -0.5488 -0.5072  0.3501
 8213TIP3    H246131   6.092   3.937  13.769 -0.1331 -0.1544  0.2990
 8214TIP3   OH246132   3.967   0.560   0.088  0.0429  0.4810  0.1009
 8214TIP3    H146133   3.918   0.642   0.087  0.9157  1.0073 -0.2974
 8214TIP3    H246134   3.899   0.492   0.092 -0.6708  1.2223  1.1014
 8215TIP3   OH246135   1.117   6.702  17.084 -0.6895 -0.0091 -0.4506
 8215TIP3    H146136   1.195   6.733  17.130  2.0275  0.3985 -4.7321
 8215TIP3    H246137   1.063   6.780  17.072 -0.2455  0.3641 -0.0253
 8216TIP3   OH246138   0.413   6.099  12.351 -0.0697 -0.1293  0.4109
 8216TIP3    H146139   0.500   6.060  12.358  0.2936  0.4121 -0.8131
 8216TIP3    H246140   0.353   6.025  12.347  0.5327 -0.5736 -0.9527
 8217TIP3   OH246141   3.440   2.356  15.539 -0.1706 -0.0855 -0.5251
 8217TIP3    H146142   3.373   2.297  15.506  0.8012 -1.4603 -0.1094
 8217TIP3    H246143   3.492   2.380  15.462 -0.3012 -0.1163 -0.6226
 8218TIP3   OH246144   6.672   4.932  14.492 -0.1764 -0.2748  0.5202
 8218TIP3    H146145   6.684   5.021  14.524  0.2962  0.5752 -1.8015
 8218TIP3    H246146   6.718   4.877  14.556  0.3667  1.2352  1.4857
 8219TIP3   OH246147   3.263   1.717   0.860  0.2196  0.5678 -0.7707
 8219TIP3    H146148   3.342   1.755   0.824  1.0883  0.5506  0.9990
 8219TIP3    H246149   3.208   1.793   0.882  0.8255  0.7247  0.2897
 8220TIP3   OH246150   4.999   3.584  16.160  0.1068 -0.0617 -0.6561
 8220TIP3    H146151   4.995   3.667  16.112  0.9398  0.7648  0.6116
 8220TIP3    H246152   5.093   3.571  16.178 -0.2395  0.6255  2.2017
 8221TIP3   OH246153   5.455   5.473   1.283  0.1212 -0.1295 -1.0678
 8221TIP3    H146154   5.400   5.483   1.361  0.9198  0.4192 -0.5597
 8221TIP3    H246155   5.395   5.443   1.215 -0.9985  1.2810 -0.7642
 8222TIP3   OH246156   0.056   1.324   3.559 -0.4229  0.3300 -0.2902
 8222TIP3    H146157   0.051   1.383   3.484  0.2490 -1.4374 -1.7860
 8222TIP3    H246158  -0.029   1.279   3.560 -0.1794 -0.1325 -0.4007
 8223TIP3   OH246159   6.709   6.636  12.600  0.1482 -0.3510 -0.7051
 8223TIP3    H146160   6.642   6.576  12.633  0.6307 -0.7242 -0.3889
 8223TIP3    H246161   6.734   6.600  12.515  0.7403 -0.8517 -0.3296
 8224TIP3   OH246162   3.858   4.995  11.335 -0.1003  0.1071  0.3261
 8224TIP3    H146163   3.893   5.083  11.343  1.3242 -0.3913 -0.0558
 8224TIP3    H246164   3.882   4.967  11.247 -1.2828 -0.3672  0.1315
 8225TIP3   OH246165   2.379   4.800  10.939 -0.0895  0.1288  0.1021
 8225TIP3    H146166   2.460   4.777  10.894 -0.1761  1.4595 -0.8170
 8225TIP3    H246167   2.335   4.860  10.879 -0.8770  0.8850  1.3779
 8226TIP3   OH246168   3.972   2.662   6.044  0.6407 -0.2086  0.1381
 8226TIP3    H146169   4.041   2.717   6.080  0.0557 -0.0387  1.0122
 8226TIP3    H246170   3.894   2.681   6.096  0.5456 -2.2501  0.8462
 8227TIP3   OH246171   0.368   2.771  16.911  0.4394  0.1588 -0.1992
 8227TIP3    H146172   0.379   2.751  17.004 -0.3608  0.0882 -0.1160
 8227TIP3    H246173   0.439   2.832  16.892  0.7536 -0.0081  0.3999
 8228TIP3   OH246174   2.177   5.774  10.523 -0.3252  0.1369  0.3738
 8228TIP3    H146175   2.166   5.832  10.448 -0.8822 -2.0249 -1.3462
 8228TIP3    H246176   2.247   5.714  10.496  2.1084  1.5010  3.1514
 8229TIP3   OH246177   0.060   0.849  11.476  0.2427 -0.7513  0.1352
 8229TIP3    H146178   0.099   0.908  11.542  1.9005  0.0605 -1.4719
 8229TIP3    H246179   0.134   0.797  11.445 -0.0992  0.0725 -2.2626
 8230TIP3   OH246180   3.509   3.879  15.344  0.3001  0.3339  0.2601
 8230TIP3    H146181   3.424   3.916  15.316  0.3729  0.7027  0.5159
 8230TIP3    H246182   3.513   3.794  15.302 -0.0546  0.4538 -0.0243
 8231TIP3   OH246183   5.936   1.957  11.653 -0.0661 -0.5153  0.0548
 8231TIP3    H146184   5.988   1.908  11.590  0.0927  0.5739 -0.6973
 8231TIP3    H246185   5.959   1.920  11.738  0.7031 -1.1285 -0.4126
 8232TIP3   OH246186   6.417   5.648   0.953 -0.2621  0.5232 -0.1269
 8232TIP3    H146187   6.350   5.692   0.900  1.2565  1.8858 -0.9990
 8232TIP3    H246188   6.398   5.675   1.042 -0.9789  0.7289 -0.3279
 8233TIP3   OH246189   5.777   4.876  13.895  0.2271  0.3570  0.0931
 8233TIP3    H146190   5.829   4.957  13.892 -0.3015  0.6927 -0.9099
 8233TIP3    H246191   5.815   4.824  13.965  3.3208 -0.3593 -1.9400
 8234TIP3   OH246192   3.501   3.182   0.309  0.4581  0.0065 -0.4647
 8234TIP3    H146193   3.504   3.272   0.342  0.8092 -0.5237  1.0337
 8234TIP3    H246194   3.470   3.190   0.219 -1.5225  1.4555  0.2889
 8235TIP3   OH246195   5.989   0.174   4.237  0.0615 -0.4338 -0.4919
 8235TIP3    H146196   5.957   0.193   4.325  1.2880 -0.6349  0.0158
 8235TIP3    H246197   5.919   0.123   4.196 -1.2491  1.0957 -0.2375
 8236TIP3   OH246198   2.907   4.926   2.732  0.6569  0.1411 -0.4511
 8236TIP3    H146199   2.959   4.988   2.680  0.0439  1.8442  0.8920
 8236TIP3    H246200   2.825   4.917   2.683 -0.2724  2.4201  0.5760
 8237TIP3   OH246201   5.965   4.921  13.430  0.5666 -0.5960  0.2863
 8237TIP3    H146202   5.886   4.972  13.409  0.7856 -1.5062 -3.3948
 8237TIP3    H246203   6.027   4.987  13.463 -1.2350  0.3216  2.1339
 8238TIP3   OH246204   2.551   1.361  12.537  0.1452  0.3143  0.2672
 8238TIP3    H146205   2.634   1.324  12.566  0.6431  0.0915 -1.2976
 8238TIP3    H246206   2.488   1.338  12.606  0.9944 -1.1786  0.5884
 8239TIP3   OH246207   0.911   6.252  16.238  0.3307 -0.6403 -0.1714
 8239TIP3    H146208   0.890   6.339  16.204  1.7235  0.1188  0.7694
 8239TIP3    H246209   0.975   6.216  16.176 -0.5383 -1.1818 -0.7723
 8240TIP3   OH246210   4.507   4.972  11.037 -0.3097 -0.1873  0.2320
 8240TIP3    H146211   4.453   5.005  11.109 -0.0116  0.6777  0.0754
 8240TIP3    H246212   4.593   5.010  11.053 -0.0827 -0.4892 -0.2487
 8241TIP3   OH246213   5.061   4.293  16.079 -0.1735 -0.3627  0.6917
 8241TIP3    H146214   5.157   4.294  16.075 -0.0775  1.8822 -4.1653
 8241TIP3    H246215   5.039   4.365  16.138  1.3867  2.0946 -1.4732
 8242TIP3   OH246216   0.325   0.540  17.014 -0.3990  0.5552 -0.1160
 8242TIP3    H146217   0.325   0.445  17.005  3.5299  0.1927  1.6318
 8242TIP3    H246218   0.319   0.555  17.109  0.7484  1.9265 -0.2310
 8243TIP3   OH246219   5.458   4.720   5.348 -0.8721 -0.0583  0.0595
 8243TIP3    H146220   5.462   4.809   5.312 -0.0847 -0.3499 -0.6048
 8243TIP3    H246221   5.381   4.681   5.307 -1.7170  0.5863  1.0075
 8244TIP3   OH246222   2.934   3.061  15.226 -0.7423 -0.7545 -0.4450
 8244TIP3    H146223   2.856   3.047  15.172 -0.9803 -2.4347  0.2723
 8244TIP3    H246224   2.991   2.987  15.206  0.6112  0.3237 -0.7820
 8245TIP3   OH246225   3.837   2.662   0.784 -0.1160  0.3358  0.4150
 8245TIP3    H146226   3.749   2.700   0.778  0.9999  2.9233 -0.9473
 8245TIP3    H246227   3.874   2.672   0.697  2.1613  0.9798  1.3813
 8246TIP3   OH246228   2.309   2.923  13.972 -1.0986  0.5228  0.2744
 8246TIP3    H146229   2.297   2.928  14.067  0.8923  0.2893  0.5994
 8246TIP3    H246230   2.292   2.832  13.950 -2.7059  0.8155  0.1809
 8247TIP3   OH246231   4.114   3.368   5.684  0.0667 -0.6191  0.1247
 8247TIP3    H146232   4.159   3.371   5.768  0.5596  1.1374 -0.1704
 8247TIP3    H246233   4.178   3.330   5.624 -0.2611 -1.8062  0.4924
 8248TIP3   OH246234   2.707   0.494  16.301 -0.3885  0.1933  0.3435
 8248TIP3    H146235   2.740   0.529  16.384 -2.1535 -0.5621  1.4122
 8248TIP3    H246236   2.635   0.551  16.278 -1.1287 -0.7209  0.3495
 8249TIP3   OH246237   4.791   5.442  13.801 -0.0079 -0.3463 -0.1846
 8249TIP3    H146238   4.862   5.477  13.854  1.9335 -1.0452 -2.2085
 8249TIP3    H246239   4.833   5.383  13.739 -2.6146 -2.6252  0.0097
 8250TIP3   OH246240   5.840   1.125  10.510  0.0640  0.4092 -0.1395
 8250TIP3    H146241   5.807   1.105  10.423 -3.4407 -3.5778  1.7344
 8250TIP3    H246242   5.778   1.191  10.544 -2.2210 -2.1460  1.0441
 8251TIP3   OH246243   0.021   3.156   3.040 -0.3801 -0.0855  0.6444
 8251TIP3    H146244   0.031   3.063   3.023 -1.9610 -0.0968 -0.5276
 8251TIP3    H246245  -0.062   3.163   3.088 -0.5192  0.7324  0.3152
 8252TIP3   OH246246   3.164   0.961   3.947  0.9938 -0.1575  0.5528
 8252TIP3    H146247   3.252   0.931   3.969  0.8375 -0.2665  1.0245
 8252TIP3    H246248   3.169   1.056   3.954  1.1765 -0.1375  0.1933
 8253TIP3   OH246249   4.566   6.715   1.424 -0.0054  0.2358  0.0742
 8253TIP3    H146250   4.489   6.763   1.453 -1.4352 -0.7181 -1.9393
 8253TIP3    H246251   4.554   6.626   1.458 -0.8941 -0.4620 -1.9345
 8254TIP3   OH246252   4.316   1.276  16.475 -0.2908 -0.2714 -0.3223
 8254TIP3    H146253   4.379   1.229  16.530 -1.3439 -1.9560 -0.4927
 8254TIP3    H246254   4.260   1.322  16.537 -0.1632 -0.4301 -0.0879
 8255TIP3   OH246255   5.657   1.580   5.311  0.3421  0.0950  0.5809
 8255TIP3    H146256   5.575   1.621   5.282  0.7854  0.9766  0.5309
 8255TIP3    H246257   5.724   1.646   5.292  1.1322 -0.8192  0.1557
 8256TIP3   OH246258   6.607   5.429   0.554  0.1648 -0.0206 -0.1168
 8256TIP3    H146259   6.604   5.499   0.619  0.4934 -0.1751  0.0710
 8256TIP3    H246260   6.688   5.382   0.573  0.3007 -0.0278 -0.6850
 8257TIP3   OH246261   5.734   2.879  16.176 -0.2111 -0.2281 -0.5087
 8257TIP3    H146262   5.789   2.840  16.107  0.3142 -0.2205 -0.1012
 8257TIP3    H246263   5.756   2.829  16.255  0.5373  0.9390  0.0427
 8258TIP3   OH246264   3.069   3.326   0.548 -0.3358  0.2346  0.0394
 8258TIP3    H146265   3.010   3.302   0.619 -0.9988  1.6334  0.0117
 8258TIP3    H246266   3.011   3.348   0.475  0.3512 -2.3438 -1.4083
 8259TIP3   OH246267   6.428   3.886  13.513 -0.4028  0.3119  0.0537
 8259TIP3    H146268   6.380   3.911  13.434 -0.0424  0.1098 -0.2350
 8259TIP3    H246269   6.441   3.969  13.560  1.1689  0.7748 -1.1188
 8260TIP3   OH246270   1.657   3.965   0.520  0.1903 -0.4457  0.5310
 8260TIP3    H146271   1.594   4.027   0.559  2.2199  0.5231  2.5272
 8260TIP3    H246272   1.623   3.879   0.544 -0.6578  0.0350  1.1197
 8261TIP3   OH246273   5.239   0.711  14.755 -0.4313  0.0021 -0.5279
 8261TIP3    H146274   5.334   0.703  14.769 -0.1787 -0.1435 -2.0975
 8261TIP3    H246275   5.201   0.640  14.807  0.6965 -2.7746 -3.1937
 8262TIP3   OH246276   1.563   0.826   1.061  0.0891  0.0279  0.3075
 8262TIP3    H146277   1.647   0.872   1.054  0.6887 -1.0982 -0.0450
 8262TIP3    H246278   1.578   0.758   1.127  0.4629 -2.2472 -1.9456
 8263TIP3   OH246279   5.606   1.782  12.570  0.2040 -0.2975  1.1025
 8263TIP3    H146280   5.677   1.721  12.548  0.1765  0.7003 -2.4451
 8263TIP3    H246281   5.651   1.858  12.608  0.7264 -0.7989  1.4954
 8264TIP3   OH246282   5.114   4.046   4.793  0.2021  0.9547  0.4464
 8264TIP3    H146283   5.188   4.062   4.735 -0.0362  1.2211  0.2099
 8264TIP3    H246284   5.115   3.952   4.809 -0.1770  0.7639 -0.6078
 8265TIP3   OH246285   4.210   0.612  16.448 -0.2095  0.6638 -0.0890
 8265TIP3    H146286   4.202   0.517  16.437 -1.4476  0.8433 -0.9737
 8265TIP3    H246287   4.154   0.649  16.380 -0.6349  2.0222  0.9465
 8266TIP3   OH246288   0.588   3.379   2.809 -0.2319  0.3272  0.0875
 8266TIP3    H146289   0.538   3.442   2.861 -0.1398  1.7048 -1.4197
 8266TIP3    H246290   0.535   3.364   2.731  0.6485  0.0587 -0.4800
 8267TIP3   OH246291   0.431   5.208   4.290  0.3994 -0.1550 -0.2403
 8267TIP3    H146292   0.397   5.270   4.355  0.6545  0.9619 -1.1579
 8267TIP3    H246293   0.435   5.257   4.209  1.7613 -1.0226 -0.7318
 8268TIP3   OH246294   3.801   0.813  15.416 -0.4653  0.2762  0.3157
 8268TIP3    H146295   3.720   0.832  15.464 -1.8282 -0.7528 -1.4096
 8268TIP3    H246296   3.815   0.890  15.362 -0.4370  0.3594  0.4423
 8269TIP3   OH246297   6.379   5.176  10.570 -0.2709 -0.2276 -0.3174
 8269TIP3    H146298   6.472   5.164  10.588 -0.3295  0.3176  0.3648
 8269TIP3    H246299   6.334   5.134  10.644 -0.5797 -0.7054 -0.7646
 8270TIP3   OH246300   1.447   1.991   1.625  0.8923  0.4518  0.0974
 8270TIP3    H146301   1.390   1.953   1.692  0.4560  1.0289  0.0630
 8270TIP3    H246302   1.525   2.018   1.674  1.1654 -0.3879  0.1362
 8271TIP3   OH246303   2.148   3.552   0.688  0.1560 -0.8197  0.1476
 8271TIP3    H146304   2.093   3.630   0.697 -0.1847 -0.9834 -0.4853
 8271TIP3    H246305   2.238   3.585   0.691  0.0160 -0.4399  0.1879
 8272TIP3   OH246306   6.749   4.531  14.993  0.3691  0.0721 -0.4713
 8272TIP3    H146307   6.738   4.482  14.911 -1.0121  1.7053 -1.3274
 8272TIP3    H246308   6.674   4.506  15.046  0.8512 -0.3968 -0.0018
 8273TIP3   OH246309   4.530   3.034  14.934  0.4124  0.0806  0.1774
 8273TIP3    H146310   4.527   3.031  14.839  0.5976 -0.0192  0.1733
 8273TIP3    H246311   4.562   3.122  14.954 -0.1240  0.2835  0.1600
 8274TIP3   OH246312   5.645   5.620  14.246  0.6849 -0.6716  0.0307
 8274TIP3    H146313   5.674   5.547  14.300  1.4089  0.4762  1.2535
 8274TIP3    H246314   5.559   5.644  14.281 -0.5232 -2.1790 -1.6893
 8275TIP3   OH246315   3.406   1.518   3.212 -0.1099 -0.3482  0.8918
 8275TIP3    H146316   3.417   1.424   3.225 -0.4384 -0.3687  1.0495
 8275TIP3    H246317   3.478   1.558   3.261  2.9524 -0.6206 -2.8923
 8276TIP3   OH246318   0.112   3.246   0.193  0.4340  0.0614 -0.3318
 8276TIP3    H146319   0.201   3.231   0.223  1.5312  2.6107 -1.9936
 8276TIP3    H246320   0.120   3.268   0.100 -1.9486  0.1498 -0.5999
 8277TIP3   OH246321   6.264   5.533  12.099 -0.2977 -0.0434 -0.1148
 8277TIP3    H146322   6.329   5.603  12.088  0.0298 -0.3094  0.0941
 8277TIP3    H246323   6.295   5.462  12.043 -0.0493 -0.4146  0.4764
 8278TIP3   OH246324   1.500   3.276  12.969 -0.2658  0.5145  0.9040
 8278TIP3    H146325   1.477   3.357  13.016  0.1637 -0.2216  2.4417
 8278TIP3    H246326   1.571   3.238  13.021 -0.7853 -1.1039  0.4579
 8279TIP3   OH246327   3.897   4.195  11.332 -0.0723  0.3742 -0.2813
 8279TIP3    H146328   3.808   4.211  11.363 -0.1643 -1.0074  0.2656
 8279TIP3    H246329   3.915   4.105  11.359  1.5727  0.6984 -0.2215
 8280TIP3   OH246330   4.900   4.038   2.127 -0.9893 -0.1312  0.3537
 8280TIP3    H146331   4.897   4.038   2.031 -2.9146  0.2825  0.3807
 8280TIP3    H246332   4.920   3.947   2.150  1.0662  0.0669 -0.4258
 8281TIP3   OH246333   4.669   0.036   4.931 -0.2317  0.8412 -0.6478
 8281TIP3    H146334   4.622   0.046   5.013  1.7284  3.1326  0.3090
 8281TIP3    H246335   4.729  -0.037   4.946 -1.3732 -0.1657 -0.8552
 8282TIP3   OH246336   3.067   1.510  11.234 -0.5292  0.4689  0.6054
 8282TIP3    H146337   3.146   1.466  11.265 -0.5032  0.3014  0.2953
 8282TIP3    H246338   3.065   1.494  11.140 -1.3140 -0.1373  0.7118
 8283TIP3   OH246339   5.949   0.124   1.130  0.5715  0.3621 -0.1800
 8283TIP3    H146340   6.021   0.070   1.163  1.4758 -1.2730 -4.2334
 8283TIP3    H246341   5.871   0.088   1.172  1.5024 -2.1552 -0.4101
 8284TIP3   OH246342   2.581   4.341  12.792 -0.1101 -0.0915  0.1347
 8284TIP3    H146343   2.626   4.413  12.836 -0.2446 -0.3712  0.7418
 8284TIP3    H246344   2.642   4.312  12.724  0.7886 -0.7151  1.1894
 8285TIP3   OH246345   3.213   4.414   3.244 -0.1838 -0.8048 -0.0240
 8285TIP3    H146346   3.181   4.406   3.154  0.8050 -0.6083 -0.4052
 8285TIP3    H246347   3.142   4.377   3.298 -2.3619  2.2081 -0.5611
 8286TIP3   OH246348   1.964   3.577   1.412 -0.5462 -0.6578  0.1643
 8286TIP3    H146349   1.932   3.588   1.502 -2.3271 -1.4902 -0.3302
 8286TIP3    H246350   1.968   3.482   1.400  0.0643 -0.5569 -0.5368
 8287TIP3   OH246351   0.653   1.035  15.281  0.8267 -0.3991 -0.1940
 8287TIP3    H146352   0.637   0.950  15.323  0.7457  1.2116  3.4180
 8287TIP3    H246353   0.741   1.059  15.309  0.2843  1.3437  0.1116
 8288TIP3   OH246354   6.077   6.793   2.517  0.2515 -0.2401  0.3683
 8288TIP3    H146355   6.152   6.736   2.534  0.9647  0.4930 -0.2542
 8288TIP3    H246356   6.018   6.740   2.463  1.4042 -0.0574 -1.1215
 8289TIP3   OH246357   2.403   1.869  15.103 -0.3191 -0.0810 -0.1639
 8289TIP3    H146358   2.391   1.782  15.141 -0.0143 -0.4089 -0.8003
 8289TIP3    H246359   2.317   1.891  15.066 -1.0678  0.8955  1.9874
 8290TIP3   OH246360   1.603   2.746   5.607  0.0654 -0.2974  0.0204
 8290TIP3    H146361   1.692   2.716   5.624  0.2667 -0.2061 -0.8553
 8290TIP3    H246362   1.547   2.677   5.643  0.4888 -0.4997  0.2976
 8291TIP3   OH246363   0.515   0.406   3.586  0.8351  0.1117 -0.0908
 8291TIP3    H146364   0.435   0.355   3.571  2.0881 -1.9974  0.0628
 8291TIP3    H246365   0.557   0.413   3.501  0.6562  0.9917 -0.1234
 8292TIP3   OH246366   5.936   3.233   4.663 -0.2277 -0.0877  0.3777
 8292TIP3    H146367   5.904   3.165   4.604  0.7484 -0.7656  0.6100
 8292TIP3    H246368   5.893   3.215   4.747 -1.0108  0.4082  0.0972
 8293TIP3   OH246369   2.907   6.367   3.033  0.8387 -0.2556  0.3865
 8293TIP3    H146370   2.904   6.389   2.940  0.7719 -0.5169  0.3278
 8293TIP3    H246371   2.875   6.446   3.076  2.8316  0.6568  0.3222
 8294TIP3   OH246372   3.418   6.707   1.297 -0.3245  0.2509  0.2204
 8294TIP3    H146373   3.428   6.671   1.385 -0.5628  2.2822  1.1524
 8294TIP3    H246374   3.329   6.742   1.297  0.6920  3.1180  0.3831
 8295TIP3   OH246375   4.190   1.580  11.911  0.2550 -0.1751  0.2552
 8295TIP3    H146376   4.228   1.599  11.997 -0.5328  0.0186  0.5606
 8295TIP3    H246377   4.133   1.654  11.893  0.4897 -0.1687 -0.4855
 8296TIP3   OH246378   2.341   6.201   0.520  0.1585  0.3591  0.4949
 8296TIP3    H146379   2.315   6.212   0.429  0.1771 -2.5811  0.0590
 8296TIP3    H246380   2.260   6.181   0.566  0.6415 -2.5700  0.2501
 8297TIP3   OH246381   3.316   1.628   0.169  0.1390  0.1689  0.3166
 8297TIP3    H146382   3.284   1.633   0.079  0.5191  2.1389  0.2646
 8297TIP3    H246383   3.410   1.647   0.162  0.1658  0.3523  1.1381
 8298TIP3   OH246384   6.298   2.740  12.651  0.1650 -0.0322  0.0853
 8298TIP3    H146385   6.377   2.697  12.618 -0.5617 -0.9985 -0.4533
 8298TIP3    H246386   6.287   2.816  12.594 -0.0191 -0.6339 -0.7087
 8299TIP3   OH246387   3.449   0.128  16.690 -0.1815  0.0128  0.5768
 8299TIP3    H146388   3.467   0.105  16.598  0.5504 -0.6841  0.8796
 8299TIP3    H246389   3.368   0.179  16.686  0.7393  1.4863 -0.6319
 8300TIP3   OH246390   5.639   6.268  11.051 -0.7893 -0.3690  0.0927
 8300TIP3    H146391   5.722   6.311  11.032 -0.5761 -0.2150  1.3227
 8300TIP3    H246392   5.587   6.334  11.096 -1.6142 -0.4533 -0.7012
 8301TIP3   OH246393   0.941   2.895   3.378  0.1480 -0.1513  0.0704
 8301TIP3    H146394   0.936   2.800   3.384  0.2691 -0.2837 -1.5927
 8301TIP3    H246395   1.000   2.912   3.305  0.2418  1.2131  0.4310
 8302TIP3   OH246396   3.360   0.600  11.528  0.3050  0.4239  0.1305
 8302TIP3    H146397   3.271   0.597  11.564  0.1388 -0.7991 -0.3221
 8302TIP3    H246398   3.414   0.631  11.601 -0.5004  1.3416  0.3630
 8303TIP3   OH246399   2.584   1.473  14.670 -0.0788 -0.5870 -0.2407
 8303TIP3    H146400   2.543   1.531  14.734  0.0964 -2.4572  1.7057
 8303TIP3    H246401   2.520   1.402  14.659  0.3508 -0.8179 -1.3552
 8304TIP3   OH246402   2.084   1.521  16.017 -0.3411  0.0264 -0.2285
 8304TIP3    H146403   2.160   1.524  16.075 -1.2910 -1.8146  1.2188
 8304TIP3    H246404   2.113   1.467  15.943  0.1611  0.4371 -0.3379
 8305TIP3   OH246405   0.962   1.145   0.745 -0.0023  0.3631 -0.3063
 8305TIP3    H146406   0.924   1.211   0.802  2.8934  2.4503 -0.5524
 8305TIP3    H246407   0.940   1.175   0.656  1.3615  1.1143 -0.4193
 8306TIP3   OH246408   1.052   4.299  11.562  0.1109 -0.2141 -0.4451
 8306TIP3    H146409   1.037   4.368  11.627  2.7918 -0.2845  0.3621
 8306TIP3    H246410   0.975   4.302  11.505 -0.8125  2.0174  0.8171
 8307TIP3   OH246411   1.947   6.675  13.940 -0.3529 -0.2718 -0.0658
 8307TIP3    H146412   1.982   6.697  13.854 -0.8712 -1.2607 -0.5481
 8307TIP3    H246413   1.890   6.749  13.962 -0.7781 -0.3303 -0.9059
 8308TIP3   OH246414   1.882   4.555  14.227  0.1200  0.2170  0.4268
 8308TIP3    H146415   1.926   4.635  14.258  0.6923  0.2942 -0.5518
 8308TIP3    H246416   1.949   4.509  14.177  0.5046 -2.0094  2.7815
 8309TIP3   OH246417   3.699   0.428   0.877  0.2056  0.0137  0.0614
 8309TIP3    H146418   3.785   0.398   0.848  0.4016  0.9189 -0.3517
 8309TIP3    H246419   3.665   0.478   0.802 -0.4678  0.0632  0.3946
 8310TIP3   OH246420   6.245   4.911  16.620  1.0014  0.1013  0.4657
 8310TIP3    H146421   6.238   4.818  16.596  1.8748  0.0880  0.2029
 8310TIP3    H246422   6.339   4.928  16.621  0.9520  0.4947  2.4802
 8311TIP3   OH246423   1.624   3.051   1.991 -0.5698 -0.4306  0.0996
 8311TIP3    H146424   1.613   3.015   1.903  1.8128 -1.0519 -0.0406
 8311TIP3    H246425   1.661   2.978   2.042 -0.1507  0.4429  1.0997
 8312TIP3   OH246426   1.389   5.264  16.639  0.0274  0.0025  0.1899
 8312TIP3    H146427   1.384   5.345  16.589 -0.1240 -1.0702 -1.6136
 8312TIP3    H246428   1.482   5.243  16.641 -0.1542 -1.1111 -1.6377
 8313TIP3   OH246429   0.111   4.084  11.251 -0.0152 -0.1981 -0.5952
 8313TIP3    H146430   0.052   4.115  11.182 -1.5289 -0.8614  0.3447
 8313TIP3    H246431   0.143   4.000  11.217  0.8044  0.3859 -1.3193
 8314TIP3   OH246432   1.152   2.552   3.494  0.3882 -0.1566 -0.2271
 8314TIP3    H146433   1.082   2.596   3.542 -0.1502 -2.3630  1.1297
 8314TIP3    H246434   1.130   2.459   3.499  2.7890 -0.8193 -0.7984
 8315TIP3   OH246435   6.002   2.546  13.141 -0.1205  0.2317  0.2494
 8315TIP3    H146436   6.095   2.553  13.120  0.0157 -1.7538  0.0815
 8315TIP3    H246437   5.984   2.626  13.192  1.3857  1.1887 -0.6261
 8316TIP3   OH246438   5.229   1.847  12.458  0.0827 -0.6324  0.4741
 8316TIP3    H146439   5.146   1.800  12.465 -0.2935  0.0708  0.7917
 8316TIP3    H246440   5.291   1.781  12.426 -0.6257 -1.1285  0.0887
 8317TIP3   OH246441   0.419   4.981   2.266  0.3617  0.1415 -0.2869
 8317TIP3    H146442   0.353   4.977   2.335  0.3967 -1.5128 -0.3068
 8317TIP3    H246443   0.407   5.067   2.225 -0.6705  0.5194  0.7772
 8318TIP3   OH246444   0.645   3.267  11.546  0.0248 -0.1611  0.3820
 8318TIP3    H146445   0.633   3.190  11.491  0.0693  0.6500 -0.8088
 8318TIP3    H246446   0.593   3.250  11.624 -1.5501 -0.5645 -0.7115
 8319TIP3   OH246447   3.904   5.282   1.346 -0.2144  0.4375  0.5401
 8319TIP3    H146448   3.881   5.370   1.376  0.3054  0.0778  2.0439
 8319TIP3    H246449   3.870   5.223   1.413  0.0040 -0.4753 -0.1263
 8320TIP3   OH246450   2.210   3.162  15.903  0.3193  0.3704 -0.4360
 8320TIP3    H146451   2.234   3.102  15.973  0.8306  0.5428 -0.4532
 8320TIP3    H246452   2.136   3.211  15.937 -0.0933 -0.2599 -0.4168
 8321TIP3   OH246453   1.215   1.985  15.360 -0.2093 -0.5264  0.3628
 8321TIP3    H146454   1.247   2.010  15.447  1.8138 -1.6213 -0.0046
 8321TIP3    H246455   1.193   1.892  15.369  0.9127 -0.8875 -0.5166
 8322TIP3   OH246456   0.097   3.745  10.886  0.3699  0.6257 -0.0185
 8322TIP3    H146457   0.046   3.677  10.842  1.2744 -0.7064  0.8918
 8322TIP3    H246458   0.154   3.780  10.818 -0.1600  0.5292 -0.5215
 8323TIP3   OH246459   0.677   1.485  11.602  0.4689 -0.0046  0.3958
 8323TIP3    H146460   0.662   1.553  11.669  2.4967  0.1976  0.7084
 8323TIP3    H246461   0.695   1.535  11.522  0.0536 -0.2208  0.1655
 8324TIP3   OH246462   6.486   0.066   2.170 -0.0410  0.3430 -0.0319
 8324TIP3    H146463   6.411   0.065   2.229 -0.1571  1.0579 -0.1649
 8324TIP3    H246464   6.548   0.004   2.210 -1.0789 -0.9992 -0.4507
 8325TIP3   OH246465   2.995   6.241   3.243 -0.3410  0.3481 -0.2371
 8325TIP3    H146466   2.943   6.286   3.310 -1.8017 -1.3350 -0.1550
 8325TIP3    H246467   2.946   6.254   3.162  1.0187  1.7173 -0.8923
 8326TIP3   OH246468   6.566   4.972   2.708  0.1220 -0.3027 -0.0294
 8326TIP3    H146469   6.571   4.876   2.702  1.2763 -0.3652  1.2045
 8326TIP3    H246470   6.557   4.989   2.802  0.5947  0.8037 -0.1702
 8327TIP3   OH246471   5.080   3.119  14.446 -0.1418 -0.7052  0.1188
 8327TIP3    H146472   5.072   3.024  14.445  0.7138 -0.7958  0.7930
 8327TIP3    H246473   4.992   3.150  14.468 -0.4466 -1.3278 -0.1942
 8328TIP3   OH246474   2.090   5.735   3.702 -0.3021  0.2187 -0.0694
 8328TIP3    H146475   2.019   5.672   3.686 -0.7861  0.5743  0.6088
 8328TIP3    H246476   2.061   5.785   3.779  0.8357  0.1660  0.4126
 8329TIP3   OH246477   1.714   4.156   1.370 -0.4484 -0.0403  0.8071
 8329TIP3    H146478   1.674   4.069   1.377 -0.3353 -0.1026  0.6818
 8329TIP3    H246479   1.747   4.159   1.280  1.4289 -0.6710  1.4280
 8330TIP3   OH246480   6.165   4.824   1.397  0.1019  0.0842  0.1706
 8330TIP3    H146481   6.198   4.903   1.439  0.8172 -0.7007  1.1482
 8330TIP3    H246482   6.235   4.799   1.336  0.0415  0.0120  0.1319
 8331TIP3   OH246483   6.506   3.435   2.548 -0.2701 -0.3290  0.0895
 8331TIP3    H146484   6.556   3.376   2.605 -2.7180 -2.7372 -0.0424
 8331TIP3    H246485   6.500   3.516   2.597  1.9814 -0.6027  0.9601
 8332TIP3   OH246486   2.118   1.664  14.394  0.4216  0.0209 -0.2307
 8332TIP3    H146487   2.136   1.574  14.419 -0.2235 -0.4336 -1.3822
 8332TIP3    H246488   2.196   1.692  14.347  0.9239  0.3245  0.7412
 8333TIP3   OH246489   5.334   5.552  16.811  0.2802 -0.1082 -0.0886
 8333TIP3    H146490   5.377   5.557  16.897  1.1912 -0.8997 -0.4730
 8333TIP3    H246491   5.278   5.629  16.808  0.3686  0.0347  1.1444
 8334TIP3   OH246492   1.956   4.501   2.200 -0.7575  0.1289 -0.2002
 8334TIP3    H146493   2.041   4.458   2.202 -0.3259  0.9580 -0.3901
 8334TIP3    H246494   1.917   4.480   2.286 -0.5560 -0.6110 -0.2831
 8335TIP3   OH246495   5.482   5.699   6.017 -0.0198  0.1437 -0.2535
 8335TIP3    H146496   5.577   5.690   6.013 -0.1804 -1.7809 -1.0885
 8335TIP3    H246497   5.450   5.609   6.026 -1.8310  0.4991 -2.2678
 8336TIP3   OH246498   3.676   1.331   1.025 -0.6534  0.6261 -0.0767
 8336TIP3    H146499   3.681   1.427   1.034 -0.1489  0.5054  1.1341
 8336TIP3    H246500   3.586   1.309   1.047 -0.5606  0.7553  0.4429
 8337TIP3   OH246501   5.155   1.349   0.125  0.2104 -0.2625  0.6503
 8337TIP3    H146502   5.065   1.335   0.154  0.2941  0.1152  1.1042
 8337TIP3    H246503   5.146   1.392   0.039 -0.0324 -1.3549  0.1183
 8338TIP3   OH246504   4.096   5.855  10.367 -0.2336  0.2395 -0.4738
 8338TIP3    H146505   4.159   5.920  10.335  0.5781  0.3577  1.2315
 8338TIP3    H246506   4.102   5.783  10.304  2.2802 -0.1128  0.0521
 8339TIP3   OH246507   3.625   1.049   5.209 -0.7218 -0.1660  0.0796
 8339TIP3    H146508   3.702   1.005   5.171 -1.4091 -1.0033 -0.3882
 8339TIP3    H246509   3.582   1.089   5.134 -0.4156  0.8338  0.4307
 8340TIP3   OH246510   2.585   3.190   0.650 -0.6817  0.1729 -0.3379
 8340TIP3    H146511   2.626   3.253   0.709 -1.1999  0.0508  0.1641
 8340TIP3    H246512   2.493   3.216   0.647 -0.5047  0.6869 -1.7733
 8341TIP3   OH246513   2.744   3.804   5.702 -0.5978 -0.2729  0.5420
 8341TIP3    H146514   2.781   3.768   5.622 -0.3238 -0.8375  0.9146
 8341TIP3    H246515   2.654   3.825   5.680  0.1263  1.9232 -0.6452
 8342TIP3   OH246516   2.954   0.248   2.518  0.5000  0.4290  0.1970
 8342TIP3    H146517   3.041   0.240   2.480 -0.3706 -1.4761 -1.5579
 8342TIP3    H246518   2.901   0.290   2.450 -0.3936 -0.2634  0.4402
 8343TIP3   OH246519   4.387   4.366   4.049 -0.2635 -0.6759  0.1889
 8343TIP3    H146520   4.293   4.375   4.036 -0.6448 -1.9819  1.7122
 8343TIP3    H246521   4.417   4.311   3.976 -0.3814  0.9024 -1.1061
 8344TIP3   OH246522   2.401   5.111   1.059 -0.1252  0.0056  0.0023
 8344TIP3    H146523   2.333   5.085   1.121  1.3311  1.5581  2.4163
 8344TIP3    H246524   2.395   5.046   0.989 -1.1342 -2.6454  2.3208
 8345TIP3   OH246525   4.901   4.388   6.310  0.1215  0.1645 -0.3157
 8345TIP3    H146526   4.991   4.356   6.308  0.1157 -0.2139  2.3221
 8345TIP3    H246527   4.891   4.436   6.227  2.6356  0.0183 -0.7829
 8346TIP3   OH246528   1.747   2.719  15.281 -0.3539 -0.5030  0.7026
 8346TIP3    H146529   1.841   2.727  15.300 -0.1947  0.8861 -0.4442
 8346TIP3    H246530   1.730   2.625  15.282  1.1740 -0.8105  0.4115
 8347TIP3   OH246531   3.257   1.056  11.194 -0.1509 -0.0948 -0.1506
 8347TIP3    H146532   3.176   1.096  11.226 -0.2012 -0.2448 -0.0900
 8347TIP3    H246533   3.296   1.016  11.271  0.0280  0.0553 -0.1631
 8348TIP3   OH246534   4.632   6.668   3.125 -0.0893  0.0047 -0.2373
 8348TIP3    H146535   4.580   6.689   3.048 -1.0996 -1.8931 -0.1399
 8348TIP3    H246536   4.568   6.647   3.193  0.7846 -0.3533  0.5049
 8349TIP3   OH246537   6.787   0.631   0.841 -0.2939  0.3792 -0.2301
 8349TIP3    H146538   6.876   0.596   0.846 -0.7452 -0.7610  0.2389
 8349TIP3    H246539   6.741   0.570   0.783 -1.0509  0.3101  0.4350
 8350TIP3   OH246540   5.311   2.343  11.087  1.0210 -0.2045 -0.2687
 8350TIP3    H146541   5.314   2.250  11.063 -0.2452  0.2201 -2.2101
 8350TIP3    H246542   5.327   2.390  11.006  0.1615  1.2916  0.3831
 8351TIP3   OH246543   6.431   1.350  16.350  0.1480 -0.1712  0.1904
 8351TIP3    H146544   6.430   1.443  16.371  0.3881 -0.6410  2.5681
 8351TIP3    H246545   6.377   1.310  16.418 -0.3111 -1.7456 -1.0455
 8352TIP3   OH246546   1.243   0.764  15.138 -0.0847 -0.3522 -0.2104
 8352TIP3    H146547   1.260   0.771  15.232 -1.7151 -0.7401  0.1393
 8352TIP3    H246548   1.149   0.750  15.131 -0.1578  0.6311 -1.9559
 8353TIP3   OH246549   0.279   5.660   3.484  0.0983  0.4220 -0.0706
 8353TIP3    H146550   0.263   5.604   3.408  0.2721  0.5591 -0.2095
 8353TIP3    H246551   0.322   5.738   3.448 -1.4815  1.3325 -0.0955
 8354TIP3   OH246552   3.277   5.530  15.996 -0.0587 -0.1526  0.1777
 8354TIP3    H146553   3.356   5.580  15.976  1.1601 -2.0895 -0.1473
 8354TIP3    H246554   3.249   5.563  16.082  1.0629  0.6284  0.2653
 8355TIP3   OH246555   0.293   2.027   4.227  0.0721  0.2331  0.6264
 8355TIP3    H146556   0.314   1.943   4.269  1.6169  0.5194  0.4875
 8355TIP3    H246557   0.360   2.087   4.259  0.4178  0.8178 -1.1080
 8356TIP3   OH246558   0.993   4.816  14.344  0.1644  0.0634  0.7964
 8356TIP3    H146559   1.006   4.758  14.418 -0.7996 -1.3126 -0.0708
 8356TIP3    H246560   1.041   4.775  14.272 -0.5032  0.3419  0.1688
 8357TIP3   OH246561   3.549   2.472   1.190  0.3042 -0.5007  0.5852
 8357TIP3    H146562   3.551   2.538   1.259  0.0086 -0.7523  0.8342
 8357TIP3    H246563   3.620   2.497   1.131  0.6191 -0.3346  1.0294
 8358TIP3   OH246564   3.825   5.070   5.769 -0.1986  0.1405  0.5384
 8358TIP3    H146565   3.888   5.032   5.707  0.4256  1.3437  0.4152
 8358TIP3    H246566   3.744   5.020   5.753  0.1430 -0.0532 -0.7540
 8359TIP3   OH246567   1.513   0.635  13.448 -0.7901 -0.5668  0.0481
 8359TIP3    H146568   1.553   0.615  13.533 -0.5068  2.6215  0.7929
 8359TIP3    H246569   1.582   0.678  13.398 -0.9042 -2.5075 -1.9672
 8360TIP3   OH246570   2.814   0.053  13.596 -0.3501 -0.1664  0.2516
 8360TIP3    H146571   2.721   0.068  13.579 -0.6064 -0.5867  1.2154
 8360TIP3    H246572   2.832   0.105  13.674  0.8026  1.7766 -1.2164
 8361TIP3   OH246573   3.966   0.799  14.173 -0.7000 -0.3544  0.0139
 8361TIP3    H146574   3.876   0.767  14.181 -0.5440 -1.0296 -0.7917
 8361TIP3    H246575   4.014   0.726  14.135 -0.2980  0.7951 -1.7749
 8362TIP3   OH246576   5.565   4.735   0.269 -0.4056 -0.3032  0.1325
 8362TIP3    H146577   5.503   4.807   0.259  0.3651  0.4248  0.4879
 8362TIP3    H246578   5.580   4.703   0.180 -0.4459  0.2345 -0.0693
 8363TIP3   OH246579   2.801   3.003   4.680 -0.3934  0.5106 -0.3985
 8363TIP3    H146580   2.870   3.045   4.628  0.2628  2.4160  1.8190
 8363TIP3    H246581   2.814   2.909   4.666  1.0903  0.8963 -1.9554
 8364TIP3   OH246582   1.509   5.696  14.726  0.2038 -0.1036 -0.0414
 8364TIP3    H146583   1.595   5.709  14.766  0.5175  0.2344 -0.8074
 8364TIP3    H246584   1.504   5.603  14.708  0.4761 -0.0958 -0.1522
 8365TIP3   OH246585   2.716   6.625  15.257  0.1000 -0.2202 -0.4086
 8365TIP3    H146586   2.710   6.669  15.342 -1.7069  1.1468 -1.1760
 8365TIP3    H246587   2.645   6.560  15.259 -0.8230  0.7168 -1.3137
 8366TIP3   OH246588   2.088   5.099  15.127 -0.3531 -0.2082  0.1786
 8366TIP3    H146589   2.012   5.055  15.088 -0.9332 -0.2086  1.2776
 8366TIP3    H246590   2.050   5.170  15.179  0.5074  0.9679 -0.7366
 8367TIP3   OH246591   1.496   3.189  12.264 -0.3884 -0.0936 -1.4126
 8367TIP3    H146592   1.585   3.222  12.254 -0.6007  1.0115  0.0114
 8367TIP3    H246593   1.451   3.216  12.184 -0.1207  1.7222 -0.9914
 8368TIP3   OH246594   1.042   3.667   1.679 -0.1868 -0.3176  0.5125
 8368TIP3    H146595   1.089   3.585   1.694 -0.8603 -0.4260  2.2514
 8368TIP3    H246596   0.954   3.640   1.652  0.2455 -0.1224 -1.1988
 8369TIP3   OH246597   1.339   5.777  12.003 -0.5372  0.1613 -0.2423
 8369TIP3    H146598   1.408   5.841  12.020 -1.4677  0.5012  2.9342
 8369TIP3    H246599   1.258   5.824  12.024 -1.3729 -1.5212  0.4569
 8370TIP3   OH246600   5.378   2.034  12.995 -0.1727  0.2844 -0.0225
 8370TIP3    H146601   5.397   2.120  13.033  0.9881 -0.1186  0.3619
 8370TIP3    H246602   5.330   2.053  12.915 -0.1574  1.2860  0.1927
 8371TIP3   OH246603   6.810   5.022  16.036 -0.4458 -0.7625 -0.2120
 8371TIP3    H146604   6.829   4.930  16.052 -1.5986 -0.7896  1.2410
 8371TIP3    H246605   6.715   5.029  16.044 -0.3346  0.6479  0.3120
 8372TIP3   OH246606   2.028   5.455   0.634 -0.6777  0.7561  0.1872
 8372TIP3    H146607   1.935   5.466   0.615 -1.0757 -1.4567  0.6328
 8372TIP3    H246608   2.067   5.427   0.552 -0.8791 -0.6711  0.5529
 8373TIP3   OH246609   2.564   2.490  13.389  0.1530 -0.1670  0.0235
 8373TIP3    H146610   2.554   2.583  13.408  2.7060 -0.1067  1.5900
 8373TIP3    H246611   2.615   2.487  13.308 -0.0235 -0.2109 -0.0872
 8374TIP3   OH246612   1.189   5.247   4.847 -0.3565 -0.0412  0.2771
 8374TIP3    H146613   1.208   5.277   4.758  0.7753 -1.5655 -0.0383
 8374TIP3    H246614   1.098   5.217   4.843 -0.0195 -1.0380 -0.6852
 8375TIP3   OH246615   4.055   6.140  11.405 -0.0649 -0.0296 -0.1623
 8375TIP3    H146616   4.006   6.222  11.411 -0.2749 -0.1797  0.1939
 8375TIP3    H246617   4.061   6.122  11.311  0.8124  0.8885 -0.3056
 8376TIP3   OH246618   2.177   2.432   4.834 -0.2505  0.0746  0.1976
 8376TIP3    H146619   2.116   2.506   4.835 -0.1736  0.1409  1.1746
 8376TIP3    H246620   2.133   2.365   4.782 -1.1208  0.1624  0.7986
 8377TIP3   OH246621   0.568   1.754   5.624 -0.0165  0.4091  0.4068
 8377TIP3    H146622   0.628   1.807   5.572 -0.9520  0.6029 -0.4963
 8377TIP3    H246623   0.498   1.814   5.649 -0.7514 -0.2286 -0.0693
 8378TIP3   OH246624   6.186   6.195   1.533 -0.5639  0.3581  0.9207
 8378TIP3    H146625   6.104   6.186   1.484  1.1463 -1.6533 -1.8477
 8378TIP3    H246626   6.219   6.281   1.509 -0.2343 -0.2138 -0.7482
 8379TIP3   OH246627   1.590   6.584   4.824 -0.0879 -0.5749 -0.0638
 8379TIP3    H146628   1.519   6.520   4.821 -0.3565 -0.4443  2.2359
 8379TIP3    H246629   1.546   6.669   4.817  0.1003 -0.5500 -1.1495
 8380TIP3   OH246630   4.730   2.045  12.740  0.1453  0.3193  0.2589
 8380TIP3    H146631   4.671   2.075  12.810 -0.2699 -1.2561  0.6229
 8380TIP3    H246632   4.818   2.066  12.772 -0.1429  1.6930  0.2069
 8381TIP3   OH246633   5.569   4.351  13.399  0.0562 -0.0550 -0.2413
 8381TIP3    H146634   5.531   4.264  13.383  1.5808 -0.7179 -0.4603
 8381TIP3    H246635   5.546   4.402  13.321 -1.3419 -0.0623  0.1434
 8382TIP3   OH246636   2.010   1.419   1.429 -0.1311 -0.4549  0.2262
 8382TIP3    H146637   1.922   1.382   1.422 -0.0425 -0.6468  0.1425
 8382TIP3    H246638   2.069   1.344   1.423 -0.0344 -0.6687  2.8024
 8383TIP3   OH246639   5.423   5.985   6.017 -0.2684 -0.4153 -0.3635
 8383TIP3    H146640   5.482   6.043   5.969 -0.0182  1.4199  1.9788
 8383TIP3    H246641   5.453   5.897   5.994  2.4817  0.4249 -0.4105
 8384TIP3   OH246642   1.259   1.544  14.227  0.0110  0.1308  0.1968
 8384TIP3    H146643   1.173   1.535  14.187 -0.3340  0.6190  0.8204
 8384TIP3    H246644   1.321   1.531  14.155 -0.5755 -0.5251 -0.1931
 8385TIP3   OH246645   0.578   3.128   1.739  0.2286 -0.5210  0.5129
 8385TIP3    H146646   0.504   3.127   1.678  2.2086  0.7345 -2.0941
 8385TIP3    H246647   0.586   3.037   1.768 -0.5434 -1.2639 -1.4344
 8386TIP3   OH246648   0.639   5.594  12.556 -0.4066 -0.3338  0.2436
 8386TIP3    H146649   0.638   5.562  12.646  1.2269 -2.4906 -0.4111
 8386TIP3    H246650   0.725   5.567  12.522 -1.4981 -0.8233 -2.3699
 8387TIP3   OH246651   4.194   0.011  16.565  0.5195  0.4095 -0.1355
 8387TIP3    H146652   4.222   0.024  16.656  2.0350  1.2818 -0.6799
 8387TIP3    H246653   4.156   0.095  16.540  1.7718  0.7974 -0.8329
 8388TIP3   OH246654   2.842   6.261   5.939  0.6634  0.2025 -0.4401
 8388TIP3    H146655   2.812   6.172   5.957 -2.4269  1.2395  0.0305
 8388TIP3    H246656   2.845   6.303   6.025  0.5913  1.0040 -0.8196
 8389TIP3   OH246657   4.521   5.459   1.558 -0.3503  0.0247 -0.1109
 8389TIP3    H146658   4.510   5.549   1.588  1.1520  0.1951  0.0278
 8389TIP3    H246659   4.514   5.463   1.463  1.1548  0.5552 -0.2215
 8390TIP3   OH246660   6.339   3.183  13.956  0.3242 -0.2698 -0.0254
 8390TIP3    H146661   6.359   3.269  13.918 -0.6663 -0.6427 -1.4734
 8390TIP3    H246662   6.382   3.121  13.898  1.6841 -0.7724  1.4478
 8391TIP3   OH246663   1.351   5.680  13.719 -0.4136 -0.7982  0.4080
 8391TIP3    H146664   1.282   5.698  13.782  0.7701  0.4373  1.4145
 8391TIP3    H246665   1.329   5.734  13.643 -1.7594 -2.1709 -0.2225
 8392TIP3   OH246666   0.659   4.840  10.987 -0.0569 -0.3490 -0.0552
 8392TIP3    H146667   0.665   4.934  10.969 -0.9501 -0.5183 -1.4169
 8392TIP3    H246668   0.567   4.819  10.974 -0.0868 -1.2247  1.3702
 8393TIP3   OH246669   6.180   3.130  14.950 -0.5939  0.1958 -0.2310
 8393TIP3    H146670   6.245   3.184  14.995  0.1457  0.1707 -1.2371
 8393TIP3    H246671   6.098   3.178  14.960 -0.0918  1.1226 -0.4538
 8394TIP3   OH246672   6.812   1.747   6.130 -0.3275  0.1640 -0.5232
 8394TIP3    H146673   6.788   1.770   6.040 -1.2523  1.9077  0.1165
 8394TIP3    H246674   6.900   1.782   6.141  0.1378 -0.8060 -0.9752
 8395TIP3   OH246675   6.708   4.012  16.470  0.2041 -0.1115 -0.2829
 8395TIP3    H146676   6.683   4.094  16.428  1.2035  0.0879 -0.5120
 8395TIP3    H246677   6.686   3.945  16.405  0.6293  0.0977 -0.6521
 8396TIP3   OH246678   0.527   6.339  13.765 -0.2543  0.5249  0.1949
 8396TIP3    H146679   0.456   6.289  13.726 -0.1503  1.3876 -1.1772
 8396TIP3    H246680   0.489   6.427  13.777  0.8699  1.3227 -1.6465
 8397TIP3   OH246681   2.803   5.189   2.397 -0.3275  0.0310  0.4559
 8397TIP3    H146682   2.867   5.171   2.466 -0.3048 -0.0875  0.4035
 8397TIP3    H246683   2.840   5.264   2.350  1.2558 -1.8010 -1.4006
 8398TIP3   OH246684   0.554   3.383  15.010 -0.0704 -0.3687 -0.2224
 8398TIP3    H146685   0.519   3.463  14.972  0.8135  0.2048  0.1173
 8398TIP3    H246686   0.497   3.313  14.978 -1.2260  0.4594 -0.0275
 8399TIP3   OH246687   3.401   5.597  15.265 -0.0348  0.4233  0.4078
 8399TIP3    H146688   3.424   5.634  15.180  0.7467  1.7169  1.1450
 8399TIP3    H246689   3.373   5.673  15.316 -1.5081 -0.4812  0.9893
 8400TIP3   OH246690   3.076   1.116   5.243 -0.5680 -0.2821  0.0625
 8400TIP3    H146691   3.102   1.080   5.329  0.0480 -1.6222 -0.6463
 8400TIP3    H246692   3.105   1.049   5.180  1.4402  1.8468 -1.4481
 8401TIP3   OH246693   6.113   3.382  11.488  0.3353 -0.2401 -0.1101
 8401TIP3    H146694   6.106   3.314  11.421 -1.9268 -1.8032  1.5368
 8401TIP3    H246695   6.026   3.421  11.492  0.8775  0.9594  0.8234
 8402TIP3   OH246696   5.358   4.392  14.595 -0.2123  1.0839 -0.1495
 8402TIP3    H146697   5.434   4.334  14.599 -0.5590  0.6497  0.2313
 8402TIP3    H246698   5.380   4.456  14.527 -0.4604 -0.4014 -1.6706
 8403TIP3   OH246699   2.581   2.051  15.216 -0.1110 -0.3285 -0.1236
 8403TIP3    H146700   2.652   1.995  15.246 -0.3665  0.1600  1.4645
 8403TIP3    H246701   2.526   1.993  15.163  1.6352 -0.6099 -1.7421
 8404TIP3   OH246702   4.838   0.241   4.440  0.9163 -0.2972  0.6252
 8404TIP3    H146703   4.853   0.323   4.488 -0.8587  0.4300  0.0377
 8404TIP3    H246704   4.782   0.189   4.499  2.0366 -1.1217  0.9957
 8405TIP3   OH246705   4.935   0.244  16.742 -0.1077  0.1925  0.3552
 8405TIP3    H146706   5.029   0.228  16.738 -0.2822 -1.0512  0.6939
 8405TIP3    H246707   4.920   0.317  16.682  1.0900  0.5221  0.4327
 8406TIP3   OH246708   4.743   1.428   4.837 -0.0241 -0.3875  0.5430
 8406TIP3    H146709   4.690   1.362   4.883  0.7002 -1.0433  0.4530
 8406TIP3    H246710   4.768   1.386   4.755 -1.2104  0.7321 -0.4367
 8407TIP3   OH246711   3.787   4.783   2.614 -0.0683  0.1381  0.4504
 8407TIP3    H146712   3.823   4.872   2.611  0.4211  0.0019  1.7740
 8407TIP3    H246713   3.706   4.789   2.563 -0.3119  1.4867  0.9493
 8408TIP3   OH246714   4.804   3.804   0.650 -0.2737  0.0002  0.1873
 8408TIP3    H146715   4.855   3.864   0.704 -1.0335  0.3189  0.5664
 8408TIP3    H246716   4.714   3.837   0.655 -0.1435  1.0323 -2.6178
 8409TIP3   OH246717   6.561   2.484  15.189  0.1662  0.0773 -0.1809
 8409TIP3    H146718   6.534   2.480  15.281  1.7306 -0.6414  0.2863
 8409TIP3    H246719   6.531   2.401  15.152  0.7073 -0.2192  0.0370
 8410TIP3   OH246720   0.023   2.228   0.417  0.2154 -0.0996  0.0983
 8410TIP3    H146721  -0.046   2.265   0.473 -1.4038 -1.4247 -0.9119
 8410TIP3    H246722   0.054   2.151   0.463  0.0704 -0.2504 -0.0546
 8411TIP3   OH246723   3.060   0.555   0.780  0.6448 -0.3850 -0.4192
 8411TIP3    H146724   3.040   0.464   0.803  0.2948 -0.4862 -1.0982
 8411TIP3    H246725   2.985   0.584   0.729  0.0416  0.7971  1.0706
 8412TIP3   OH246726   0.898   1.049  14.204  0.0405 -0.1118  0.0874
 8412TIP3    H146727   0.936   1.135  14.224 -0.1559  0.0953 -0.4001
 8412TIP3    H246728   0.843   1.065  14.127  0.7049 -0.8494 -0.5704
 8413TIP3   OH246729   4.876   5.910   2.523 -0.4613 -0.8708 -0.0055
 8413TIP3    H146730   4.922   5.933   2.603 -0.5557 -1.4405  0.2179
 8413TIP3    H246731   4.807   5.976   2.515  1.5426  1.2013 -1.3918
 8414TIP3   OH246732   4.068   4.719  15.663 -0.2105 -0.0388 -0.0997
 8414TIP3    H146733   4.102   4.789  15.607  0.5921  0.2331  0.6968
 8414TIP3    H246734   4.031   4.766  15.739 -1.6585 -0.3734 -0.5679
 8415TIP3   OH246735   2.252   4.342  16.174  0.0679  0.7454 -0.0312
 8415TIP3    H146736   2.160   4.322  16.156  0.0794  1.1836 -0.6067
 8415TIP3    H246737   2.295   4.337  16.089  0.8083 -0.6024  0.3955
 8416TIP3   OH246738   4.577   6.304  16.403 -0.4692 -0.4130 -0.0065
 8416TIP3    H146739   4.652   6.335  16.352 -1.6763 -0.4196 -1.8686
 8416TIP3    H246740   4.581   6.354  16.485 -0.5139  2.3269 -1.5622
 8417TIP3   OH246741   0.167   2.840  15.400 -0.3931  0.3257  0.5433
 8417TIP3    H146742   0.074   2.832  15.421 -0.1676 -0.3977  1.3166
 8417TIP3    H246743   0.175   2.798  15.315 -0.3569 -2.0715  1.6505
 8418TIP3   OH246744   2.583   3.889  12.608  0.0505  0.1755 -0.3784
 8418TIP3    H146745   2.668   3.844  12.607  0.2556  0.5627 -0.3483
 8418TIP3    H246746   2.590   3.955  12.539  0.0653  0.7439  0.1597
 8419TIP3   OH246747   1.203   1.383   3.780  0.3214  0.5192  0.2989
 8419TIP3    H146748   1.109   1.401   3.790  0.4308  1.1606  0.1884
 8419TIP3    H246749   1.225   1.417   3.694  1.0248  1.9826  1.0337
 8420TIP3   OH246750   3.262   5.878   5.055 -0.3165 -0.7516  0.1347
 8420TIP3    H146751   3.243   5.785   5.065  1.2317 -1.0819  0.2182
 8420TIP3    H246752   3.302   5.904   5.137  1.4756 -0.6183 -0.7316
 8421TIP3   OH246753   0.720   1.303  10.853 -0.1705  0.1716  0.0592
 8421TIP3    H146754   0.675   1.372  10.805 -0.0344  0.1876 -0.0435
 8421TIP3    H246755   0.745   1.239  10.786  3.7142  2.0946 -0.5545
 8422TIP3   OH246756   6.346   1.745  13.718  0.3881  0.7278  0.8690
 8422TIP3    H146757   6.284   1.709  13.655  1.0872 -1.2000  1.2308
 8422TIP3    H246758   6.378   1.825  13.676 -0.6371  0.5505 -0.3135
 8423TIP3   OH246759   3.412   0.947   5.663 -0.0025 -0.6305 -0.2451
 8423TIP3    H146760   3.338   0.906   5.618  1.2415 -1.4876 -1.6420
 8423TIP3    H246761   3.489   0.916   5.614  1.2419  0.6167  0.8405
 8424TIP3   OH246762   1.465   3.966   1.094  0.2817 -0.2418 -0.2004
 8424TIP3    H146763   1.507   3.962   1.180 -0.8873 -1.8043  0.3553
 8424TIP3    H246764   1.382   4.011   1.109 -0.5660 -1.7416 -0.1716
 8425TIP3   OH246765   0.286   1.779  11.650  0.1116  0.4957  0.1794
 8425TIP3    H146766   0.263   1.754  11.561 -0.9520  1.6759  0.0893
 8425TIP3    H246767   0.300   1.873  11.646  0.7905  0.4514  1.1188
 8426TIP3   OH246768   3.313   1.728   2.677  0.1242 -0.6576  0.0011
 8426TIP3    H146769   3.299   1.658   2.614  0.5485  0.4776 -1.3902
 8426TIP3    H246770   3.370   1.690   2.743 -0.3076 -1.8542 -0.2956
 8427TIP3   OH246771   0.664   2.375  12.503  0.4060  0.4692  0.1557
 8427TIP3    H146772   0.749   2.417  12.514  1.0799 -0.9211  0.3250
 8427TIP3    H246773   0.647   2.378  12.409  0.5493  0.8993  0.1402
 8428TIP3   OH246774   5.633   2.379   3.224  0.5939  0.4046 -0.7288
 8428TIP3    H146775   5.665   2.401   3.311  0.7439  0.7049 -0.8547
 8428TIP3    H246776   5.538   2.390   3.228  0.6159  0.5675 -0.6432
 8429TIP3   OH246777   3.571   2.431  15.319 -0.1100 -0.4979  0.0253
 8429TIP3    H146778   3.539   2.376  15.247 -2.1727  1.1074 -0.3995
 8429TIP3    H246779   3.665   2.440  15.302 -0.4173 -0.6756 -2.1359
 8430TIP3   OH246780   2.605   0.766   5.771 -0.0404 -0.2561 -0.1837
 8430TIP3    H146781   2.532   0.709   5.794 -0.0066 -0.0238  0.5251
 8430TIP3    H246782   2.675   0.741   5.831 -0.7708  2.1108  1.8445
 8431TIP3   OH246783   6.374   0.393   1.664  0.0813 -0.1180 -0.1940
 8431TIP3    H146784   6.365   0.311   1.713 -0.6586 -0.7588 -1.3423
 8431TIP3    H246785   6.409   0.366   1.579 -1.5205  0.5441 -1.1023
 8432TIP3   OH246786   5.251   1.214  12.489 -0.0954 -0.3336  0.1285
 8432TIP3    H146787   5.327   1.270  12.505  0.3219 -0.9765  0.4271
 8432TIP3    H246788   5.177   1.264  12.525  0.2714  0.0256  0.3931
 8433TIP3   OH246789   1.925   4.265  11.584  0.4417 -0.4931 -0.6111
 8433TIP3    H146790   1.894   4.343  11.630  0.2605  0.6894 -2.6422
 8433TIP3    H246791   2.019   4.263  11.604  0.2899 -0.2837  0.1817
 8434TIP3   OH246792   2.212   6.091   3.355 -0.0587 -0.2683 -0.0570
 8434TIP3    H146793   2.206   6.103   3.260 -2.1629  1.7810  0.2303
 8434TIP3    H246794   2.284   6.148   3.382 -0.6923  0.6472 -0.2532
 8435TIP3   OH246795   4.456   0.449  13.889 -0.1967  0.2489 -0.5102
 8435TIP3    H146796   4.517   0.402  13.831  1.8784  0.2685  1.5244
 8435TIP3    H246797   4.416   0.380  13.943  0.1807  0.4957  0.0867
 8436TIP3   OH246798   5.871   4.520   2.882 -0.1608  1.1578 -1.0308
 8436TIP3    H146799   5.845   4.442   2.930  2.1245 -0.4294 -2.1643
 8436TIP3    H246800   5.903   4.580   2.950 -1.6833  1.0391 -0.1740
 8437TIP3   OH246801   0.084   4.438  10.930  0.5349 -0.8412 -0.3962
 8437TIP3    H146802   0.023   4.377  10.973  1.8011 -1.8544  0.0452
 8437TIP3    H246803   0.145   4.382  10.884  1.7400  0.0896  0.0082
 8438TIP3   OH246804   6.677   3.053  13.534  0.6070  0.4202  0.2072
 8438TIP3    H146805   6.691   2.960  13.554  0.7596  0.7629  1.7796
 8438TIP3    H246806   6.761   3.095  13.551  0.4308  0.9209 -0.1126
 8439TIP3   OH246807   3.405   5.868  10.402  0.0398 -0.4981 -0.4379
 8439TIP3    H146808   3.378   5.830  10.318 -0.2062  0.7387 -0.9507
 8439TIP3    H246809   3.362   5.814  10.468 -0.3301 -1.0733 -1.1395
 8440TIP3   OH246810   1.436   0.055   1.780  0.0718  0.2116 -0.7956
 8440TIP3    H146811   1.378   0.062   1.856  1.1692  1.1097 -0.0103
 8440TIP3    H246812   1.416  -0.031   1.742 -1.0937  0.1137  0.0060
 8441TIP3   OH246813   3.071   0.062  17.147 -0.8357 -0.0570  0.0047
 8441TIP3    H146814   3.006  -0.005  17.167 -0.8880  0.0613  0.2323
 8441TIP3    H246815   3.131   0.020  17.085 -2.0024  0.2937 -1.4373
 8442TIP3   OH246816   5.920   1.973   3.256 -0.2369  0.3413  0.3219
 8442TIP3    H146817   5.999   2.023   3.274  0.1372  0.0045 -0.3407
 8442TIP3    H246818   5.883   2.012   3.177  0.3718 -0.7675 -0.5415
 8443TIP3   OH246819   0.366   0.561  12.008  0.1571  0.0615  0.5871
 8443TIP3    H146820   0.332   0.567  11.919 -0.8480 -0.8295  0.8881
 8443TIP3    H246821   0.359   0.651  12.042  1.2504  0.5655 -0.4577
 8444TIP3   OH246822   2.497   4.478  16.238  0.1290  0.5929 -0.4507
 8444TIP3    H146823   2.451   4.560  16.257  2.1939  1.7736 -0.3234
 8444TIP3    H246824   2.434   4.428  16.186 -1.6537  1.7062  0.5068
 8445TIP3   OH246825   2.241   6.337   1.972  0.2719 -0.4255 -0.1506
 8445TIP3    H146826   2.231   6.246   1.943  0.7394 -0.7516  0.6837
 8445TIP3    H246827   2.202   6.388   1.901  0.3650 -1.2504 -0.8262
 8446TIP3   OH246828   2.636   2.531   6.175  0.1161 -0.4689  0.0310
 8446TIP3    H146829   2.721   2.489   6.168  0.6227  0.2443  1.4224
 8446TIP3    H246830   2.600   2.500   6.258  0.2966  1.3710  0.8630
 8447TIP3   OH246831   0.937   4.913  12.114 -0.4447 -0.2056  0.4527
 8447TIP3    H146832   0.877   4.980  12.080 -0.5769 -0.7018 -0.3080
 8447TIP3    H246833   0.911   4.902  12.205 -1.7044 -0.6222  0.0597
 8448TIP3   OH246834   0.881   3.265   0.755 -0.2414 -0.2283  0.1478
 8448TIP3    H146835   0.845   3.196   0.701 -2.7910  0.6646  0.5443
 8448TIP3    H246836   0.818   3.274   0.827  1.4106  0.7032  1.5515
 8449TIP3   OH246837   6.349   3.422  13.778 -0.0385  0.0367 -0.1079
 8449TIP3    H146838   6.409   3.431  13.704 -0.1255  1.4287 -0.0221
 8449TIP3    H246839   6.344   3.509  13.817 -1.8192 -0.1315  0.1205
 8450TIP3   OH246840   3.989   3.310   6.652 -0.1468 -0.4927 -0.0521
 8450TIP3    H146841   3.923   3.280   6.714  0.0279 -0.3862  0.1856
 8450TIP3    H246842   3.939   3.357   6.585 -0.2605  0.0878  0.4268
 8451TIP3   OH246843   1.654   2.356  11.560 -0.2641 -0.0681  0.0095
 8451TIP3    H146844   1.683   2.265  11.567  0.1615  0.1863  3.2572
 8451TIP3    H246845   1.714   2.405  11.616 -0.9774  2.0898 -1.0199
 8452TIP3   OH246846   1.228   4.126  17.190  0.2337  0.2550  0.0731
 8452TIP3    H146847   1.247   4.158  17.278  1.3029 -1.0816  0.3760
 8452TIP3    H246848   1.138   4.095  17.195 -0.5907  2.4548 -0.0455
 8453TIP3   OH246849   4.396   3.639   5.670 -0.2408  0.4205 -0.3425
 8453TIP3    H146850   4.404   3.576   5.599 -0.2547 -0.4229  0.3899
 8453TIP3    H246851   4.419   3.723   5.630  1.3261 -0.2597 -0.9712
 8454TIP3   OH246852   5.850   1.787   5.848  0.1836 -0.2939 -0.3844
 8454TIP3    H146853   5.860   1.704   5.802 -2.0356 -0.0376 -1.4889
 8454TIP3    H246854   5.820   1.764   5.935 -1.2605 -0.6592 -0.9585
 8455TIP3   OH246855   2.326   0.098  14.590  0.2948 -0.0994  0.2539
 8455TIP3    H146856   2.278   0.162  14.642 -0.5212  0.0908 -0.7024
 8455TIP3    H246857   2.400   0.072  14.646 -1.2017 -0.8209  1.9941
 8456TIP3   OH246858   1.391   0.513  16.940  0.7676 -0.2875  0.0896
 8456TIP3    H146859   1.316   0.571  16.939 -1.3049 -2.7778 -1.7822
 8456TIP3    H246860   1.451   0.551  16.875 -0.1856  0.2063 -0.5342
 8457TIP3   OH246861   0.565   6.772   1.022  0.1810 -0.6187  0.1352
 8457TIP3    H146862   0.636   6.836   1.019  0.1516 -0.6109 -0.6992
 8457TIP3    H246863   0.595   6.700   0.968  0.5076 -1.6532  1.6396
 8458TIP3   OH246864   5.329   6.157   5.762 -0.1138 -0.4163 -0.1378
 8458TIP3    H146865   5.292   6.156   5.851  1.8511 -0.0602  0.7581
 8458TIP3    H246866   5.311   6.069   5.728 -2.6923  0.0901 -0.2257
 8459TIP3   OH246867   6.311   1.999   2.472  0.3345  0.4606 -0.4552
 8459TIP3    H146868   6.221   1.980   2.446  0.5836  1.0063 -1.7570
 8459TIP3    H246869   6.318   2.094   2.465  0.7384  0.5257  0.6093
 8460TIP3   OH246870   2.374   5.846  14.491 -0.2950 -0.0671  0.8674
 8460TIP3    H146871   2.315   5.771  14.496 -0.9821  0.3615 -0.3353
 8460TIP3    H246872   2.340   5.906  14.558 -2.0745  0.7019 -0.6129
 8461TIP3   OH246873   1.345   4.559  10.299  1.0333  0.3055  0.3648
 8461TIP3    H146874   1.306   4.646  10.312  0.2768 -0.1221  1.0650
 8461TIP3    H246875   1.413   4.573  10.233  0.8762  1.4158  0.4108
 8462TIP3   OH246876   1.437   5.166   5.238 -0.1691  0.4078 -0.0640
 8462TIP3    H146877   1.362   5.107   5.247  1.0793 -1.4391 -1.1214
 8462TIP3    H246878   1.493   5.145   5.313  0.8930 -0.7289 -1.1500
 8463TIP3   OH246879   5.386   5.720  14.488 -0.3244  0.6711  0.2075
 8463TIP3    H146880   5.293   5.742  14.492 -0.3772  0.3862  0.6736
 8463TIP3    H246881   5.423   5.783  14.427 -0.8066  0.8514  0.0967
 8464TIP3   OH246882   1.259   4.532   0.436 -0.1471  0.2852  0.8821
 8464TIP3    H146883   1.212   4.504   0.358 -0.8919 -0.0745  1.4530
 8464TIP3    H246884   1.213   4.611   0.466 -0.7640 -0.3810  1.7575
 8465TIP3   OH246885   0.119   3.816  14.820  0.1864  0.5004 -0.3768
 8465TIP3    H146886   0.201   3.825  14.771  1.4836 -0.9455  1.4149
 8465TIP3    H246887   0.061   3.767  14.762  0.6630  1.2746 -1.5428
 8466TIP3   OH246888   0.382   2.099  16.824  0.6276 -0.8674  0.2165
 8466TIP3    H146889   0.374   2.100  16.729  0.0778 -3.2987  0.1922
 8466TIP3    H246890   0.463   2.148  16.841 -0.4270  1.6080 -1.2862
 8467TIP3   OH246891   3.135   6.685  11.801  0.4410  0.1561  0.0256
 8467TIP3    H146892   3.142   6.757  11.863  0.0135  0.2327 -0.0124
 8467TIP3    H246893   3.218   6.685  11.755  0.5100  0.5135  0.1468
 8468TIP3   OH246894   4.944   5.629   4.571 -0.3619 -0.1808  0.1388
 8468TIP3    H146895   4.885   5.584   4.511  0.3912 -2.3641  0.9027
 8468TIP3    H246896   4.887   5.686   4.623 -1.2275  0.5435 -1.5572
 8469TIP3   OH246897   1.589   5.404  16.158 -0.2283 -0.0942 -0.3412
 8469TIP3    H146898   1.513   5.346  16.168 -0.2229 -0.1084 -0.3814
 8469TIP3    H246899   1.566   5.459  16.083 -0.6577  0.6170  0.3033
 8470TIP3   OH246900   5.992   6.087  12.231 -0.8923  0.3720 -0.0723
 8470TIP3    H146901   6.074   6.044  12.258 -1.0918 -0.6006 -0.9514
 8470TIP3    H246902   6.020   6.160  12.176 -0.5848  0.7372  0.5563
 8471TIP3   OH246903   0.431   2.713  13.614 -0.3688  0.6941 -0.2651
 8471TIP3    H146904   0.503   2.775  13.621  0.6332 -0.2911 -1.3555
 8471TIP3    H246905   0.455   2.657  13.540 -1.3584 -0.8334  0.5287
 8472TIP3   OH246906   6.209   2.003  14.426 -0.5052 -0.1269  0.3988
 8472TIP3    H146907   6.291   1.955  14.436 -1.4161 -1.5875  1.1481
 8472TIP3    H246908   6.140   1.937  14.433 -1.7674  1.0571 -0.1940
 8473TIP3   OH246909   6.824   3.692  16.013  0.2067 -0.5198 -0.5804
 8473TIP3    H146910   6.879   3.624  16.053 -1.0515 -0.3529  1.6127
 8473TIP3    H246911   6.862   3.775  16.044 -2.2928 -0.4147  2.7204
 8474TIP3   OH246912   6.685   3.282   4.107  0.3452 -0.5571 -0.6879
 8474TIP3    H146913   6.733   3.323   4.178 -1.9128 -0.9368  1.1760
 8474TIP3    H246914   6.695   3.188   4.121 -0.9226 -0.6419 -0.2480
 8475TIP3   OH246915   6.634   0.470   5.456  0.4551  0.2224  0.1636
 8475TIP3    H146916   6.550   0.428   5.477  0.0786  0.9642  0.1658
 8475TIP3    H246917   6.674   0.412   5.391  0.1429 -0.3684  0.4867
 8476TIP3   OH246918   4.916   1.299  15.077  0.2687 -0.1135 -0.2539
 8476TIP3    H146919   4.957   1.244  15.011  0.5403 -0.1915 -0.0209
 8476TIP3    H246920   4.839   1.336  15.033  2.4581  2.9146 -1.9221
 8477TIP3   OH246921   6.389   5.128  15.804  0.2023 -0.2127  0.5259
 8477TIP3    H146922   6.403   5.033  15.809 -1.6752 -0.5076  0.7145
 8477TIP3    H246923   6.399   5.148  15.711 -2.8827 -1.2468 -0.1235
 8478TIP3   OH246924   6.545   2.573   5.896 -0.2038  0.4962 -0.0791
 8478TIP3    H146925   6.477   2.528   5.846 -0.2051 -2.1039  2.0599
 8478TIP3    H246926   6.627   2.536   5.864 -0.1980 -1.0862  1.5990
 8479TIP3   OH246927   0.723   6.513  12.796 -0.3760  0.3145  0.3519
 8479TIP3    H146928   0.634   6.546  12.810 -0.0476  1.0460  0.7751
 8479TIP3    H246929   0.772   6.541  12.873 -0.0046 -0.9387  0.5952
 8480TIP3   OH246930   4.958   1.128  13.844 -0.1309  0.3377  0.3064
 8480TIP3    H146931   4.872   1.125  13.801  0.6864  2.0008 -1.6307
 8480TIP3    H246932   4.989   1.038  13.843 -0.3692  0.2264 -2.2678
 8481TIP3   OH246933   6.067   4.455  16.087 -0.3051 -0.2662 -0.1259
 8481TIP3    H146934   6.154   4.483  16.116 -0.1101  0.0641 -0.9886
 8481TIP3    H246935   6.063   4.362  16.110 -0.3615  0.0725  1.3854
 8482TIP3   OH246936   3.866   2.944  12.114  0.3949  0.4736 -0.3602
 8482TIP3    H146937   3.942   2.913  12.065 -0.5661 -1.8830 -0.4700
 8482TIP3    H246938   3.845   3.029  12.075  2.3359  0.7108 -0.9879
 8483TIP3   OH246939   1.534   3.110  15.910  0.4258  0.3345 -0.1368
 8483TIP3    H146940   1.496   3.197  15.902  0.4171  0.1700 -2.4426
 8483TIP3    H246941   1.487   3.056  15.846 -0.4645 -1.7385  2.0945
 8484TIP3   OH246942   4.093   2.669   0.894  0.1885 -0.4877  0.2982
 8484TIP3    H146943   4.000   2.663   0.871  0.2315 -2.4630  0.4894
 8484TIP3    H246944   4.094   2.720   0.976 -0.9484 -2.0329  1.3298
 8485TIP3   OH246945   6.736   4.433  17.174  0.3638  0.0179  0.1710
 8485TIP3    H146946   6.700   4.376  17.242  1.1591  1.8296  2.2309
 8485TIP3    H246947   6.791   4.375  17.121 -0.6123 -1.5494  0.8050
 8486TIP3   OH246948   2.344   1.593   6.361  0.1093 -0.0220  0.4443
 8486TIP3    H146949   2.350   1.503   6.331  0.1365  0.3139 -0.6402
 8486TIP3    H246950   2.258   1.600   6.402  0.1331 -0.5580  0.5835
 8487TIP3   OH246951   0.443   2.170   5.072 -0.1494  0.3651  0.2259
 8487TIP3    H146952   0.419   2.200   4.984  0.8662  0.3548 -0.0693
 8487TIP3    H246953   0.510   2.233   5.101  0.7297 -0.5947  0.3085
 8488TIP3   OH246954   1.862   2.316  17.064  0.2885  0.1162  0.0084
 8488TIP3    H146955   1.953   2.346  17.066  0.5771 -0.7258  0.3294
 8488TIP3    H246956   1.867   2.226  17.096 -0.6341 -0.0088 -0.1838
 8489TIP3   OH246957   6.485   0.781  11.369  0.6762  0.0701  0.3107
 8489TIP3    H146958   6.409   0.838  11.354  0.1083 -0.2058  1.8861
 8489TIP3    H246959   6.504   0.743  11.284  0.2400  1.6049 -0.5018
 8490TIP3   OH246960   0.532   5.501   2.846 -0.0744  0.1662  0.4610
 8490TIP3    H146961   0.584   5.581   2.831 -0.3298  0.1781 -0.4298
 8490TIP3    H246962   0.548   5.479   2.938 -1.2886  2.1781  1.2117
 8491TIP3   OH246963   4.312   5.855  11.044  0.2500  0.5523  0.1316
 8491TIP3    H146964   4.376   5.887  11.108 -0.7084  0.8133  0.9872
 8491TIP3    H246965   4.275   5.935  11.005  0.1085  0.4130 -0.0223
 8492TIP3   OH246966   4.101   2.495   0.342  0.9118 -0.0246 -0.0034
 8492TIP3    H146967   4.165   2.505   0.271 -1.2123 -0.0013 -2.0495
 8492TIP3    H246968   4.087   2.400   0.348  0.9039 -0.0099  0.2139
 8493TIP3   OH246969   4.667   2.316  13.536 -0.1479  0.1942  0.4081
 8493TIP3    H146970   4.624   2.286  13.456 -1.1671 -0.0833  1.0464
 8493TIP3    H246971   4.707   2.399  13.511  0.5829 -0.4725 -0.7053
 8494TIP3   OH246972   0.574   1.507  12.783 -0.1161 -0.2978  0.2998
 8494TIP3    H146973   0.600   1.593  12.750  0.2950 -0.5029  0.0791
 8494TIP3    H246974   0.504   1.479  12.723 -0.3450 -0.0591  0.4549
 8495TIP3   OH246975   2.304   1.478   4.092 -0.2164  1.2529  0.1543
 8495TIP3    H146976   2.293   1.572   4.107  1.7439  1.6852 -0.7337
 8495TIP3    H246977   2.349   1.446   4.170 -1.5422  0.8597  0.7910
 8496TIP3   OH246978   0.984   5.463  13.795 -0.2858  0.6252  0.4879
 8496TIP3    H146979   0.958   5.392  13.736  0.3842  0.2213  0.6565
 8496TIP3    H246980   1.058   5.426  13.844 -1.7078  0.4548  2.5842
 8497TIP3   OH246981   0.477   6.062  11.615 -0.5459 -0.0585  0.4030
 8497TIP3    H146982   0.392   6.017  11.618 -1.5314  1.7134  3.1671
 8497TIP3    H246983   0.511   6.043  11.528 -4.0902 -0.2855 -1.0956
 8498TIP3   OH246984   2.124   1.699  17.160 -0.0205  0.4570  0.7329
 8498TIP3    H146985   2.058   1.687  17.092  0.8531  0.3339 -0.1093
 8498TIP3    H246986   2.099   1.781  17.203 -0.2239  0.8799 -0.1595
 8499TIP3   OH246987   3.968   1.940   2.582 -0.2882  0.4982 -0.2724
 8499TIP3    H146988   3.986   1.984   2.666  1.5623  1.5219 -1.1290
 8499TIP3    H246989   4.053   1.905   2.555 -0.8571  0.1509 -1.7050
 8500TIP3   OH246990   4.725   3.506   1.820  0.5948 -0.0692  0.2319
 8500TIP3    H146991   4.663   3.476   1.885  0.5388 -1.3497 -0.3867
 8500TIP3    H246992   4.747   3.595   1.847 -0.9281  0.1399  0.8801
 8501TIP3   OH246993   2.439   3.418  13.757 -0.6349 -0.5173 -0.3252
 8501TIP3    H146994   2.344   3.424  13.768 -0.4185  0.6806  1.1861
 8501TIP3    H246995   2.452   3.419  13.662 -2.2939 -4.6020 -0.8054
 8502TIP3   OH246996   1.097   2.875  15.759 -0.5350  0.2895  0.1380
 8502TIP3    H146997   1.112   2.811  15.689  1.0664  0.8006 -0.0211
 8502TIP3    H246998   1.005   2.901  15.749 -0.3608  0.2928 -1.7438
 8503TIP3   OH246999   3.754   1.833   2.453  0.3861  0.3175 -0.0344
 8503TIP3    H147000   3.819   1.876   2.508 -0.7025  0.8056  0.9006
 8503TIP3    H247001   3.764   1.740   2.473  0.5748  0.4194  0.3457
 8504TIP3   OH247002   0.152   3.288  15.815  0.1804 -0.5853 -0.6478
 8504TIP3    H147003   0.134   3.365  15.762  1.5267  0.0596 -0.2276
 8504TIP3    H247004   0.085   3.225  15.791 -2.5982  1.5950  0.8746
 8505TIP3   OH247005   1.688   1.224  13.922  0.3565  0.3233  0.6885
 8505TIP3    H147006   1.623   1.283  13.958  0.6175  0.2612  1.2709
 8505TIP3    H247007   1.772   1.269  13.935  0.7813 -0.9328  2.8606
 8506TIP3   OH247008   1.022   3.405   3.738 -0.2635 -0.4754 -0.8189
 8506TIP3    H147009   1.019   3.428   3.831  1.8468 -0.1506 -0.7689
 8506TIP3    H247010   0.958   3.463   3.697 -1.3408 -0.7341  0.4368
 8507TIP3   OH247011   4.226   3.999  11.251 -0.2524  0.1097  0.6066
 8507TIP3    H147012   4.155   3.970  11.308 -0.9839  0.8499  0.1020
 8507TIP3    H247013   4.254   4.082  11.288 -0.2544  0.2476  0.3063
 8508TIP3   OH247014   5.770   5.205   0.630 -0.5688 -0.3940 -0.3791
 8508TIP3    H147015   5.710   5.131   0.622 -0.1594 -0.6488 -1.1958
 8508TIP3    H247016   5.747   5.263   0.557 -1.8215  1.0076  1.0342
 8509TIP3   OH247017   1.715   0.034  13.554  0.2744 -0.3606  0.0421
 8509TIP3    H147018   1.738   0.003  13.466  1.6117  0.1316  0.1969
 8509TIP3    H247019   1.789   0.009  13.608 -0.5876 -0.7504  1.0709
 8510TIP3   OH247020   0.498   2.311  16.524  0.1480 -0.2369 -0.0704
 8510TIP3    H147021   0.510   2.278  16.613  1.3637 -0.1609 -0.1800
 8510TIP3    H247022   0.418   2.270  16.493  0.3657 -1.2238  0.6318
 8511TIP3   OH247023   5.378   3.123   1.434  0.0114  0.4013  0.0198
 8511TIP3    H147024   5.353   3.209   1.469 -0.4808  1.3822 -2.5097
 8511TIP3    H247025   5.473   3.130   1.419  0.4593 -0.4664  2.2029
 8512TIP3   OH247026   5.165   3.635   3.181 -0.4039 -0.0900  0.5991
 8512TIP3    H147027   5.070   3.623   3.181 -0.1965 -1.9502  0.7977
 8512TIP3    H247028   5.184   3.675   3.095 -1.2156 -1.0902 -0.0686
 8513TIP3   OH247029   4.115   2.446  11.002  0.1437 -0.6331 -0.5464
 8513TIP3    H147030   4.190   2.474  10.949  0.7850 -2.5907 -0.7484
 8513TIP3    H247031   4.153   2.423  11.086 -0.4612 -0.3194 -0.1765
 8514TIP3   OH247032   3.889   4.827   0.060 -0.0111 -0.0808 -0.2400
 8514TIP3    H147033   3.951   4.768   0.017  1.3755  0.2461  1.1901
 8514TIP3    H247034   3.803   4.788   0.043  0.4759 -0.2443 -2.7708
 8515TIP3   OH247035   1.414   4.806  14.846  0.0525  0.2665  0.1136
 8515TIP3    H147036   1.356   4.879  14.830 -0.3046 -0.0763 -0.1724
 8515TIP3    H247037   1.358   4.729  14.844  0.1981  0.0878  1.7546
 8516TIP3   OH247038   3.547   1.520   4.895  0.2144 -0.3586 -0.0050
 8516TIP3    H147039   3.525   1.564   4.977  0.8726  1.4538 -0.7385
 8516TIP3    H247040   3.481   1.551   4.833 -2.0213 -3.8643  0.3584
 8517TIP3   OH247041   1.131   5.884  12.155  0.7756 -0.9078 -0.2274
 8517TIP3    H147042   1.060   5.944  12.134  0.7789 -1.0145 -0.5545
 8517TIP3    H247043   1.181   5.928  12.224  0.4059 -0.8233 -0.0134
 8518TIP3   OH247044   3.912   4.492  13.713  0.7589 -0.6789 -0.7851
 8518TIP3    H147045   3.893   4.433  13.787  1.1012 -0.9635 -0.9200
 8518TIP3    H247046   3.826   4.522  13.684  0.6339 -0.3058 -0.0647
 8519TIP3   OH247047   5.415   3.798   4.160 -0.2452 -0.2442  0.2300
 8519TIP3    H147048   5.507   3.773   4.152 -0.6117 -1.9500  0.9691
 8519TIP3    H247049   5.414   3.863   4.231  0.2427 -1.1497  1.0792
 8520TIP3   OH247050   3.512   6.339  16.400  0.5712 -0.3491 -0.4937
 8520TIP3    H147051   3.569   6.416  16.411 -1.9311  1.5492  0.1319
 8520TIP3    H247052   3.501   6.305  16.489 -0.4179  0.2391 -0.3700
 8521TIP3   OH247053   2.463   3.152  15.527 -0.4019 -0.0770 -0.1452
 8521TIP3    H147054   2.442   3.222  15.588  1.0738 -0.3957  0.8001
 8521TIP3    H247055   2.422   3.074  15.565 -0.5457 -0.0522 -0.2472
 8522TIP3   OH247056   0.682   3.455   4.773 -0.1446  0.5691  0.0055
 8522TIP3    H147057   0.740   3.528   4.750  0.7581 -0.3453 -0.7432
 8522TIP3    H247058   0.659   3.471   4.865 -0.3021  2.0014 -0.2711
 8523TIP3   OH247059   0.535   4.138   3.654 -0.4950 -0.3766 -0.5853
 8523TIP3    H147060   0.562   4.227   3.631 -1.2161 -0.1046 -0.3960
 8523TIP3    H247061   0.616   4.094   3.678 -0.1574  0.2818 -0.5037
 8524TIP3   OH247062   4.903   4.750   1.952 -0.1990  0.0758 -0.1617
 8524TIP3    H147063   4.973   4.702   1.908  1.3660  1.5907  0.5493
 8524TIP3    H247064   4.939   4.773   2.038 -0.4338  3.2940 -0.7843
 8525TIP3   OH247065   2.287   5.995   5.092 -0.0605 -0.0757 -0.0052
 8525TIP3    H147066   2.217   5.933   5.073 -0.7254  1.1460 -1.6839
 8525TIP3    H247067   2.258   6.041   5.171  0.4743 -1.8483  1.3198
 8526TIP3   OH247068   5.004   4.412   1.271  0.0246 -0.0752  0.4428
 8526TIP3    H147069   4.925   4.429   1.323 -1.7005  2.8703 -2.7236
 8526TIP3    H247070   5.038   4.499   1.251  1.1787 -1.0788 -2.3727
 8527TIP3   OH247071   5.542   6.447  13.836  0.8282 -0.1389  0.3130
 8527TIP3    H147072   5.529   6.536  13.871 -0.1199 -0.1397  0.0065
 8527TIP3    H247073   5.481   6.393  13.887  0.9302 -0.4998  0.0522
 8528TIP3   OH247074   4.107   2.042  15.371 -0.1500 -0.3783 -0.4722
 8528TIP3    H147075   4.033   2.083  15.414  1.0879  0.3013  1.0822
 8528TIP3    H247076   4.117   2.091  15.289 -1.0665 -0.1201 -0.4382
 8529TIP3   OH247077   1.100   2.075   1.018 -0.2161  0.3796  0.5057
 8529TIP3    H147078   1.153   2.049   1.093  0.6261  1.0063  0.1454
 8529TIP3    H247079   1.143   2.034   0.943 -1.6961 -1.1788  0.4493
 8530TIP3   OH247080   4.616   6.525  13.129  0.3163  0.5445  0.5317
 8530TIP3    H147081   4.635   6.471  13.205 -1.4154 -0.4786  0.3060
 8530TIP3    H247082   4.556   6.592  13.161 -1.1319 -0.4186 -0.0449
 8531TIP3   OH247083   3.060   4.570   1.310  0.7377  0.1477  0.1266
 8531TIP3    H147084   2.970   4.580   1.340  1.0158  3.6097  0.2352
 8531TIP3    H247085   3.109   4.548   1.389  0.1953 -0.4047  0.3205
 8532TIP3   OH247086   3.253   0.240  10.755 -0.6376 -0.3271 -0.1257
 8532TIP3    H147087   3.177   0.262  10.809  0.5049 -0.5680  1.6817
 8532TIP3    H247088   3.282   0.323  10.718 -0.7677  0.0355  0.5732
 8533TIP3   OH247089   1.388   5.287  16.934 -0.7261 -0.1269 -0.1345
 8533TIP3    H147090   1.411   5.268  16.843 -0.9409 -3.6380  0.3898
 8533TIP3    H247091   1.368   5.201  16.971 -3.0991  1.4535  2.5963
 8534TIP3   OH247092   3.197   3.981   1.786  0.1490  0.0530 -0.3320
 8534TIP3    H147093   3.137   4.055   1.775  0.1500  0.2241  0.6936
 8534TIP3    H247094   3.284   4.018   1.770  0.0635  0.0468 -0.8008
 8535TIP3   OH247095   1.503   6.090  13.459 -0.0597  0.7767  0.4232
 8535TIP3    H147096   1.561   6.167  13.453  0.4002  0.3453 -2.1515
 8535TIP3    H247097   1.563   6.016  13.453 -0.6188  0.2335  1.4806
 8536TIP3   OH247098   5.375   1.844  12.692  0.3396  0.8049  0.2745
 8536TIP3    H147099   5.451   1.802  12.653 -0.2745  1.2583 -1.5329
 8536TIP3    H247100   5.325   1.878  12.617 -1.2020  1.2648  1.4448
 8537TIP3   OH247101   4.041   3.172   3.543 -0.3567 -0.7400 -0.4906
 8537TIP3    H147102   4.033   3.156   3.637  0.2629 -1.8648 -0.6134
 8537TIP3    H247103   3.978   3.242   3.525  1.4644  1.5019  1.2340
 8538TIP3   OH247104   2.295   6.631   2.293  0.1032  0.5133  0.0409
 8538TIP3    H147105   2.357   6.661   2.227 -0.8428  3.0795  0.2043
 8538TIP3    H247106   2.349   6.587   2.359  1.2824 -0.3843 -1.4563
 8539TIP3   OH247107   1.660   1.579   6.705  0.3391 -0.1379 -0.2980
 8539TIP3    H147108   1.703   1.663   6.723 -0.6254 -0.1729  2.7174
 8539TIP3    H247109   1.711   1.515   6.755 -0.4083 -0.9392 -0.5389
 8540TIP3   OH247110   3.654   1.744   2.787 -0.3101  0.0623 -0.0823
 8540TIP3    H147111   3.623   1.666   2.742 -1.5323 -1.4290  3.0249
 8540TIP3    H247112   3.744   1.722   2.813  0.0919  0.5697 -1.0259
 8541TIP3   OH247113   1.260   6.409   1.537 -0.1132  0.1234 -0.0787
 8541TIP3    H147114   1.178   6.364   1.558 -0.6784  0.6198 -1.1769
 8541TIP3    H247115   1.242   6.457   1.457  0.9089  1.1715  0.2820
 8542TIP3   OH247116   1.587   4.803  12.065  0.3101 -0.3012  0.3559
 8542TIP3    H147117   1.634   4.747  12.127  0.8088  1.2318  1.4559
 8542TIP3    H247118   1.549   4.743  12.001  0.2259 -1.9326  1.8529
 8543TIP3   OH247119   1.629   5.822   5.758 -0.1113 -0.1045  0.1293
 8543TIP3    H147120   1.640   5.783   5.672 -1.0202  0.3322 -0.1962
 8543TIP3    H247121   1.662   5.756   5.819  0.2008 -0.5641 -0.5296
 8544TIP3   OH247122   3.484   6.512  17.064 -0.2188  0.2341 -0.0434
 8544TIP3    H147123   3.479   6.446  16.995  0.1112  0.6660 -0.4895
 8544TIP3    H247124   3.512   6.592  17.018  0.5825  0.3828  0.6866
 8545TIP3   OH247125   2.488   2.398  12.849  0.0069 -0.1720  0.6295
 8545TIP3    H147126   2.446   2.482  12.866 -0.8762 -0.4773  0.0230
 8545TIP3    H247127   2.435   2.335  12.898  0.6179 -0.3909  1.0199
 8546TIP3   OH247128   4.712   5.179   5.338  0.0330 -0.3049 -0.0358
 8546TIP3    H147129   4.621   5.179   5.367  0.1739 -1.1677  0.4393
 8546TIP3    H247130   4.744   5.267   5.359  0.0123 -0.7570  2.0939
 8547TIP3   OH247131   5.109   4.155   2.321 -0.0670  0.2416  0.6416
 8547TIP3    H147132   5.126   4.207   2.242 -0.5426 -0.6685 -0.0771
 8547TIP3    H247133   5.029   4.194   2.358  0.7797  1.3942  1.3268
 8548TIP3   OH247134   3.660   3.708  12.394  0.1356 -0.2397  0.4664
 8548TIP3    H147135   3.620   3.655  12.463 -0.3845  1.1835  1.3006
 8548TIP3    H247136   3.590   3.768  12.366  0.3717 -0.7006 -1.2367
 8549TIP3   OH247137   5.440   6.254  12.014 -0.4484 -0.8844  0.2952
 8549TIP3    H147138   5.452   6.283  12.105 -0.4253 -0.9342  0.3076
 8549TIP3    H247139   5.468   6.328  11.961  0.1698 -1.0971  0.3196
 8550TIP3   OH247140   0.790   1.042   2.419 -0.0313  0.0316  0.2731
 8550TIP3    H147141   0.857   1.109   2.405 -0.5443  0.3065 -0.9748
 8550TIP3    H247142   0.711   1.092   2.441 -0.1894 -0.2194  0.2814
 8551TIP3   OH247143   2.137   2.741  17.056  0.3248 -0.1534 -0.1085
 8551TIP3    H147144   2.203   2.732  17.124 -1.1230 -0.3168  1.3405
 8551TIP3    H247145   2.107   2.831  17.065  0.5046 -0.0095 -0.9160
 8552TIP3   OH247146   2.883   4.276  14.916  0.3683  0.3475  0.5883
 8552TIP3    H147147   2.890   4.363  14.955 -1.6711  0.4533  0.8409
 8552TIP3    H247148   2.859   4.293  14.824 -0.5951  0.0716  0.7779
 8553TIP3   OH247149   0.367   3.902  12.806 -0.2070  0.0747 -0.2648
 8553TIP3    H147150   0.378   3.979  12.749 -0.8135 -0.1476 -0.7003
 8553TIP3    H247151   0.328   3.937  12.886  0.3304  0.3436 -0.1188
 8554TIP3   OH247152   2.280   0.566  13.081 -0.0605  0.2284  0.1043
 8554TIP3    H147153   2.206   0.513  13.112  0.0363  0.2406  0.3606
 8554TIP3    H247154   2.253   0.596  12.995  0.3463 -1.1717 -0.5414
 8555TIP3   OH247155   4.342   4.476  13.492 -0.5540 -0.4153 -1.1066
 8555TIP3    H147156   4.370   4.518  13.573 -2.1226 -1.9025  0.2952
 8555TIP3    H247157   4.359   4.383  13.507 -0.6330 -0.6995 -2.6182
 8556TIP3   OH247158   0.147   5.773  13.029  0.4443  0.5848 -0.2165
 8556TIP3    H147159   0.217   5.728  13.075  0.1841 -2.4133 -2.4706
 8556TIP3    H247160   0.184   5.795  12.944 -1.4063 -1.5978 -1.6827
 8557TIP3   OH247161   4.124   2.691  16.375  0.0971 -0.1994  0.0045
 8557TIP3    H147162   4.146   2.753  16.444  1.3026 -1.5258  0.8688
 8557TIP3    H247163   4.093   2.745  16.302  0.9541  1.3773  0.7759
 8558TIP3   OH247164   0.822   4.113  16.246  0.3893  0.1390 -0.0597
 8558TIP3    H147165   0.803   4.201  16.215 -1.0387 -1.2738 -3.7512
 8558TIP3    H247166   0.914   4.098  16.224  0.2986  0.3102 -0.5631
 8559TIP3   OH247167   4.389   4.487   0.759  0.1447 -0.4606  0.7049
 8559TIP3    H147168   4.422   4.399   0.779  1.0192 -0.9162 -2.1985
 8559TIP3    H247169   4.435   4.545   0.820  2.6029 -1.6519  0.1098
 8560TIP3   OH247170   3.570   6.047   0.606  0.3888 -0.4744  0.1473
 8560TIP3    H147171   3.657   6.025   0.639  0.5124  1.5717  1.3361
 8560TIP3    H247172   3.511   6.027   0.679  0.0224 -0.5595 -0.1662
 8561TIP3   OH247173   6.289   0.459   4.334 -0.0885 -0.0433 -0.1733
 8561TIP3    H147174   6.274   0.553   4.341  1.3161  0.2494 -0.7001
 8561TIP3    H247175   6.273   0.425   4.422  3.1505  1.3081  1.0880
 8562TIP3   OH247176   0.360   5.091   1.880  0.0504  0.0940  0.2033
 8562TIP3    H147177   0.392   5.004   1.856  0.6225  0.1863  0.6165
 8562TIP3    H247178   0.279   5.102   1.829  1.3305  0.3760 -1.8728
 8563TIP3   OH247179   0.086   6.143  13.783  0.1117 -0.2929 -0.0020
 8563TIP3    H147180   0.160   6.171  13.729 -0.0054 -1.9346 -1.0999
 8563TIP3    H247181   0.022   6.214  13.775  0.7921  0.2676 -0.6052
 8564TIP3   OH247182   3.375   5.060  13.205  0.2261 -0.2709 -0.1042
 8564TIP3    H147183   3.456   5.011  13.217 -0.0655 -1.0223 -1.1072
 8564TIP3    H247184   3.336   5.025  13.124 -0.8565  0.4096  0.0892
 8565TIP3   OH247185   4.311   1.551   2.419 -0.3095  0.3285 -0.2022
 8565TIP3    H147186   4.306   1.500   2.500 -0.4474  1.6450  0.6454
 8565TIP3    H247187   4.273   1.635   2.442  1.6018  1.4860 -1.0150
 8566TIP3   OH247188   5.267   2.082   4.447  0.4311 -0.1017  0.0265
 8566TIP3    H147189   5.331   2.130   4.394 -1.7763  1.6483 -1.2454
 8566TIP3    H247190   5.244   2.007   4.394 -0.4057  0.6464 -0.6974
 8567TIP3   OH247191   2.002   1.591   4.544  0.3843  0.7136  0.1954
 8567TIP3    H147192   2.010   1.573   4.638 -1.5252  2.8044  0.8399
 8567TIP3    H247193   2.087   1.626   4.519  1.0807 -0.3346  1.0070
 8568TIP3   OH247194   1.704   0.072  11.710 -0.1314 -0.2306 -0.2228
 8568TIP3    H147195   1.652   0.022  11.648 -1.3987  1.7826 -0.8613
 8568TIP3    H247196   1.642   0.130  11.753  0.9998 -0.3766  1.7482
 8569TIP3   OH247197   5.311   2.011  16.634  0.2632 -0.9404  0.2721
 8569TIP3    H147198   5.391   2.042  16.678 -1.4759  2.2070  1.5519
 8569TIP3    H247199   5.301   2.069  16.559 -0.5588 -1.6648 -0.1907
 8570TIP3   OH247200   2.623   6.564  14.027 -0.1739 -0.1562 -0.2673
 8570TIP3    H147201   2.639   6.651  14.063  1.4471 -1.3605  2.2001
 8570TIP3    H247202   2.651   6.571  13.935  0.6852  1.7031  0.0807
 8571TIP3   OH247203   6.775   3.406   2.350  0.3266  0.1374 -0.8418
 8571TIP3    H147204   6.750   3.499   2.350 -0.3929 -0.0208  0.6840
 8571TIP3    H247205   6.867   3.406   2.326  0.3956  1.2818 -0.6474
 8572TIP3   OH247206   5.594   0.280  11.296 -0.1092  0.3959 -0.3638
 8572TIP3    H147207   5.627   0.310  11.381 -1.4572  0.1559  0.2712
 8572TIP3    H247208   5.579   0.186  11.308  1.3387  0.0023 -1.4340
 8573TIP3   OH247209   3.256   6.751   6.022 -0.2115 -0.2350 -0.0290
 8573TIP3    H147210   3.237   6.836   5.983 -2.8012 -1.0207 -0.7006
 8573TIP3    H247211   3.185   6.737   6.084  0.2041 -1.8625  0.1276
 8574TIP3   OH247212   1.479   6.788  15.585  0.1009 -0.1984  0.8348
 8574TIP3    H147213   1.388   6.769  15.608 -0.2370 -0.9810 -0.9360
 8574TIP3    H247214   1.486   6.763  15.493  2.0460  0.1049  0.8499
 8575TIP3   OH247215   1.842   0.228  15.339 -0.1182 -0.0476  0.5550
 8575TIP3    H147216   1.898   0.235  15.416  1.7234  0.5918 -0.7728
 8575TIP3    H247217   1.806   0.316  15.327 -1.3672 -0.4356  1.3524
 8576TIP3   OH247218   2.118   4.361   1.755 -0.3588  0.0982 -0.2827
 8576TIP3    H147219   2.050   4.417   1.793  0.0541  2.4032 -2.5800
 8576TIP3    H247220   2.199   4.412   1.766  0.5354 -1.3465 -0.0021
 8577TIP3   OH247221   2.569   3.902   5.358  0.7445  0.2078 -0.0277
 8577TIP3    H147222   2.545   3.924   5.448  2.5936  0.5993  0.4268
 8577TIP3    H247223   2.553   3.808   5.351  1.0645  0.0744  0.8951
 8578TIP3   OH247224   0.910   0.435  13.816 -0.3045 -0.4713 -0.4984
 8578TIP3    H147225   0.878   0.445  13.906 -1.9991  1.0487 -1.2186
 8578TIP3    H247226   0.998   0.472  13.817 -0.8848  0.9484  0.2266
 8579TIP3   OH247227   0.989   3.395   5.147 -0.0853 -0.8186 -0.1624
 8579TIP3    H147228   1.009   3.329   5.080 -0.9193 -1.8474  0.5634
 8579TIP3    H247229   1.072   3.440   5.161  0.2431 -0.9429 -1.4808
 8580TIP3   OH247230   2.491   0.419   5.536  0.1687 -0.0283  0.6541
 8580TIP3    H147231   2.536   0.369   5.468  0.1333  0.9370 -0.1061
 8580TIP3    H247232   2.558   0.437   5.601  0.5789  0.3414  0.1330
 8581TIP3   OH247233   4.693   3.220   6.208 -0.5711  0.1334 -0.8025
 8581TIP3    H147234   4.632   3.151   6.236  0.5022  0.0580  1.6808
 8581TIP3    H247235   4.660   3.299   6.250  1.3164 -0.0422  1.2201
 8582TIP3   OH247236   5.389   3.686   0.560  0.0476  0.1584 -0.1312
 8582TIP3    H147237   5.447   3.718   0.491  0.8288  0.8293  0.8131
 8582TIP3    H247238   5.425   3.722   0.641 -0.9541 -0.4617  0.6200
 8583TIP3   OH247239   1.403   6.101  16.052  0.5568  0.3743 -0.4451
 8583TIP3    H147240   1.453   6.032  16.009  0.6881  1.5454 -2.2713
 8583TIP3    H247241   1.311   6.078  16.034  0.6290  1.9816 -3.3760
 8584TIP3   OH247242   2.472   4.052  16.545 -0.3872  0.1875 -0.1445
 8584TIP3    H147243   2.473   4.082  16.454 -0.7653 -0.9867 -0.5451
 8584TIP3    H247244   2.518   4.121  16.593 -0.5975  1.0528 -1.1453
 8585TIP3   OH247245   0.414   2.418  13.571 -0.5199  0.8126 -0.0996
 8585TIP3    H147246   0.468   2.462  13.505 -0.1558 -1.6964 -1.6222
 8585TIP3    H247247   0.336   2.390  13.523 -2.1112  2.2631  1.5046
 8586TIP3   OH247248   3.892   1.671   5.189  0.2346 -0.7314 -0.2483
 8586TIP3    H147249   3.942   1.590   5.201 -0.4030 -1.2309 -0.8988
 8586TIP3    H247250   3.879   1.678   5.094  1.2935  0.7678 -0.3304
 8587TIP3   OH247251   5.292   6.643   5.526 -0.2994 -0.2676  0.7214
 8587TIP3    H147252   5.347   6.707   5.571 -2.2581  0.7821  1.7295
 8587TIP3    H247253   5.220   6.625   5.587 -0.8023 -2.0204 -0.3138
 8588TIP3   OH247254   1.857   6.425   5.092 -0.0587  0.0744  0.4658
 8588TIP3    H147255   1.853   6.330   5.104 -0.7592  0.3173  2.6348
 8588TIP3    H247256   1.938   6.451   5.136 -0.0198  0.5150  0.1391
 8589TIP3   OH247257   6.689   1.270  11.896 -0.4473  0.1125 -0.0221
 8589TIP3    H147258   6.634   1.288  11.973 -1.4696  1.2251 -0.9716
 8589TIP3    H247259   6.660   1.184  11.866  0.9830 -1.0197  1.6489
 8590TIP3   OH247260   1.026   3.390   1.445 -0.3503  0.3789 -0.1974
 8590TIP3    H147261   1.030   3.295   1.459  2.3496  0.8122  3.7011
 8590TIP3    H247262   1.108   3.412   1.401  0.1083  1.0365  0.9242
 8591TIP3   OH247263   1.410   5.737   2.194 -0.1661 -0.3768  0.4824
 8591TIP3    H147264   1.388   5.830   2.181  0.6368 -0.1056  1.0147
 8591TIP3    H247265   1.325   5.694   2.201 -0.7015 -0.2184 -3.0363
 8592TIP3   OH247266   1.511   4.258   0.165  0.4135  0.1258 -0.1422
 8592TIP3    H147267   1.427   4.254   0.212  0.5035 -0.6385 -0.0275
 8592TIP3    H247268   1.568   4.311   0.221  1.2689 -2.6857  1.8923
 8593TIP3   OH247269   2.396   5.408   2.567 -0.3413  0.0147 -0.1964
 8593TIP3    H147270   2.369   5.317   2.552 -0.7247  0.3942 -2.0636
 8593TIP3    H247271   2.330   5.443   2.627 -0.6601 -0.7100 -0.1127
 8594TIP3   OH247272   3.650   5.879  14.635  0.0405  0.1440 -0.3623
 8594TIP3    H147273   3.693   5.843  14.557 -1.5290  0.9109 -1.6456
 8594TIP3    H247274   3.560   5.897  14.606 -0.5414  0.6000  1.5989
 8595TIP3   OH247275   5.435   1.935  15.838  0.8765 -0.6082  0.5373
 8595TIP3    H147276   5.431   2.025  15.806 -1.1074 -0.4334  1.1267
 8595TIP3    H247277   5.521   1.928  15.880  1.1204  0.9550  0.3613
 8596TIP3   OH247278   6.071   4.044  14.389  0.1475  0.3755 -0.0590
 8596TIP3    H147279   6.106   4.011  14.307  0.8147 -1.2596  0.8201
 8596TIP3    H247280   6.147   4.080  14.435 -0.6423  3.7430 -1.1817
 8597TIP3   OH247281   0.513   2.228  12.700 -0.2979  0.0163  0.4752
 8597TIP3    H147282   0.542   2.146  12.661  1.3138  0.5444  0.4938
 8597TIP3    H247283   0.530   2.294  12.633 -1.7164  0.3553  0.4008
 8598TIP3   OH247284   2.701   1.354  16.303  0.3400  0.4296 -0.0692
 8598TIP3    H147285   2.767   1.415  16.271  0.2081  1.2990  1.2081
 8598TIP3    H247286   2.752   1.284  16.344  0.5000  0.8657  0.5028
 8599TIP3   OH247287   1.548   2.545   2.791 -0.2772 -0.4490 -0.2784
 8599TIP3    H147288   1.546   2.475   2.725  0.0202 -0.6728 -0.0504
 8599TIP3    H247289   1.641   2.555   2.813 -0.2688  0.2998 -0.6063
 8600TIP3   OH247290   3.268   4.030   4.537 -0.0582  0.2841 -0.7060
 8600TIP3    H147291   3.173   4.036   4.550  0.0383  0.8070 -0.2020
 8600TIP3    H247292   3.279   4.027   4.442 -0.5836  0.1200 -0.7669
 8601TIP3   OH247293   5.586   5.118  12.719 -0.1524 -0.0341 -0.0196
 8601TIP3    H147294   5.632   5.055  12.665  0.1311  0.6814 -0.6293
 8601TIP3    H247295   5.652   5.148  12.782  0.1834  0.8499 -0.7722
 8602TIP3   OH247296   5.658   3.140  12.093 -0.0956  0.0897 -0.5366
 8602TIP3    H147297   5.683   3.175  12.179 -0.9487 -0.2061 -0.1569
 8602TIP3    H247298   5.741   3.117  12.052  0.4028  1.2124 -0.2213
 8603TIP3   OH247299   6.292   1.547  15.937  0.6397  0.2238 -0.4026
 8603TIP3    H147300   6.372   1.503  15.907 -0.0298 -0.2959 -1.4914
 8603TIP3    H247301   6.255   1.487  16.001  1.4954  0.8192  0.6873
 8604TIP3   OH247302   4.070   3.880   3.158  0.0675  0.0436  0.2310
 8604TIP3    H147303   4.117   3.948   3.206  0.2294 -0.1306  0.3190
 8604TIP3    H247304   4.122   3.801   3.171 -0.4946 -0.2528  0.7219
 8605TIP3   OH247305   5.865   6.452   0.959  0.2496 -0.7541 -0.0049
 8605TIP3    H147306   5.886   6.384   1.023 -0.3542  0.8998  2.0955
 8605TIP3    H247307   5.948   6.496   0.942  0.0898  0.2214  1.4857
 8606TIP3   OH247308   0.433   6.406   3.807 -0.1264  0.6916 -0.5938
 8606TIP3    H147309   0.514   6.354   3.813  0.0491  0.9820 -0.4264
 8606TIP3    H247310   0.428   6.429   3.714 -0.1429  0.4753 -0.6483
 8607TIP3   OH247311   4.410   0.423   1.583 -0.1510  0.1596  0.0857
 8607TIP3    H147312   4.465   0.404   1.659 -1.5011  2.2553  1.7038
 8607TIP3    H247313   4.322   0.399   1.610 -0.8534  2.1285 -0.2820
 8608TIP3   OH247314   4.235   2.716  13.824 -0.1370  0.5857  0.3294
 8608TIP3    H147315   4.313   2.683  13.867  0.1799  1.9124  0.8198
 8608TIP3    H247316   4.263   2.797  13.781 -0.8879  0.2670 -0.8031
 8609TIP3   OH247317   5.818   3.342  11.260  0.0833 -0.2202  0.0812
 8609TIP3    H147318   5.900   3.337  11.211  0.3132  1.5200  0.2102
 8609TIP3    H247319   5.774   3.258  11.243  1.2197 -0.6007 -1.1635
 8610TIP3   OH247320   2.510   6.381   2.230  0.6899 -0.0500  0.0103
 8610TIP3    H147321   2.522   6.398   2.324 -1.3466 -0.1630  0.3340
 8610TIP3    H247322   2.476   6.291   2.226 -0.1949  0.3012 -0.7398
 8611TIP3   OH247323   1.442   2.050  16.939  0.2811  0.1530 -0.2516
 8611TIP3    H147324   1.467   2.142  16.951  1.7619 -0.1524 -0.7438
 8611TIP3    H247325   1.403   2.047  16.852 -1.1623  0.5629  0.3552
 8612TIP3   OH247326   6.076   6.096   4.627 -0.4468  0.8141  0.5652
 8612TIP3    H147327   6.113   6.008   4.615  0.7290  1.3882 -0.2045
 8612TIP3    H247328   6.030   6.091   4.711  0.6047 -0.2108  1.1149
 8613TIP3   OH247329   2.562   6.150   5.623  0.0005 -0.1293  0.1444
 8613TIP3    H147330   2.521   6.135   5.538 -0.0898 -1.0180  0.3344
 8613TIP3    H247331   2.637   6.091   5.624 -0.7387 -1.0963  1.1870
 8614TIP3   OH247332   2.783   4.536   4.682 -0.6063 -0.1608  0.7288
 8614TIP3    H147333   2.750   4.533   4.592 -1.2035 -0.6002  0.9540
 8614TIP3    H247334   2.736   4.465   4.726  0.6906 -0.8410  1.0524
 8615TIP3   OH247335   2.206   2.182   1.985 -0.2850 -0.5592 -0.0453
 8615TIP3    H147336   2.283   2.133   1.958 -0.5201 -0.6561 -0.5448
 8615TIP3    H247337   2.164   2.209   1.903  1.2184  2.7355  0.1143
 8616TIP3   OH247338   4.780   4.039  15.327  0.0359 -0.2089 -0.1660
 8616TIP3    H147339   4.723   3.992  15.266 -0.1567  0.3193 -0.3993
 8616TIP3    H247340   4.840   4.088  15.270 -0.7536  1.0387  0.0413
 8617TIP3   OH247341   1.015   4.534  16.262  0.2656  0.6039 -0.4976
 8617TIP3    H147342   1.063   4.537  16.344 -0.2047 -2.3384  0.0051
 8617TIP3    H247343   1.068   4.584  16.201  0.4404  3.2204  1.6030
 8618TIP3   OH247344   1.569   1.096   5.997 -0.1929 -0.1604  0.2100
 8618TIP3    H147345   1.615   1.174   5.964  2.5258 -0.7210  2.2294
 8618TIP3    H247346   1.617   1.022   5.959 -2.1665 -0.9105 -0.9510
 8619TIP3   OH247347   5.773   2.579   4.116 -0.4888 -0.2834 -0.3672
 8619TIP3    H147348   5.810   2.565   4.203 -0.8978  1.5764  0.1460
 8619TIP3    H247349   5.836   2.634   4.071 -0.8114 -0.3028 -0.8518
 8620TIP3   OH247350   2.554   5.501   6.042  0.1485 -0.0776 -0.1539
 8620TIP3    H147351   2.515   5.586   6.063 -0.8176 -0.9779  1.9381
 8620TIP3    H247352   2.644   5.508   6.075  0.4543  0.5110 -1.0688
 8621TIP3   OH247353   6.114   6.253  13.191  0.2156 -0.2023  0.5147
 8621TIP3    H147354   6.186   6.263  13.254 -0.6751 -0.2871  1.5872
 8621TIP3    H247355   6.055   6.190  13.233 -0.3776 -0.2922 -0.4380
 8622TIP3   OH247356   3.280   5.744   3.058  0.1977 -0.0670  0.2432
 8622TIP3    H147357   3.330   5.724   2.979 -1.9845 -1.3755 -0.8849
 8622TIP3    H247358   3.318   5.687   3.125  2.7775  1.8089  0.5385
 8623TIP3   OH247359   0.981   5.826  16.116  0.1574 -0.2735  0.1271
 8623TIP3    H147360   0.902   5.826  16.062  1.5889  1.1497 -2.1472
 8623TIP3    H247361   1.014   5.736  16.110 -0.0172 -0.2763 -0.8919
 8624TIP3   OH247362   5.392   2.581  13.258  0.0131 -0.4934 -0.0678
 8624TIP3    H147363   5.413   2.618  13.173  0.1096 -0.0579  0.1411
 8624TIP3    H247364   5.417   2.649  13.321 -0.8276 -0.4717  0.2581
 8625TIP3   OH247365   3.366   1.990  11.162  0.4150  0.0773 -0.3465
 8625TIP3    H147366   3.439   1.984  11.224  0.2664 -2.0417 -0.2846
 8625TIP3    H247367   3.321   1.906  11.171 -4.0938  2.3800  2.0738
 8626TIP3   OH247368   4.348   4.087   4.407 -0.1524 -0.3911 -0.2807
 8626TIP3    H147369   4.259   4.052   4.410  0.0146 -0.9240 -1.0737
 8626TIP3    H247370   4.404   4.010   4.400  0.2824 -0.0212 -1.1213
 8627TIP3   OH247371   5.505   5.669  16.378 -0.1290  0.1725  0.1687
 8627TIP3    H147372   5.501   5.617  16.298 -0.2466  0.9359 -0.3329
 8627TIP3    H247373   5.532   5.607  16.445  1.2687 -0.2166 -0.7095
 8628TIP3   OH247374   1.161   3.695  15.862  0.2583 -0.0299  0.0357
 8628TIP3    H147375   1.214   3.627  15.905  0.8062 -0.9015 -1.8794
 8628TIP3    H247376   1.125   3.651  15.785  0.0142  1.6659 -0.8506
 8629TIP3   OH247377   5.836   3.179   2.450 -0.5841 -0.2582  0.2626
 8629TIP3    H147378   5.826   3.265   2.491 -0.1290 -0.1326  0.1144
 8629TIP3    H247379   5.922   3.148   2.478 -0.4426 -0.3520 -0.2637
 8630TIP3   OH247380   6.140   4.205  16.406 -0.0635 -0.7781 -0.3626
 8630TIP3    H147381   6.066   4.171  16.456  0.1442 -1.2391 -0.3673
 8630TIP3    H247382   6.173   4.278  16.459 -0.4253 -0.6720 -0.2854
 8631TIP3   OH247383   1.513   6.588   1.913 -0.2021  0.1786 -0.2881
 8631TIP3    H147384   1.524   6.578   2.008 -0.2723 -0.3757 -0.3333
 8631TIP3    H247385   1.418   6.595   1.901 -0.2575 -0.5985 -0.3843
 8632TIP3   OH247386   5.632   2.428   4.414 -0.2684 -0.0769  0.1235
 8632TIP3    H147387   5.591   2.346   4.387  1.0637 -2.2257  3.8249
 8632TIP3    H247388   5.720   2.423   4.378  0.3469 -1.2053  1.6374
 8633TIP3   OH247389   3.701   4.097   1.372 -0.3611  0.1860 -0.1945
 8633TIP3    H147390   3.690   4.138   1.458  2.1139 -1.0085  0.8171
 8633TIP3    H247391   3.619   4.050   1.357 -0.6870  0.0377  1.7694
 8634TIP3   OH247392   2.976   4.316   4.453 -0.0013  0.1676 -0.4771
 8634TIP3    H147393   2.882   4.333   4.462 -0.2974 -1.4595 -0.1831
 8634TIP3    H247394   2.981   4.231   4.408  1.2896 -0.3837  0.6244
 8635TIP3   OH247395   4.356   4.253   1.877 -0.1226  0.3246  0.0087
 8635TIP3    H147396   4.451   4.262   1.883 -0.2303  1.6821  0.0977
 8635TIP3    H247397   4.340   4.226   1.787  0.3754 -0.5226  0.1631
 8636TIP3   OH247398   3.244   3.403   0.923 -0.6088  0.0663 -0.4276
 8636TIP3    H147399   3.317   3.455   0.958 -0.3552  0.1768 -1.0994
 8636TIP3    H247400   3.167   3.437   0.967  0.0736 -2.6057  3.2995
 8637TIP3   OH247401   6.798   4.711   5.081  0.0476 -0.1633 -0.2927
 8637TIP3    H147402   6.789   4.623   5.118  1.9158 -0.3588 -0.2090
 8637TIP3    H247403   6.848   4.759   5.147  1.4347  0.1459 -1.5196
 8638TIP3   OH247404   3.520   4.236  12.156 -0.1592 -0.4461 -0.5673
 8638TIP3    H147405   3.584   4.193  12.213  1.1935  0.6479 -1.2010
 8638TIP3    H247406   3.443   4.248  12.211  0.2543 -1.5777  0.2926
 8639TIP3   OH247407   0.641   1.645  15.232 -0.4322  0.4012  0.1456
 8639TIP3    H147408   0.548   1.664  15.236 -0.2608  1.6467 -1.0410
 8639TIP3    H247409   0.661   1.642  15.139  0.9302  1.3644  0.3730
 8640TIP3   OH247410   2.950   2.021  12.200 -0.2755 -0.4843  0.4252
 8640TIP3    H147411   3.046   2.015  12.194 -0.3002 -3.1078  1.3725
 8640TIP3    H247412   2.934   2.065  12.283  0.0493  0.7795 -0.1419
 8641TIP3   OH247413   3.712   0.809   1.936 -0.0571 -0.3136 -0.3871
 8641TIP3    H147414   3.647   0.867   1.975  1.7345  0.9097  0.9300
 8641TIP3    H247415   3.669   0.773   1.858 -1.2836  2.7958 -1.2828
 8642TIP3   OH247416   1.201   1.295   3.196  0.0577  0.5672  0.2065
 8642TIP3    H147417   1.111   1.328   3.203 -0.2401 -0.3324  0.8576
 8642TIP3    H247418   1.256   1.372   3.206 -0.6453  1.3267 -1.4795
 8643TIP3   OH247419   6.311   6.020   6.469  0.2363  0.2348  0.3833
 8643TIP3    H147420   6.367   6.028   6.546  0.2452 -0.6934  0.4960
 8643TIP3    H247421   6.371   6.003   6.397  0.1287 -0.7363  0.4998
 8644TIP3   OH247422   0.241   0.784   5.575  0.2568  0.2725 -0.1865
 8644TIP3    H147423   0.321   0.786   5.628  0.0717  2.8883  0.1289
 8644TIP3    H247424   0.262   0.835   5.497 -0.9930  0.7879 -0.2197
 8645TIP3   OH247425   5.632   1.095  16.185 -0.6680 -0.0568  0.3415
 8645TIP3    H147426   5.684   1.065  16.111 -0.8563  0.7671 -0.1331
 8645TIP3    H247427   5.550   1.046  16.178 -2.2770  2.6725 -2.2702
 8646TIP3   OH247428   2.244   2.410  16.019 -0.4139  0.4339 -0.1215
 8646TIP3    H147429   2.242   2.366  16.103 -0.5975  1.2372  0.3025
 8646TIP3    H247430   2.205   2.495  16.035  0.6703  1.0774 -0.7343
 8647TIP3   OH247431   3.695   6.277  12.520  0.6985 -0.0858  0.4037
 8647TIP3    H147432   3.669   6.331  12.445 -1.1060 -1.3067  0.1033
 8647TIP3    H247433   3.788   6.261  12.506  0.8820  1.4808 -0.4187
 8648TIP3   OH247434   5.356   6.177  14.926 -0.1369  0.8882  0.1915
 8648TIP3    H147435   5.330   6.147  15.013 -0.0948 -0.9231 -0.3839
 8648TIP3    H247436   5.422   6.245  14.942 -0.7822  1.2095  1.5637
 8649TIP3   OH247437   4.304   5.487   4.308 -0.7499  0.2999  0.2990
 8649TIP3    H147438   4.280   5.437   4.230  0.9571  1.1951 -0.8448
 8649TIP3    H247439   4.358   5.427   4.359  0.0374  0.4540 -0.3376
 8650TIP3   OH247440   2.856   2.197  13.319  0.0910 -0.1810  0.4438
 8650TIP3    H147441   2.766   2.220  13.341  0.2743  0.1180  0.9182
 8650TIP3    H247442   2.849   2.141  13.242 -0.4319  0.7452 -0.1948
 8651TIP3   OH247443   1.921   3.835  17.143 -0.1821  0.1825  0.4807
 8651TIP3    H147444   1.946   3.822  17.234  2.6867  1.8586  0.0583
 8651TIP3    H247445   1.985   3.783  17.093  0.2377  1.6725 -0.6083
 8652TIP3   OH247446   2.406   2.336  16.957 -0.0078  0.9855 -0.0290
 8652TIP3    H147447   2.397   2.332  17.052 -1.2056 -0.1846 -0.1676
 8652TIP3    H247448   2.481   2.280  16.937 -2.7398 -2.9917 -0.0925
 8653TIP3   OH247449   0.815   3.735   4.769  0.4395  0.0592  0.3628
 8653TIP3    H147450   0.862   3.813   4.739 -0.0550  0.1308 -0.2575
 8653TIP3    H247451   0.820   3.738   4.864 -0.6440  1.5203  0.4030
 8654TIP3   OH247452   5.890   0.665  13.161  0.1209  0.4973 -0.1311
 8654TIP3    H147453   5.932   0.580  13.169  0.3441  0.7523  1.7192
 8654TIP3    H247454   5.950   0.716  13.105 -0.2140 -0.6397 -1.5860
 8655TIP3   OH247455   3.154   6.056   1.839 -0.2101  0.0718 -0.3722
 8655TIP3    H147456   3.082   6.006   1.878 -1.3324  1.4480 -0.5772
 8655TIP3    H247457   3.135   6.147   1.862  2.4429  0.3600  1.0668
 8656TIP3   OH247458   2.419   6.692   4.651 -0.3691 -0.3522  0.0434
 8656TIP3    H147459   2.449   6.776   4.615 -0.8330 -0.1297  0.1642
 8656TIP3    H247460   2.382   6.715   4.736  1.4422 -0.9820  1.0587
 8657TIP3   OH247461   5.356   3.137  16.251  0.7078 -0.7999  0.4594
 8657TIP3    H147462   5.401   3.191  16.316 -0.3054  0.1064  0.4348
 8657TIP3    H247463   5.288   3.195  16.215 -0.2266 -2.0090  0.2328
 8658TIP3   OH247464   2.968   3.565  12.772 -0.0680 -0.4557 -0.0908
 8658TIP3    H147465   3.040   3.526  12.723  0.6527 -1.2599  1.5371
 8658TIP3    H247466   3.006   3.589  12.857 -1.2136  1.0925  0.0446
 8659TIP3   OH247467   4.197   0.095   3.995  0.6204  0.2425 -0.2642
 8659TIP3    H147468   4.200   0.002   3.973 -0.9903 -0.1058  0.8016
 8659TIP3    H247469   4.207   0.140   3.911  2.7491 -0.8245 -0.6428
 8660TIP3   OH247470   0.662   3.011   3.653  0.3113 -0.1171  0.3151
 8660TIP3    H147471   0.626   2.926   3.679 -0.9141 -0.0186 -0.9183
 8660TIP3    H247472   0.757   3.002   3.663  0.0590 -0.7886  2.5450
 8661TIP3   OH247473   1.324   6.105  13.225 -0.2275 -0.5287 -0.4090
 8661TIP3    H147474   1.361   6.043  13.162  1.8404 -0.3348  0.5462
 8661TIP3    H247475   1.386   6.106  13.298 -1.3334  1.0318  0.5756
 8662TIP3   OH247476   5.372   4.424  10.185 -0.6258 -0.2500 -1.0128
 8662TIP3    H147477   5.404   4.351  10.238 -1.0533  1.3908  1.6806
 8662TIP3    H247478   5.327   4.382  10.112 -0.5768 -2.6725  0.2375
 8663TIP3   OH247479   1.164   6.254  15.157  0.3547  0.2005 -0.3063
 8663TIP3    H147480   1.087   6.222  15.203 -0.2468  0.2139 -1.2791
 8663TIP3    H247481   1.136   6.335  15.116  0.8420  0.1411 -0.7768
 8664TIP3   OH247482   4.501   1.150   1.170 -0.3065 -0.0271  0.3064
 8664TIP3    H147483   4.414   1.176   1.140 -0.5948 -0.5600  0.6730
 8664TIP3    H247484   4.491   1.060   1.200  0.3887 -0.1178  0.2882
 8665TIP3   OH247485   0.766   1.509   0.356  0.0292 -0.4051  0.2580
 8665TIP3    H147486   0.691   1.551   0.399 -0.5540 -2.8408  1.8189
 8665TIP3    H247487   0.837   1.518   0.418 -0.2258 -2.0048  0.8384
 8666TIP3   OH247488   2.959   1.526  11.956  0.0588  0.5556 -0.2008
 8666TIP3    H147489   2.913   1.476  11.889  1.5460  1.9928 -2.4291
 8666TIP3    H247490   2.891   1.576  12.001 -0.8897  0.1634 -1.1822
 8667TIP3   OH247491   5.841   3.787   3.974 -0.0479  0.0472 -0.3940
 8667TIP3    H147492   5.776   3.730   4.014 -0.2001  0.6141  0.1900
 8667TIP3    H247493   5.917   3.730   3.958  0.2757 -0.0650  1.3682
 8668TIP3   OH247494   1.376   6.159   3.485 -0.0234 -0.4124  0.1421
 8668TIP3    H147495   1.289   6.127   3.460 -1.0349  0.4214  2.2727
 8668TIP3    H247496   1.390   6.123   3.573  1.6645 -0.2787 -0.0390
 8669TIP3   OH247497   0.015   5.898   3.086  0.2462 -0.5154 -0.0317
 8669TIP3    H147498   0.020   5.994   3.084 -1.6542 -0.3595 -2.7521
 8669TIP3    H247499  -0.031   5.878   3.168 -0.4480  0.9837 -0.0322
 8670TIP3   OH247500   2.584   5.351  15.122 -0.1225  0.5489  0.0470
 8670TIP3    H147501   2.633   5.333  15.041  1.0982  0.1898  0.8351
 8670TIP3    H247502   2.600   5.275  15.177 -1.1698  0.6661  0.5428
 8671TIP3   OH247503   3.436   1.767  13.111 -0.3486  0.1982 -0.4265
 8671TIP3    H147504   3.371   1.786  13.179 -0.6623 -1.9046 -0.0613
 8671TIP3    H247505   3.507   1.724  13.158 -0.1954 -0.5192 -1.2934
 8672TIP3   OH247506   5.882   4.720  16.762 -0.7540  0.2418 -0.7932
 8672TIP3    H147507   5.871   4.773  16.683 -0.7383  2.5931  0.6636
 8672TIP3    H247508   5.795   4.718  16.801 -1.0783 -2.1000 -1.4946
 8673TIP3   OH247509   5.020   3.089  13.282 -0.0191  0.3409  0.4641
 8673TIP3    H147510   5.098   3.058  13.329  0.4532 -0.2415 -0.6665
 8673TIP3    H247511   4.947   3.067  13.341  0.7292  2.1171  2.1610
 8674TIP3   OH247512   3.269   4.110  11.589 -0.0894 -0.3040  1.0900
 8674TIP3    H147513   3.245   4.158  11.668 -0.2413 -0.4883  1.1576
 8674TIP3    H247514   3.248   4.018  11.609 -2.1778 -0.1169  0.1017
 8675TIP3   OH247515   3.462   3.895  12.382 -0.0647  0.0894 -0.3277
 8675TIP3    H147516   3.448   3.975  12.432  0.1717  1.5955 -2.5327
 8675TIP3    H247517   3.375   3.857  12.372 -0.0566 -0.5557  1.6122
 8676TIP3   OH247518   2.360   4.740  16.272 -0.1442 -0.5065 -0.1637
 8676TIP3    H147519   2.282   4.771  16.319  0.3861  0.8559 -0.1376
 8676TIP3    H247520   2.417   4.817  16.268 -0.2783 -0.4161 -3.2887
 8677TIP3   OH247521   1.252   1.760  16.209 -0.0834 -0.2887 -0.5684
 8677TIP3    H147522   1.203   1.681  16.233 -0.2657 -0.2550 -0.8228
 8677TIP3    H247523   1.184   1.826  16.196 -0.1444 -0.7401 -2.9106
 8678TIP3   OH247524   0.813   4.894   4.035 -0.1655 -0.4415  0.6609
 8678TIP3    H147525   0.902   4.885   4.001  0.7764  1.1188  2.5540
 8678TIP3    H247526   0.814   4.846   4.118 -0.2652  1.7243  1.9873
 8679TIP3   OH247527   6.361   2.969   0.879 -0.4480 -0.9352 -0.3057
 8679TIP3    H147528   6.321   2.918   0.949 -1.3893 -1.1366 -0.9744
 8679TIP3    H247529   6.437   2.917   0.852 -0.2339 -0.9849  0.3740
 8680TIP3   OH247530   5.614   4.026   5.358 -0.1540 -0.2336  0.3044
 8680TIP3    H147531   5.674   4.087   5.315 -0.0556 -1.1412 -0.9252
 8680TIP3    H247532   5.634   3.941   5.318 -1.0350 -0.8732  1.1719
 8681TIP3   OH247533   5.634   6.797  11.188  0.4670 -0.1674 -0.3449
 8681TIP3    H147534   5.609   6.706  11.178 -1.6055  0.3637 -0.5012
 8681TIP3    H247535   5.676   6.802  11.274  0.1926 -1.1661 -0.1460
 8682TIP3   OH247536   4.682   3.456  10.470  0.0885  0.2583  0.1844
 8682TIP3    H147537   4.737   3.489  10.541  1.0191 -0.6484 -0.0931
 8682TIP3    H247538   4.715   3.368  10.453  0.5946  0.8045 -2.0493
 8683TIP3   OH247539   6.046   0.539  13.748 -0.0176 -0.2612 -0.1796
 8683TIP3    H147540   6.079   0.626  13.771 -1.6009  0.3518 -0.0501
 8683TIP3    H247541   6.044   0.539  13.652  1.7315 -0.8785 -0.2407
 8684TIP3   OH247542   4.389   4.732   5.420 -0.2111  0.0482  0.0523
 8684TIP3    H147543   4.465   4.715   5.364  0.4866  2.0065  0.3277
 8684TIP3    H247544   4.315   4.737   5.359  0.0341 -0.8054 -0.3383
 8685TIP3   OH247545   3.211   0.490  14.440  0.0043  0.1142  0.2084
 8685TIP3    H147546   3.153   0.533  14.377  0.2477 -0.9277 -0.7644
 8685TIP3    H247547   3.226   0.403  14.403 -0.1151 -0.6614  1.8834
 8686TIP3   OH247548   4.487   4.199  11.933  0.0823  0.7531 -0.0411
 8686TIP3    H147549   4.558   4.137  11.917 -2.1542 -1.8521 -0.7096
 8686TIP3    H247550   4.505   4.234  12.020  0.8564 -1.8404  0.9577
 8687TIP3   OH247551   6.738   3.195   2.083 -0.0569  0.0900 -0.0865
 8687TIP3    H147552   6.697   3.125   2.134 -0.4985  0.0736 -0.4533
 8687TIP3    H247553   6.832   3.177   2.089  0.0484  1.1991  2.3074
 8688TIP3   OH247554   4.692   2.036  11.776 -0.4367 -0.9709 -0.1504
 8688TIP3    H147555   4.748   2.014  11.701 -1.3334 -3.0969 -0.2488
 8688TIP3    H247556   4.708   1.967  11.840  0.1865  0.7161  1.6443
 8689TIP3   OH247557   1.152   0.806  11.102  0.1314  0.2894  0.0985
 8689TIP3    H147558   1.151   0.798  11.007  0.0589  0.0682  0.1185
 8689TIP3    H247559   1.072   0.853  11.123 -1.0414 -1.6829  0.2347
 8690TIP3   OH247560   5.735   2.213   4.682 -0.0390  0.1564 -0.1428
 8690TIP3    H147561   5.651   2.248   4.713 -1.0777 -1.4152 -1.0593
 8690TIP3    H247562   5.748   2.252   4.596 -0.5402 -0.6495 -0.5956
 8691TIP3   OH247563   3.883   5.232  13.532  0.6369 -0.7142 -0.4017
 8691TIP3    H147564   3.911   5.294  13.465  1.9754 -1.7737 -0.8712
 8691TIP3    H247565   3.963   5.209  13.578  0.3913 -2.9693 -1.0055
 8692TIP3   OH247566   6.061   2.037   4.400  0.4089  0.7064  0.2752
 8692TIP3    H147567   6.083   2.111   4.456  1.2465  0.3496  0.4373
 8692TIP3    H247568   6.111   2.052   4.319  1.3990 -0.1754  0.6919
 8693TIP3   OH247569   3.891   3.996  12.696 -0.6847 -0.4097 -0.6049
 8693TIP3    H147570   3.841   3.973  12.618 -0.3155 -0.7430 -0.7449
 8693TIP3    H247571   3.926   4.083  12.677 -1.6123  0.0470 -0.3050
 8694TIP3   OH247572   6.544   5.182  17.183  0.8568  0.2707 -0.4303
 8694TIP3    H147573   6.615   5.127  17.148  0.1270  0.1620 -1.8037
 8694TIP3    H247574   6.531   5.249  17.117  2.1009  2.5304  1.4491
 8695TIP3   OH247575   0.163   4.225   0.165  0.1333  1.0887  0.4251
 8695TIP3    H147576   0.250   4.225   0.204  0.5970 -0.2402 -0.5432
 8695TIP3    H247577   0.110   4.171   0.224  0.4429  0.3744  0.0632
 8696TIP3   OH247578   2.959   3.260   0.786 -0.5194 -0.0482  0.5360
 8696TIP3    H147579   2.872   3.291   0.811 -1.1190 -1.4324  0.2433
 8696TIP3    H247580   2.972   3.179   0.834  0.8861  0.4301  1.0371
 8697TIP3   OH247581   5.045   3.104  16.830 -0.3242  0.4718 -0.3857
 8697TIP3    H147582   4.954   3.084  16.850 -0.1739 -0.4662 -0.5969
 8697TIP3    H247583   5.072   3.166  16.898 -0.8370  0.0116  0.2516
 8698TIP3   OH247584   2.504   0.025   3.955  0.5442  0.4434 -0.2198
 8698TIP3    H147585   2.440   0.054   3.889  0.0971 -1.9245 -0.9120
 8698TIP3    H247586   2.465  -0.053   3.993  1.1698  1.2981  2.3651
 8699TIP3   OH247587   6.241   1.238  14.418 -0.0061  0.1466 -0.2260
 8699TIP3    H147588   6.193   1.156  14.401 -0.9767  0.9305 -1.5601
 8699TIP3    H247589   6.181   1.307  14.387  1.1788  1.3035 -0.0249
 8700TIP3   OH247590   3.701   4.862  15.229  0.4661  0.5237 -0.4514
 8700TIP3    H147591   3.698   4.929  15.161  0.2274  0.5194 -0.4451
 8700TIP3    H247592   3.711   4.912  15.311  0.7446  0.5293 -0.4855
 8701TIP3   OH247593   1.138   0.435   4.800  0.1570  0.1099 -0.7117
 8701TIP3    H147594   1.215   0.455   4.746  0.9113  1.8902  0.9067
 8701TIP3    H247595   1.065   0.476   4.754  0.1962 -1.2123 -2.0310
 8702TIP3   OH247596   4.261   1.903   2.668  0.4122  0.6626 -0.1293
 8702TIP3    H147597   4.307   1.900   2.751  0.6785  0.4699 -0.2807
 8702TIP3    H247598   4.215   1.987   2.668  0.7964  0.8756  0.0060
 8703TIP3   OH247599   4.828   3.796  12.508 -0.3257  0.3583  0.3081
 8703TIP3    H147600   4.810   3.771  12.599 -0.6549  1.9250  0.6963
 8703TIP3    H247601   4.744   3.828  12.475 -0.3679 -0.8001 -0.7748
 8704TIP3   OH247602   5.668   2.892   4.952 -0.2816  0.5989  0.2583
 8704TIP3    H147603   5.759   2.863   4.948 -0.6430 -0.4069 -1.2207
 8704TIP3    H247604   5.616   2.814   4.933 -1.3867  1.5662 -0.8757
 8705TIP3   OH247605   5.525   6.791   0.072  0.3723 -0.5390  0.0826
 8705TIP3    H147606   5.514   6.868   0.128  1.3559  0.4925 -1.0928
 8705TIP3    H247607   5.438   6.774   0.037 -0.0471 -0.5702  1.0911
 8706TIP3   OH247608   1.734   3.099  11.533 -0.2801  0.2423  0.1876
 8706TIP3    H147609   1.729   3.169  11.598  0.5806 -1.7796  2.6021
 8706TIP3    H247610   1.650   3.053  11.541 -0.1726 -0.0119 -0.1416
 8707TIP3   OH247611   5.305   2.858   6.240  0.4807  0.6407 -0.4619
 8707TIP3    H147612   5.312   2.951   6.219 -0.9146  0.7584 -0.4406
 8707TIP3    H247613   5.256   2.855   6.322  0.9693 -0.1034 -0.1762
 8708TIP3   OH247614   2.513   6.434  11.964  0.1552  0.5930 -0.4724
 8708TIP3    H147615   2.489   6.455  11.874  0.8199  0.3188 -0.7254
 8708TIP3    H247616   2.439   6.384  11.999 -0.8245  2.0944 -0.3253
 8709TIP3   OH247617   1.463   4.781   3.185  0.0212 -0.4906  0.2733
 8709TIP3    H147618   1.502   4.831   3.114 -0.2283  1.5111  1.4995
 8709TIP3    H247619   1.372   4.811   3.189 -0.2605 -1.3534  0.7638
 8710TIP3   OH247620   1.242   1.359   5.165 -0.2085 -0.5015 -0.5003
 8710TIP3    H147621   1.169   1.361   5.104 -0.3544 -0.1859 -0.3185
 8710TIP3    H247622   1.207   1.316   5.243 -0.2137 -0.3156 -0.3991
 8711TIP3   OH247623   5.920   4.744   4.811  0.0338 -0.5272  0.4329
 8711TIP3    H147624   5.994   4.794   4.846 -0.9784 -0.5086  2.6877
 8711TIP3    H247625   5.958   4.660   4.785  0.7971 -0.6954  1.9879
 8712TIP3   OH247626   4.764   6.334   3.971 -0.5323 -0.5549 -0.3223
 8712TIP3    H147627   4.711   6.379   3.906  1.8587 -0.1126 -2.0727
 8712TIP3    H247628   4.795   6.255   3.927 -0.5132 -1.3240  1.0073
 8713TIP3   OH247629   4.159   6.035  11.651  0.1209  0.6586 -0.0585
 8713TIP3    H147630   4.085   6.065  11.703 -0.9082 -1.1038 -0.4339
 8713TIP3    H247631   4.145   6.074  11.564 -0.6060  0.0036 -0.2423
 8714TIP3   OH247632   6.748   1.623   4.572  0.3580 -0.1013 -0.0380
 8714TIP3    H147633   6.726   1.658   4.659 -0.0691  0.2589 -0.2829
 8714TIP3    H247634   6.766   1.530   4.587 -0.0604 -0.1209  0.3863
 8715TIP3   OH247635   2.863   5.296   2.669 -0.2732 -0.5265 -0.1508
 8715TIP3    H147636   2.850   5.388   2.690 -0.2758  0.2770 -3.1657
 8715TIP3    H247637   2.778   5.255   2.686 -0.7703  0.3882 -0.3914
 8716TIP3   OH247638   5.546   4.558  16.299  0.4345 -0.0260  0.0865
 8716TIP3    H147639   5.629   4.525  16.332 -0.2623 -2.9094 -0.7351
 8716TIP3    H247640   5.562   4.575  16.206  0.3213  0.2115  0.1094
 8717TIP3   OH247641   2.918   4.146  10.708  0.6109 -0.0171 -0.2042
 8717TIP3    H147642   2.845   4.175  10.762  2.0488  2.3873  0.5984
 8717TIP3    H247643   2.887   4.156  10.618 -0.3027  0.1996  0.1284
 8718TIP3   OH247644   3.546   6.370   3.182  0.5025  0.5243 -0.3281
 8718TIP3    H147645   3.486   6.317   3.233  0.3833  1.8050  0.9237
 8718TIP3    H247646   3.588   6.308   3.122 -0.9956 -0.6283 -0.2470
 8719TIP3   OH247647   3.467   1.113   3.003 -0.0942  0.2745 -0.5204
 8719TIP3    H147648   3.406   1.039   3.001 -1.0426  1.0402 -2.0287
 8719TIP3    H247649   3.419   1.184   2.961  1.8504  0.9205 -1.7816
 8720TIP3   OH247650   1.889   6.747   4.341  0.0494  0.0990  0.1975
 8720TIP3    H147651   1.880   6.697   4.422 -0.9172 -0.8638 -0.4632
 8720TIP3    H247652   1.984   6.752   4.326  0.4105  2.4188  2.6006
 8721TIP3   OH247653   1.783   2.551  14.182 -0.5484  0.4148  0.7752
 8721TIP3    H147654   1.839   2.594  14.246  0.3392  2.7202 -1.3986
 8721TIP3    H247655   1.721   2.618  14.153 -1.2923 -0.6956 -0.3890
 8722TIP3   OH247656   3.700   2.354   1.769  0.0961 -0.4208 -0.0802
 8722TIP3    H147657   3.686   2.274   1.719 -0.7332 -0.8475  0.8084
 8722TIP3    H247658   3.617   2.402   1.762  1.2306  1.4323 -2.3836
 8723TIP3   OH247659   6.086   2.697  10.671 -0.0071  0.3400  0.1117
 8723TIP3    H147660   6.109   2.789  10.655  0.0071  0.6257  1.5768
 8723TIP3    H247661   6.166   2.649  10.652  0.4946  0.8304  0.9132
 8724TIP3   OH247662   0.642   0.409   3.865 -0.0292  0.7111  0.0545
 8724TIP3    H147663   0.586   0.333   3.847  0.7886  0.0050  0.3804
 8724TIP3    H247664   0.613   0.475   3.802 -0.9582  0.2308 -0.0402
 8725TIP3   OH247665   2.556   3.017  14.035  0.1966 -0.0430 -0.3713
 8725TIP3    H147666   2.559   3.111  14.016  1.2812  0.5384  2.2649
 8725TIP3    H247667   2.478   2.986  13.988  0.3713  1.9187 -2.1309
 8726TIP3   OH247668   4.989   4.970   5.816 -0.2891 -0.1353  0.6416
 8726TIP3    H147669   4.925   5.002   5.753  0.0523 -0.4978  0.0990
 8726TIP3    H247670   5.003   5.043   5.876 -0.9774  0.0465  0.5809
 8727TIP3   OH247671   2.217   3.288   0.914 -0.1213 -0.0004 -0.0727
 8727TIP3    H147672   2.141   3.283   0.972  0.1825  1.5345  0.5125
 8727TIP3    H247673   2.271   3.357   0.952  2.7752 -2.5526  0.9093
 8728TIP3   OH247674   5.547   2.932  15.821 -0.1206 -0.0841 -0.2487
 8728TIP3    H147675   5.510   2.926  15.909 -0.5305  0.2029 -0.3975
 8728TIP3    H247676   5.543   2.843  15.786  1.2309 -0.4658  0.4923
 8729TIP3   OH247677   6.719   0.423   1.114  0.2888 -0.4305  0.5944
 8729TIP3    H147678   6.639   0.420   1.062  1.3113 -0.7056 -1.0195
 8729TIP3    H247679   6.743   0.332   1.127  0.0180 -0.3675  1.6305
 8730TIP3   OH247680   1.625   4.078  12.340 -0.2206 -0.2029 -0.2369
 8730TIP3    H147681   1.709   4.124  12.339 -0.7258  0.7517 -1.9155
 8730TIP3    H247682   1.610   4.057  12.432  1.2827  0.6705  0.2344
 8731TIP3   OH247683   1.087   4.682   5.747  0.6612 -0.3541  0.1964
 8731TIP3    H147684   1.142   4.642   5.679  2.5372 -1.0201  2.0149
 8731TIP3    H247685   1.120   4.645   5.829  0.4034  2.5996  1.7385
 8732TIP3   OH247686   5.268   5.357   0.873 -0.5204 -0.1232  0.1026
 8732TIP3    H147687   5.314   5.384   0.793 -0.6812  2.3164  0.7535
 8732TIP3    H247688   5.311   5.275   0.898  2.4924  1.2268 -0.1663
 8733TIP3   OH247689   0.026   5.016   0.418  0.2783 -0.2094 -0.0752
 8733TIP3    H147690   0.053   4.984   0.504  2.0796 -1.5080 -1.0600
 8733TIP3    H247691   0.034   5.111   0.424  0.9574 -0.3203  1.0360
 8734TIP3   OH247692   4.069   2.838  12.842  0.2975 -0.0449 -0.3395
 8734TIP3    H147693   4.025   2.827  12.927  1.0737 -1.3523 -0.0852
 8734TIP3    H247694   4.132   2.909  12.856  1.3954 -1.1651  0.6094
 8735TIP3   OH247695   0.136   2.630  11.092  0.1631 -0.0828  0.5231
 8735TIP3    H147696   0.222   2.589  11.097 -0.0462 -0.4171  1.7263
 8735TIP3    H247697   0.110   2.619  11.000  1.4882  0.2405  0.0910
 8736TIP3   OH247698   5.673   6.346  12.686 -0.3849  0.4871 -0.3327
 8736TIP3    H147699   5.703   6.344  12.777  1.0581  1.7114 -0.7471
 8736TIP3    H247700   5.752   6.365  12.635 -1.5683  2.1441 -1.6438
 8737TIP3   OH247701   1.012   3.625  10.668 -0.9936 -0.2148  0.1700
 8737TIP3    H147702   1.048   3.681  10.737 -0.5149  2.3690 -1.9970
 8737TIP3    H247703   1.020   3.536  10.703  1.8173  0.7033  2.2994
 8738TIP3   OH247704   1.899   6.173  14.880  0.2973 -0.5026 -0.6859
 8738TIP3    H147705   1.908   6.200  14.972 -2.8128 -0.3501 -0.3345
 8738TIP3    H247706   1.920   6.252  14.830  1.4041 -0.4136 -0.1171
 8739TIP3   OH247707   5.250   4.549  15.433  0.0173  0.4508 -0.2410
 8739TIP3    H147708   5.248   4.559  15.338 -0.9372  0.1245 -0.2703
 8739TIP3    H247709   5.158   4.555  15.459 -0.1188 -2.4426  0.3069
 8740TIP3   OH247710   4.361   0.940  16.080 -0.2046 -0.4909 -0.1976
 8740TIP3    H147711   4.396   0.862  16.123  0.3709  0.0526  0.3277
 8740TIP3    H247712   4.289   0.969  16.136  0.3290  0.0207  0.2406
 8741TIP3   OH247713   4.605   5.289   4.264 -0.4540  0.0848 -0.7113
 8741TIP3    H147714   4.532   5.234   4.291 -0.5585  0.0980 -0.9710
 8741TIP3    H247715   4.680   5.253   4.312 -1.0596  1.6246  1.5715
 8742TIP3   OH247716   5.319   6.590  16.528 -0.2125  0.1396 -0.3197
 8742TIP3    H147717   5.328   6.684  16.544 -0.5768  0.4412 -1.7576
 8742TIP3    H247718   5.288   6.555  16.612  1.9727  0.9390  0.9152
 8743TIP3   OH247719   6.640   6.578   1.906 -0.3119  0.3207  0.3392
 8743TIP3    H147720   6.731   6.579   1.935  0.0343  1.2675 -0.7052
 8743TIP3    H247721   6.589   6.580   1.987  0.6100  1.8636  0.9384
 8744TIP3   OH247722   5.151   4.797   2.630  0.1933  0.0854  0.1046
 8744TIP3    H147723   5.126   4.880   2.672  1.6419  0.8083 -0.3940
 8744TIP3    H247724   5.212   4.756   2.691  1.7266  0.7903 -0.8971
 8745TIP3   OH247725   0.127   6.140  11.663  0.1773  0.2427  0.1822
 8745TIP3    H147726   0.095   6.131  11.753  1.7639  0.4912  0.8187
 8745TIP3    H247727   0.161   6.053  11.641 -0.4852  0.1034 -0.2960
 8746TIP3   OH247728   1.166   3.410  14.182  0.2238 -0.0594  0.1980
 8746TIP3    H147729   1.097   3.401  14.249  0.0013  1.5642  0.2357
 8746TIP3    H247730   1.237   3.455  14.227  0.0974  0.9977 -0.6341
 8747TIP3   OH247731   4.188   1.185  14.625  1.0848 -0.1853  0.9610
 8747TIP3    H147732   4.155   1.102  14.660 -1.1131 -0.0758 -0.6295
 8747TIP3    H247733   4.200   1.240  14.703 -1.4029 -0.7002  1.8170
 8748TIP3   OH247734   6.268   5.931   2.609  0.0619  0.6257 -0.2186
 8748TIP3    H147735   6.204   5.999   2.590 -0.7555 -0.3475 -1.1192
 8748TIP3    H247736   6.251   5.863   2.543  2.6850  0.7449 -1.1764
 8749TIP3   OH247737   0.164   2.601   2.754  0.3872 -0.1384 -0.5278
 8749TIP3    H147738   0.201   2.517   2.725 -1.5106 -0.7126 -1.4947
 8749TIP3    H247739   0.110   2.579   2.830  0.4898  0.3388 -0.3140
 8750TIP3   OH247740   0.458   1.501   6.638  0.0341  0.3056  0.1945
 8750TIP3    H147741   0.367   1.478   6.658  0.1015 -1.0835 -0.9304
 8750TIP3    H247742   0.461   1.597   6.647 -2.0171  0.6056 -1.5211
 8751TIP3   OH247743   1.166   4.132   4.546 -0.2130 -0.1270  0.5226
 8751TIP3    H147744   1.091   4.180   4.509 -1.6424 -0.8562  2.3053
 8751TIP3    H247745   1.187   4.066   4.480  0.7638  1.8725 -1.2624
 8752TIP3   OH247746   0.089   1.836  16.601  0.0096 -0.2932 -0.4814
 8752TIP3    H147747   0.177   1.802  16.585 -0.8944 -2.4787 -1.2066
 8752TIP3    H247748   0.038   1.807  16.525 -1.3816  0.8072 -0.0157
 8753TIP3   OH247749   0.394   5.448   0.391  0.2995  0.4852  0.1100
 8753TIP3    H147750   0.470   5.495   0.425 -0.6335  2.2240 -0.0798
 8753TIP3    H247751   0.344   5.515   0.344 -0.6413 -0.9224 -0.9709
 8754TIP3   OH247752   3.600   1.380  15.967  0.0280  0.0995  0.0436
 8754TIP3    H147753   3.672   1.318  15.968 -0.8146 -0.9365 -1.2429
 8754TIP3    H247754   3.634   1.455  15.917  0.6087  0.1456  0.4953
 8755TIP3   OH247755   0.850   2.254   1.233 -0.1016 -1.0711  0.6589
 8755TIP3    H147756   0.846   2.221   1.323 -1.8470  1.3192  1.5807
 8755TIP3    H247757   0.778   2.209   1.188 -0.6002 -0.7238  1.0874
 8756TIP3   OH247758   1.063   2.335   1.965 -0.0984 -0.0694 -0.1528
 8756TIP3    H147759   0.973   2.366   1.962 -0.2761 -0.6102 -1.2832
 8756TIP3    H247760   1.099   2.372   2.045 -0.9884  1.0874 -0.2552
 8757TIP3   OH247761   3.471   1.629   1.487 -0.0243 -0.1080 -0.0533
 8757TIP3    H147762   3.523   1.662   1.413  0.5968 -0.5663  0.1711
 8757TIP3    H247763   3.392   1.594   1.446  0.3197 -0.3716 -0.5148
 8758TIP3   OH247764   1.810   6.274   0.413 -0.0374  0.2257  0.3363
 8758TIP3    H147765   1.808   6.316   0.499  1.4964  0.2712  0.3735
 8758TIP3    H247766   1.755   6.197   0.422  0.6739 -0.1623  1.5914
 8759TIP3   OH247767   0.161   0.144  16.559  0.2330  0.5706  0.0516
 8759TIP3    H147768   0.138   0.147  16.652 -0.1873  1.3531 -0.0683
 8759TIP3    H247769   0.077   0.147  16.513  0.4647  0.8489 -0.3620
 8760TIP3   OH247770   6.531   5.148   2.223 -0.5849 -0.1415  0.2314
 8760TIP3    H147771   6.474   5.117   2.294 -1.7076 -0.2979 -0.7052
 8760TIP3    H247772   6.471   5.188   2.160  0.2987 -0.6702 -0.9837
 8761TIP3   OH247773   5.001   5.193   1.711  0.3353 -0.1691 -0.0227
 8761TIP3    H147774   4.920   5.195   1.659  0.5026 -1.2515 -0.3429
 8761TIP3    H247775   5.042   5.110   1.689  0.7876 -0.3159  1.2849
 8762TIP3   OH247776   0.773   1.839   4.117  0.0073 -0.4713 -0.0530
 8762TIP3    H147777   0.678   1.848   4.123  0.0979 -0.0806  1.1192
 8762TIP3    H247778   0.794   1.764   4.173  0.5880  0.9512  1.7398
 8763TIP3   OH247779   2.064   6.374  13.065 -0.3518  0.8646  0.1438
 8763TIP3    H147780   2.080   6.318  13.141 -0.5902  1.6377  0.7848
 8763TIP3    H247781   2.085   6.462  13.096  0.3544  1.0991 -0.9458
 8764TIP3   OH247782   4.336   6.150  13.566 -0.1045  0.4054 -0.4071
 8764TIP3    H147783   4.330   6.075  13.625 -0.4575  1.0575  0.4097
 8764TIP3    H247784   4.420   6.139  13.522 -0.2551 -0.5904 -0.4709
 8765TIP3   OH247785   6.001   2.285   3.661  0.7145  0.6747 -0.3265
 8765TIP3    H147786   6.042   2.198   3.654 -0.4819  0.0992 -0.4875
 8765TIP3    H247787   5.908   2.268   3.646  0.0717  1.6022  2.1786
 8766TIP3   OH247788   1.853   5.902  15.585 -0.2102 -0.5172  0.2778
 8766TIP3    H147789   1.907   5.885  15.508 -0.5184 -1.3085  0.2293
 8766TIP3    H247790   1.867   5.995  15.604  1.8782 -0.8954  0.8122
 8767TIP3   OH247791   5.657   2.112   1.197  0.5981  0.4799 -0.3112
 8767TIP3    H147792   5.675   2.025   1.162  1.0278  0.7002 -0.6618
 8767TIP3    H247793   5.713   2.170   1.145  0.9654  0.8601  0.4970
 8768TIP3   OH247794   5.086   6.159  13.107 -0.1760  0.7525  0.0851
 8768TIP3    H147795   5.032   6.235  13.088 -0.3645  0.7729  0.6764
 8768TIP3    H247796   5.097   6.161  13.203  0.8411  0.7357 -0.0195
 8769TIP3   OH247797   3.987   6.659   6.184  0.3105  0.1103 -0.5359
 8769TIP3    H147798   4.081   6.655   6.164  0.6326  1.9794  0.4011
 8769TIP3    H247799   3.964   6.569   6.207  1.7399 -0.4938 -1.3360
 8770TIP3   OH247800   5.724   3.604  12.254  0.2580  0.2878  1.0790
 8770TIP3    H147801   5.664   3.628  12.184  1.1046 -1.1882 -0.2251
 8770TIP3    H247802   5.715   3.674  12.319 -2.9654  0.0558  1.0385
 8771TIP3   OH247803   3.991   3.187   0.503  1.0551 -0.3888 -1.2989
 8771TIP3    H147804   3.925   3.120   0.486  1.3352 -0.5994 -1.5445
 8771TIP3    H247805   4.036   3.157   0.582  0.5836 -0.0345 -0.8869
 8772TIP3   OH247806   3.719   4.543  14.284  0.2022 -0.5022 -0.1365
 8772TIP3    H147807   3.685   4.581  14.203 -0.8352 -0.2551  0.4022
 8772TIP3    H247808   3.710   4.613  14.349 -3.1407 -2.0215  1.2598
 8773TIP3   OH247809   4.269   4.988  11.254 -0.1731  0.2083 -0.5435
 8773TIP3    H147810   4.195   5.002  11.194 -0.7893  0.6339  0.3081
 8773TIP3    H247811   4.263   4.896  11.278  1.1481 -0.4573 -2.5207
 8774TIP3   OH247812   5.451   5.023  14.543  0.8116  0.4102  0.3839
 8774TIP3    H147813   5.421   5.100  14.591  0.3741  0.0201  0.7383
 8774TIP3    H247814   5.493   5.059  14.465  1.2080  1.0390  0.8682
 8775TIP3   OH247815   3.144   6.528   2.144  0.4207 -0.1352  0.3949
 8775TIP3    H147816   3.224   6.547   2.193  0.5747 -1.0549  0.5043
 8775TIP3    H247817   3.151   6.436   2.120  0.4104  0.3022 -1.4777
 8776TIP3   OH247818   0.300   4.319   4.104 -0.4380 -0.1238 -0.3108
 8776TIP3    H147819   0.309   4.394   4.163  0.3765 -0.4712  0.0141
 8776TIP3    H247820   0.315   4.355   4.017 -2.3518  0.5397 -0.4330
 8777TIP3   OH247821   1.552   0.551   4.318  1.0388  0.2846  0.3928
 8777TIP3    H147822   1.554   0.466   4.274 -0.2389  0.3408  0.1840
 8777TIP3    H247823   1.537   0.614   4.247 -3.5613  0.1875  0.9699
 8778TIP3   OH247824   5.742   1.730   2.126  0.2491  0.1597 -0.4640
 8778TIP3    H147825   5.725   1.656   2.067  0.8106 -1.8831  1.7752
 8778TIP3    H247826   5.707   1.702   2.211  2.6564  1.4031  1.0688
 8779TIP3   OH247827   2.396   3.181  11.361  0.1060  0.2786  0.0320
 8779TIP3    H147828   2.430   3.202  11.448 -1.7217  0.8974  0.6634
 8779TIP3    H247829   2.359   3.093  11.370 -1.4965  0.9498  0.3786
 8780TIP3   OH247830   3.587   4.399  15.194 -0.2885 -0.0541  0.3050
 8780TIP3    H147831   3.602   4.326  15.134  0.8804  0.5186 -0.1278
 8780TIP3    H247832   3.631   4.473  15.153 -1.2222  0.8458  0.8680
 8781TIP3   OH247833   2.889   3.449   3.567 -0.4775  0.2911 -0.0315
 8781TIP3    H147834   2.810   3.434   3.515 -0.6092 -0.6137  0.4008
 8781TIP3    H247835   2.961   3.445   3.505 -0.5136 -2.1541  0.0126
 8782TIP3   OH247836   3.157   4.446   2.621  0.2220 -0.2899 -0.4900
 8782TIP3    H147837   3.223   4.434   2.690  0.7337  1.9947 -0.5179
 8782TIP3    H247838   3.077   4.469   2.668  0.3322  0.3489 -0.6164
 8783TIP3   OH247839   3.162   6.817  15.226  0.1027 -0.4551  0.3165
 8783TIP3    H147840   3.140   6.734  15.268  0.2919 -1.0612 -0.7591
 8783TIP3    H247841   3.087   6.837  15.171  0.4032 -0.3422 -0.0605
 8784TIP3   OH247842   6.010   2.688   2.942  0.7446 -0.0229  0.2220
 8784TIP3    H147843   6.079   2.738   2.898  0.8156 -0.0566  0.2951
 8784TIP3    H247844   5.986   2.741   3.017  1.4334 -0.5009  0.7978
 8785TIP3   OH247845   6.734   4.028   4.294 -0.2357  0.0978  0.4066
 8785TIP3    H147846   6.655   4.081   4.309  0.7802  1.6012  0.7384
 8785TIP3    H247847   6.733   3.964   4.365  0.9668  2.8171  3.1486
 8786TIP3   OH247848   6.754   1.515  14.892  0.4220 -0.2477  0.1525
 8786TIP3    H147849   6.700   1.594  14.900  0.4530  0.0016 -1.7122
 8786TIP3    H247850   6.701   1.446  14.932 -0.0169  0.5295  0.9478
 8787TIP3   OH247851   5.437   0.438   0.369  0.0432  0.1042 -0.2416
 8787TIP3    H147852   5.354   0.425   0.324 -2.8157  0.6616  4.1901
 8787TIP3    H247853   5.431   0.527   0.405  2.7027  0.2550  0.0364
 8788TIP3   OH247854   5.847   0.769   3.656  0.0410 -0.5307 -0.3749
 8788TIP3    H147855   5.854   0.845   3.598  1.3987 -1.5628 -1.6405
 8788TIP3    H247856   5.779   0.714   3.616  0.5325 -0.9499 -0.6383
 8789TIP3   OH247857   5.827   5.275   5.139  0.2120 -0.0907  0.1368
 8789TIP3    H147858   5.822   5.236   5.052  0.2400 -2.0680  0.9594
 8789TIP3    H247859   5.736   5.285   5.166  0.2120 -0.7409  0.3927
 8790TIP3   OH247860   2.995   2.418  14.291 -0.7512  0.3254  0.3012
 8790TIP3    H147861   2.996   2.421  14.387 -0.5230 -1.0352  0.3612
 8790TIP3    H247862   2.915   2.464  14.267 -0.1245  1.9163  1.0612
 8791TIP3   OH247863   0.687   1.358  12.119  0.5226  0.3626 -0.0923
 8791TIP3    H147864   0.744   1.435  12.115  0.5811  0.2810 -3.3340
 8791TIP3    H247865   0.603   1.392  12.149  1.2765  1.1103  1.3229
 8792TIP3   OH247866   2.274   6.655   3.907 -0.1530  0.0960 -0.0691
 8792TIP3    H147867   2.262   6.668   3.813 -0.9013  2.9333  0.3431
 8792TIP3    H247868   2.188   6.673   3.945 -0.0420 -1.6842  1.1618
 8793TIP3   OH247869   5.873   2.294   4.390 -0.3788 -0.4289 -0.0160
 8793TIP3    H147870   5.932   2.339   4.329 -0.2381  0.5369  0.8001
 8793TIP3    H247871   5.828   2.229   4.337  1.6685 -1.4470 -0.6120
 8794TIP3   OH247872   0.835   5.768   3.670 -0.0508  0.2938  0.1712
 8794TIP3    H147873   0.860   5.689   3.621  0.2614 -1.1682  2.5195
 8794TIP3    H247874   0.796   5.734   3.751 -0.5008  2.5767  0.9715
 8795TIP3   OH247875   3.164   3.927   5.621 -0.3985 -0.2235  0.0056
 8795TIP3    H147876   3.157   3.890   5.709 -0.8252  1.2856  0.6453
 8795TIP3    H247877   3.249   3.895   5.589  0.0020 -0.3876  1.1700
 8796TIP3   OH247878   3.965   1.639  15.353  0.2643  0.1603  0.3429
 8796TIP3    H147879   3.900   1.647  15.283  0.0510 -1.2797  0.3382
 8796TIP3    H247880   3.962   1.723  15.399 -1.0775  0.3857 -0.1180
 8797TIP3   OH247881   4.267   0.804   6.648  0.2564  0.1723 -0.2124
 8797TIP3    H147882   4.255   0.862   6.572  0.8609  0.7817  0.1434
 8797TIP3    H247883   4.241   0.858   6.723  0.7942 -0.0303  0.1204
 8798TIP3   OH247884   5.352   3.560   1.188 -0.3065 -0.0955 -0.1013
 8798TIP3    H147885   5.393   3.473   1.185  0.4012  0.2327 -0.1423
 8798TIP3    H247886   5.394   3.608   1.117 -1.0006  0.1581 -0.3474
 8799TIP3   OH247887   2.747   2.358   2.467  0.3870  0.3637 -0.7777
 8799TIP3    H147888   2.800   2.428   2.505  0.2793  0.2747 -0.4622
 8799TIP3    H247889   2.771   2.280   2.516 -1.3032  0.6448  0.5615
 8800TIP3   OH247890   6.136   5.906  12.970  0.0440  0.3893 -0.0808
 8800TIP3    H147891   6.175   5.820  12.953  0.6753  0.8045 -0.8299
 8800TIP3    H247892   6.065   5.888  13.031 -0.6910 -0.8672 -1.2330
 8801TIP3   OH247893   5.974   5.102   5.307 -0.6992  0.0347 -0.5264
 8801TIP3    H147894   5.934   5.174   5.258 -1.1433  1.3525  1.6240
 8801TIP3    H247895   6.063   5.131   5.325 -0.0136 -1.1322 -1.8230
 8802TIP3   OH247896   1.852   3.873  12.465 -0.2704 -0.4037 -0.1887
 8802TIP3    H147897   1.861   3.778  12.473 -1.1579 -0.6174 -1.4010
 8802TIP3    H247898   1.776   3.895  12.519 -1.0599 -0.6315 -1.1799
 8803TIP3   OH247899   2.293   3.639  14.634 -0.4596 -0.2424 -0.2422
 8803TIP3    H147900   2.325   3.551  14.614  0.7442  0.3604 -1.1250
 8803TIP3    H247901   2.358   3.698  14.594 -1.3954  1.0456  0.0563
 8804TIP3   OH247902   1.061   3.648   3.376 -0.0123 -0.4688  0.2679
 8804TIP3    H147903   0.998   3.704   3.330 -0.8311  0.1969  2.1076
 8804TIP3    H247904   1.008   3.596   3.436  1.1096 -0.4618  1.2933
 8805TIP3   OH247905   0.311   6.830  14.984 -0.5642  0.2969 -0.0440
 8805TIP3    H147906   0.255   6.792  14.917  0.8204  1.1601 -1.7660
 8805TIP3    H247907   0.337   6.756  15.039 -1.5770 -0.4550 -0.5512
 8806TIP3   OH247908   2.050   1.198  15.055  0.1052  0.1818  0.0385
 8806TIP3    H147909   2.091   1.132  14.999 -0.5341 -0.7299  0.6039
 8806TIP3    H247910   1.956   1.189  15.037  0.0410  1.4758 -0.4278
 8807TIP3   OH247911   6.348   0.112   1.748 -0.0313 -0.4963  0.1370
 8807TIP3    H147912   6.427   0.059   1.744 -0.1528 -0.6167 -0.8096
 8807TIP3    H247913   6.357   0.162   1.829  1.6590  0.5073 -0.6247
 8808TIP3   OH247914   4.943   4.257  10.888  0.6412 -0.1483 -0.3399
 8808TIP3    H147915   5.029   4.253  10.929  0.3687  0.2959  0.3013
 8808TIP3    H247916   4.914   4.347  10.901 -0.2046 -0.4646  0.0735
 8809TIP3   OH247917   1.278   6.097   0.536 -0.2492 -0.2133 -0.1527
 8809TIP3    H147918   1.194   6.115   0.578 -0.0777 -1.5659  0.8404
 8809TIP3    H247919   1.284   6.002   0.534  0.7020 -0.1508 -1.3941
 8810TIP3   OH247920   4.170   1.082  11.750 -0.2606  0.4479  0.5051
 8810TIP3    H147921   4.133   1.078  11.839 -0.4041  1.0654  0.4831
 8810TIP3    H247922   4.194   1.174  11.739  0.6779  0.1801  0.2653
 8811TIP3   OH247923   3.636   1.587   3.935 -0.3878  0.0090 -0.2098
 8811TIP3    H147924   3.545   1.612   3.921  0.0469  0.9633 -1.5608
 8811TIP3    H247925   3.680   1.668   3.960  0.2681 -0.2401 -0.5233
 8812TIP3   OH247926   5.027   1.558   3.335  0.4462 -0.2119 -0.5733
 8812TIP3    H147927   4.993   1.478   3.295 -3.9335  0.7556  0.6179
 8812TIP3    H247928   5.020   1.624   3.266  0.4329 -0.1341 -0.4983
 8813TIP3   OH247929   3.224   4.167  15.838 -0.0241  0.2833  0.0484
 8813TIP3    H147930   3.198   4.205  15.754 -0.2902 -1.2609 -0.6125
 8813TIP3    H247931   3.141   4.138  15.878  0.2517 -0.6841 -0.0440
 8814TIP3   OH247932   1.854   6.784   5.667 -0.4344 -0.4632 -0.2510
 8814TIP3    H147933   1.789   6.829   5.612  0.2068  0.7726 -0.0266
 8814TIP3    H247934   1.807   6.708   5.701 -1.7453  0.3227 -0.1951
 8815TIP3   OH247935   5.846   0.983   2.695 -0.3920 -0.2097  0.0964
 8815TIP3    H147936   5.826   1.059   2.640  1.6215  0.5471  0.2986
 8815TIP3    H247937   5.921   0.942   2.652 -2.3533 -3.0767 -0.8633
 8816TIP3   OH247938   4.074   1.837  15.552 -0.6518  0.5304  0.9127
 8816TIP3    H147939   4.093   1.872  15.639 -1.7799  2.7332  0.3398
 8816TIP3    H247940   4.078   1.913  15.494 -0.0716 -0.8686 -0.9612
 8817TIP3   OH247941   3.955   0.781   1.228 -0.6285  0.1818  0.3122
 8817TIP3    H147942   3.884   0.732   1.270 -0.8125 -0.3462 -0.5844
 8817TIP3    H247943   3.913   0.823   1.152 -0.2489  0.8896  0.4884
 8818TIP3   OH247944   3.651   1.313   2.631  0.2600  0.0159  0.2176
 8818TIP3    H147945   3.581   1.252   2.653  1.6265 -1.3529  1.0433
 8818TIP3    H247946   3.715   1.302   2.701  1.6961  0.5504 -0.9468
 8819TIP3   OH247947   6.209   1.414  11.764 -0.1535 -0.4408  0.0333
 8819TIP3    H147948   6.246   1.344  11.711  0.4960  0.4652 -0.7579
 8819TIP3    H247949   6.257   1.410  11.847  2.2033  1.0339 -1.1462
 8820TIP3   OH247950   5.205   4.566   6.149 -0.1987 -0.2673  0.5147
 8820TIP3    H147951   5.205   4.579   6.054 -0.8482  0.1392  0.5626
 8820TIP3    H247952   5.181   4.474   6.160 -4.5262  0.6360  0.3322
 8821TIP3   OH247953   2.664   4.628   2.330  0.4401 -0.5397 -0.1549
 8821TIP3    H147954   2.657   4.533   2.330 -0.4748 -0.4798 -0.2396
 8821TIP3    H247955   2.750   4.646   2.367 -0.1176 -1.3559  1.6546
 8822TIP3   OH247956   2.563   3.494   0.693  0.2561  0.3505 -0.3359
 8822TIP3    H147957   2.655   3.503   0.668  0.3913 -0.9421 -0.3457
 8822TIP3    H247958   2.564   3.437   0.770 -0.5475  0.2790 -0.3650
 8823TIP3   OH247959   4.823   6.092   0.192 -0.1484  0.7818  0.4797
 8823TIP3    H147960   4.849   6.175   0.231 -0.5555  0.7530  0.8193
 8823TIP3    H247961   4.728   6.093   0.196 -0.1267 -0.2527  1.6541
 8824TIP3   OH247962   3.437   0.084   5.512 -0.5365 -0.0680 -0.4928
 8824TIP3    H147963   3.437  -0.007   5.483 -3.1264  0.0865 -1.2414
 8824TIP3    H247964   3.439   0.079   5.608  0.8754 -0.8133 -0.5304
 8825TIP3   OH247965   3.128   2.895  11.265 -0.0638 -0.4553 -0.1425
 8825TIP3    H147966   3.095   2.953  11.333 -1.3406 -0.5114 -0.6736
 8825TIP3    H247967   3.073   2.914  11.189 -0.1481 -1.9450 -0.4957
 8826TIP3   OH247968   1.206   5.574   2.880  0.7361  0.1362 -0.3487
 8826TIP3    H147969   1.189   5.519   2.956 -0.4452  0.8774 -0.0454
 8826TIP3    H247970   1.244   5.515   2.815  1.1041 -0.6498  0.5642
 8827TIP3   OH247971   0.785   5.304  15.488  0.2786 -0.5933 -0.0653
 8827TIP3    H147972   0.724   5.239  15.522  0.5796 -0.4766  0.7359
 8827TIP3    H247973   0.851   5.313  15.557  1.0340 -0.4907 -0.7822
 8828TIP3   OH247974   4.688   2.469   4.966 -0.3066 -0.1548 -0.2465
 8828TIP3    H147975   4.620   2.426   4.915  0.3123 -0.6503 -0.6780
 8828TIP3    H247976   4.644   2.498   5.046 -1.1986  0.2961 -0.8979
 8829TIP3   OH247977   6.667   5.174   4.887 -0.2330  0.0955 -0.2590
 8829TIP3    H147978   6.655   5.198   4.979 -0.3015  0.3630 -0.3364
 8829TIP3    H247979   6.679   5.258   4.842  0.0291 -0.0485 -0.4602
 8830TIP3   OH247980   3.785   4.736   3.816 -0.0828  0.0059  0.2352
 8830TIP3    H147981   3.700   4.768   3.846  0.7604  1.5339  1.0888
 8830TIP3    H247982   3.776   4.730   3.721 -1.7357 -1.7421  0.4227
 8831TIP3   OH247983   5.087   2.720   4.952 -0.3443  0.3793 -0.3825
 8831TIP3    H147984   5.077   2.641   4.899  0.2417 -0.2195  0.3706
 8831TIP3    H247985   5.067   2.692   5.041  0.5375  0.9150  0.0030
 8832TIP3   OH247986   2.202   3.645   4.855  0.2667  0.3987  0.0876
 8832TIP3    H147987   2.137   3.688   4.799  2.0544  0.2723 -2.2761
 8832TIP3    H247988   2.279   3.702   4.850  0.7549 -0.0681  1.7992
 8833TIP3   OH247989   5.155   2.732   2.201  0.0007  0.3744 -0.1047
 8833TIP3    H147990   5.181   2.684   2.280  2.4019 -0.4356 -1.2765
 8833TIP3    H247991   5.230   2.788   2.182 -0.3888  0.3411 -1.9461
 8834TIP3   OH247992   5.525   2.476   5.741 -0.0771  0.4577  0.4659
 8834TIP3    H147993   5.609   2.464   5.786  0.5526 -2.2115 -1.1610
 8834TIP3    H247994   5.459   2.458   5.807  0.6721  0.7209  1.3071
 8835TIP3   OH247995   0.676   5.744   2.797  0.0435  0.1643  0.3360
 8835TIP3    H147996   0.643   5.764   2.884  0.4363 -1.0542  0.7819
 8835TIP3    H247997   0.615   5.788   2.738  0.0989  1.4791  1.2131
 8836TIP3   OH247998   6.368   5.873  12.516 -0.0307  0.2080 -0.2912
 8836TIP3    H147999   6.293   5.866  12.457 -0.1475 -0.6134 -0.0576
 8836TIP3    H248000   6.329   5.874  12.603  0.2613 -1.1732 -0.1239
 8837TIP3   OH248001   1.287   5.831   2.708 -0.1238  0.0483  0.4155
 8837TIP3    H148002   1.201   5.788   2.713  0.0769 -0.4171  0.0601
 8837TIP3    H248003   1.298   5.851   2.615 -0.0792  0.6016  0.5375
 8838TIP3   OH248004   0.077   4.924  13.653  0.3737 -0.6551 -0.4544
 8838TIP3    H148005   0.150   4.919  13.714  0.9387 -0.8731 -1.1380
 8838TIP3    H248006  -0.000   4.936  13.709  0.8701 -0.9069  0.2982
 8839TIP3   OH248007   2.343   2.344   2.654 -0.4751  0.0109 -0.6180
 8839TIP3    H148008   2.250   2.357   2.674 -0.5530 -0.4830 -0.6462
 8839TIP3    H248009   2.355   2.249   2.657  0.2948  0.1153  0.5996
 8840TIP3   OH248010   3.163   2.700  13.997  0.4200  0.2742 -0.2337
 8840TIP3    H148011   3.165   2.699  13.901 -0.0489 -0.8296 -0.2443
 8840TIP3    H248012   3.211   2.779  14.021 -2.3193  2.4788 -1.4440
 8841TIP3   OH248013   6.795   6.401   4.038  0.3417  0.5027  0.6211
 8841TIP3    H148014   6.779   6.375   4.129 -1.2561 -1.9037 -0.2624
 8841TIP3    H248015   6.890   6.393   4.028  0.3512 -1.1322  1.5934
 8842TIP3   OH248016   5.538   5.590  11.985 -0.1542  0.6863 -0.0747
 8842TIP3    H148017   5.504   5.672  12.021  2.2108  1.5900  0.2603
 8842TIP3    H248018   5.543   5.605  11.891 -1.2156  0.3013 -0.2112
 8843TIP3   OH248019   4.654   2.628  12.229  0.3168  0.1013  0.2273
 8843TIP3    H148020   4.744   2.603  12.211  0.5725  0.9214  0.3243
 8843TIP3    H248021   4.660   2.693  12.299 -0.2793  0.6812 -0.2389
 8844TIP3   OH248022   6.566   5.830   2.453  0.3565 -0.4197  0.0720
 8844TIP3    H148023   6.661   5.818   2.460  0.2339 -1.2430  0.4019
 8844TIP3    H248024   6.548   5.827   2.359  0.6123 -0.6043  0.0295
 8845TIP3   OH248025   6.472   2.421   4.960  0.8462  0.4214  0.2839
 8845TIP3    H148026   6.454   2.391   5.049  2.2162 -2.6161 -0.3065
 8845TIP3    H248027   6.456   2.515   4.962 -0.1734  0.3007  3.4439
 8846TIP3   OH248028   3.537   2.024   3.988 -0.4601 -0.2890  0.0381
 8846TIP3    H148029   3.565   2.032   3.897 -0.3640 -0.6311  0.0365
 8846TIP3    H248030   3.478   1.948   3.989 -1.0837  0.1926  0.1170
 8847TIP3   OH248031   6.244   3.031   1.913  0.5587  0.1478  0.2539
 8847TIP3    H148032   6.297   2.954   1.893 -0.4902 -0.8899  1.2288
 8847TIP3    H248033   6.286   3.070   1.989 -0.0992 -0.7529  1.1127
 8848TIP3   OH248034   1.129   1.176   5.365  0.8811  0.0698  0.2594
 8848TIP3    H148035   1.106   1.246   5.427  1.2916  0.9309 -0.5346
 8848TIP3    H248036   1.184   1.117   5.416 -1.7385 -1.2621  1.7849
 8849TIP3   OH248037   6.344   6.226  12.444 -0.5710 -0.1467  0.4551
 8849TIP3    H148038   6.410   6.157  12.441  1.8399  2.0183 -1.0828
 8849TIP3    H248039   6.329   6.241  12.537  2.7340  0.6172  0.9776
 8850TIP3   OH248040   1.808   6.691   4.622 -0.7871  0.8143 -0.1379
 8850TIP3    H148041   1.721   6.723   4.645 -1.9704 -1.5658 -1.0306
 8850TIP3    H248042   1.840   6.649   4.703 -0.0585  2.3852  0.4367
 8851TIP3   OH248043   4.989   0.802   1.870  0.3231  0.4478 -0.5300
 8851TIP3    H148044   5.084   0.807   1.857  0.2590  0.4476 -1.0308
 8851TIP3    H248045   4.957   0.759   1.791  0.0283 -0.7099  0.2001
 8852TIP3   OH248046   1.817   2.897   3.060 -0.0020 -0.0596  0.5333
 8852TIP3    H148047   1.783   2.960   3.123  0.3500  0.5626  0.1078
 8852TIP3    H248048   1.741   2.874   3.005  0.3542  1.8551 -0.8640
 8853TIP3   OH248049   4.052   6.146   4.211  0.2655  0.4306 -0.1280
 8853TIP3    H148050   4.078   6.099   4.132 -0.5834  1.9491 -1.3484
 8853TIP3    H248051   4.125   6.131   4.272  2.3161  1.5302 -2.1586
 8854TIP3   OH248052   3.494   2.677   4.082 -0.3516 -0.0910 -0.2051
 8854TIP3    H148053   3.480   2.766   4.050 -2.0665 -0.5261 -0.7528
 8854TIP3    H248054   3.482   2.622   4.005  1.7674 -0.7804 -0.1215
 8855TIP3   OH248055   1.104   3.063   4.290  0.4657  0.1527 -0.6070
 8855TIP3    H148056   1.161   3.097   4.360  0.7414  0.4548 -0.9718
 8855TIP3    H248057   1.054   2.993   4.332  2.3169 -1.2929 -0.6845
 8856TIP3   OH248058   5.764   4.245  12.628  0.0916  0.2147  0.3501
 8856TIP3    H148059   5.842   4.289  12.661 -0.5682  2.3350 -0.7776
 8856TIP3    H248060   5.691   4.301  12.655 -0.9023 -0.8225 -0.0965
 8857TIP3   OH248061   0.080   1.705  15.427  0.2043 -0.3294  0.2231
 8857TIP3    H148062   0.017   1.772  15.453  0.0176 -1.0050  1.6207
 8857TIP3    H248063   0.102   1.661  15.509  2.9741  0.2789 -0.1048
 8858TIP3   OH248064   1.973   0.799  17.137  0.5936 -0.4046  0.1672
 8858TIP3    H148065   1.881   0.793  17.161 -0.0267 -0.7730 -2.0809
 8858TIP3    H248066   2.000   0.708  17.125 -0.0808 -0.2485 -3.5489
 8859TIP3   OH248067   5.695   0.730  16.758 -0.1124  0.1758  0.0252
 8859TIP3    H148068   5.767   0.774  16.713  3.1014 -3.1490  1.3796
 8859TIP3    H248069   5.658   0.796  16.816  1.5691  2.1391 -1.0108
 8860TIP3   OH248070   3.581   2.607   2.838 -0.0355  0.0385  0.4899
 8860TIP3    H148071   3.599   2.534   2.779  2.1905  0.9056 -0.0053
 8860TIP3    H248072   3.519   2.662   2.790  3.5095  1.9985 -2.3235
 8861TIP3   OH248073   0.392   3.503   3.750 -0.1221 -0.3550  0.2011
 8861TIP3    H148074   0.482   3.504   3.783 -0.0765  2.4578  0.2928
 8861TIP3    H248075   0.382   3.417   3.709  2.8469 -0.5088 -0.4470
 8862TIP3   OH248076   0.953   1.927  12.258 -0.4208 -0.5152 -0.1588
 8862TIP3    H148077   0.949   1.935  12.163  1.2950  0.0148 -0.2329
 8862TIP3    H248078   0.900   2.000  12.290  0.2100  0.2329 -0.7512
 8863TIP3   OH248079   4.238   6.737   2.751 -0.4595 -0.6706  0.1914
 8863TIP3    H148080   4.303   6.725   2.682  1.5859  0.0586  1.8605
 8863TIP3    H248081   4.207   6.648   2.770  0.5653 -1.1358 -0.2102
 8864TIP3   OH248082   4.743   4.454   4.935  0.0750  0.0403 -0.1358
 8864TIP3    H148083   4.750   4.371   4.888 -0.5494  0.7692 -1.5728
 8864TIP3    H248084   4.649   4.475   4.932  0.5742  2.2981 -2.5303
 8865TIP3   OH248085   3.272   3.532  14.656 -0.0138  0.1785  0.0586
 8865TIP3    H148086   3.179   3.549  14.668 -0.2077  0.6427 -1.8250
 8865TIP3    H248087   3.282   3.439  14.673 -0.7670  0.1880  0.5783
 8866TIP3   OH248088   2.182   3.662  16.963  0.4312  0.2140  1.0516
 8866TIP3    H148089   2.103   3.614  16.940  0.2284  1.0929 -0.1656
 8866TIP3    H248090   2.252   3.598  16.956 -0.0458 -0.3384  1.2104
 8867TIP3   OH248091   2.909   0.876  13.426  0.2304  0.1871 -0.1815
 8867TIP3    H148092   2.851   0.817  13.474 -0.3984 -0.7525 -1.9834
 8867TIP3    H248093   2.952   0.820  13.361 -0.7945  1.7554 -2.3329
 8868TIP3   OH248094   5.364   1.712   5.629 -0.3772 -0.4207  0.3046
 8868TIP3    H148095   5.275   1.677   5.633  0.2780 -2.3245 -0.3566
 8868TIP3    H248096   5.418   1.635   5.608  1.5919  0.4227  1.9939
 8869TIP3   OH248097   0.407   0.232  16.514 -0.1239 -0.0747 -0.0990
 8869TIP3    H148098   0.315   0.217  16.537 -0.5438  1.4359 -0.7339
 8869TIP3    H248099   0.452   0.238  16.598 -0.3553 -2.0053  0.2277
 8870TIP3   OH248100   0.940   1.983  15.685 -0.6586 -0.8867  0.9320
 8870TIP3    H148101   0.932   1.980  15.780  0.8156  1.7870  1.2517
 8870TIP3    H248102   1.022   1.938  15.666  1.2110  1.9807  1.4895
 8871TIP3   OH248103   1.513   3.156   5.911  0.0512 -0.0721  0.2593
 8871TIP3    H148104   1.563   3.098   5.854  0.0304  1.8638 -1.8714
 8871TIP3    H248105   1.577   3.190   5.973  0.5977 -0.4370 -0.0944
 8872TIP3   OH248106   6.615   2.947  10.893  0.9795 -0.3173 -0.1332
 8872TIP3    H148107   6.608   2.856  10.866 -2.2906 -0.2431  0.0258
 8872TIP3    H248108   6.567   2.996  10.826  1.7111  1.1600  0.3701
 8873TIP3   OH248109   3.928   4.840  15.894 -0.8003 -0.5272  0.0165
 8873TIP3    H148110   3.999   4.858  15.956 -1.0624  0.5613  0.0252
 8873TIP3    H248111   3.863   4.791  15.945  0.0825 -1.8382 -0.0891
 8874TIP3   OH248112   5.735   4.005  15.796  0.3879 -0.2836  0.3659
 8874TIP3    H148113   5.736   4.101  15.794 -0.5664 -0.2752 -0.3150
 8874TIP3    H248114   5.758   3.983  15.886 -0.0659  0.6040  0.7092
 8875TIP3   OH248115   5.003   6.206   4.810  0.0601 -0.0658  0.3710
 8875TIP3    H148116   5.064   6.258   4.863  0.1228 -2.6108  3.0643
 8875TIP3    H248117   5.053   6.179   4.734  1.3375  0.3813  1.0190
 8876TIP3   OH248118   3.389   3.656   1.287  0.4353 -0.0419  0.6405
 8876TIP3    H148119   3.459   3.718   1.267 -1.6535  3.1157  2.2634
 8876TIP3    H248120   3.425   3.602   1.358  1.5271  0.8544  0.7973
 8877TIP3   OH248121   3.467   1.776  16.070  0.4136 -0.7636 -0.1544
 8877TIP3    H148122   3.488   1.863  16.106  0.9757 -1.5073  1.3730
 8877TIP3    H248123   3.371   1.771  16.073  0.3242  0.0503 -0.9254
 8878TIP3   OH248124   0.520   0.301   5.093  0.1363 -0.3062  0.2703
 8878TIP3    H148125   0.444   0.359   5.085  1.3523  1.1324 -2.6088
 8878TIP3    H248126   0.483   0.215   5.112 -2.1266  0.5201 -0.0522
 8879TIP3   OH248127   2.334   4.401   6.275  0.0101 -0.1346  0.0671
 8879TIP3    H148128   2.376   4.454   6.207 -1.2875 -1.9046 -2.2922
 8879TIP3    H248129   2.243   4.392   6.245 -0.9688 -0.0370  2.7192
 8880TIP3   OH248130   5.507   6.609  13.327  0.3618 -0.3056  0.1895
 8880TIP3    H148131   5.521   6.549  13.400  1.2871 -0.7598 -0.3499
 8880TIP3    H248132   5.513   6.696  13.366 -1.3755 -0.5255  1.0571
 8881TIP3   OH248133   3.553   5.984   2.003  0.1170 -0.2976 -0.2875
 8881TIP3    H148134   3.497   6.061   2.006 -0.2351 -0.4699 -1.6025
 8881TIP3    H248135   3.641   6.017   2.020 -0.2249  0.1649  0.5950
 8882TIP3   OH248136   1.357   0.333  14.364 -0.8252 -0.0455  0.2173
 8882TIP3    H148137   1.445   0.364  14.346 -1.1199 -1.1438 -4.3465
 8882TIP3    H248138   1.369   0.255  14.419  0.8302  0.8226  1.1654
 8883TIP3   OH248139   6.093   4.589  16.939 -0.4177  0.4293 -0.2450
 8883TIP3    H148140   6.121   4.641  17.014  1.1462  1.7352 -1.6600
 8883TIP3    H248141   6.021   4.638  16.900  0.7823  1.3862 -1.3348
 8884TIP3   OH248142   3.958   3.874   4.677  0.2658 -0.0583 -0.6375
 8884TIP3    H148143   3.885   3.813   4.666  0.1384  0.2055 -1.3510
 8884TIP3    H248144   4.034   3.826   4.644  0.2198  0.0547 -0.9116
 8885TIP3   OH248145   4.075   0.198   4.227 -1.0134 -0.7100 -0.2785
 8885TIP3    H148146   4.040   0.273   4.179  1.4795  1.3695  0.9329
 8885TIP3    H248147   4.133   0.155   4.164  0.2951  0.5252  0.0381
 8886TIP3   OH248148   0.874   4.506  12.708  0.0772 -0.7355 -0.1223
 8886TIP3    H148149   0.844   4.573  12.769 -1.1201  0.1521 -1.6156
 8886TIP3    H248150   0.920   4.554  12.639  0.2213 -1.5621 -0.6183
 8887TIP3   OH248151   2.348   1.270  12.753  0.6522 -0.5273  0.0836
 8887TIP3    H148152   2.318   1.265  12.843  1.0563 -0.7722  0.2063
 8887TIP3    H248153   2.284   1.220  12.703  0.8867 -1.1001  0.3516
 8888TIP3   OH248154   0.693   2.359   0.998  0.1686  0.3354 -0.0117
 8888TIP3    H148155   0.644   2.435   1.029 -2.0353 -0.7543 -0.6581
 8888TIP3    H248156   0.784   2.388   0.998 -0.4017  2.3405  1.5519
 8889TIP3   OH248157   6.364   2.934  15.067  0.2546  0.2687 -0.4356
 8889TIP3    H148158   6.332   3.014  15.025 -0.3842  1.2603  1.7892
 8889TIP3    H248159   6.385   2.960  15.157  0.5240 -1.9625  0.2224
 8890TIP3   OH248160   6.020   2.816   0.989 -0.5417  0.3194 -0.1147
 8890TIP3    H148161   6.028   2.896   0.937  1.0734  1.0812  1.1970
 8890TIP3    H248162   6.092   2.822   1.053 -1.8189 -1.0354  1.5385
 8891TIP3   OH248163   4.546   4.441   4.262 -0.1235 -0.0307 -0.1108
 8891TIP3    H148164   4.483   4.422   4.192  0.7867  0.1813 -1.0005
 8891TIP3    H248165   4.630   4.447   4.218  0.7594 -1.6725  1.2518
 8892TIP3   OH248166   3.640   2.036  16.578  0.2560 -0.4755 -0.5488
 8892TIP3    H148167   3.673   1.969  16.638 -0.6034  0.5784  1.1961
 8892TIP3    H248168   3.546   2.020  16.573 -0.2069  1.3626  1.0267
 8893TIP3   OH248169   6.716   0.636  13.479 -0.4285  0.0560 -0.2775
 8893TIP3    H148170   6.749   0.586  13.404 -2.0358  0.0909 -1.0607
 8893TIP3    H248171   6.793   0.655  13.532  0.8711  0.6672 -2.3044
 8894TIP3   OH248172   2.670   5.948  11.371 -0.6638  0.3875  0.1851
 8894TIP3    H148173   2.752   5.936  11.417 -0.9460 -3.5476 -0.0235
 8894TIP3    H248174   2.621   6.012  11.424  0.5960 -0.8740  3.0604
 8895TIP3   OH248175   3.172   2.322  13.467 -0.0232 -0.5396 -0.2938
 8895TIP3    H148176   3.174   2.304  13.561 -0.5895 -0.8585 -0.3376
 8895TIP3    H248177   3.257   2.361  13.449 -0.6383  1.3868  0.7028
 8896TIP3   OH248178   2.454   0.008   0.786 -0.2074 -0.6346 -0.1255
 8896TIP3    H148179   2.381   0.062   0.816 -1.6227 -0.8505 -2.8968
 8896TIP3    H248180   2.531   0.050   0.825 -1.6069  0.7314  1.3612
 8897TIP3   OH248181   5.065   4.906  13.880 -0.3284 -0.8166 -0.1967
 8897TIP3    H148182   5.033   4.817  13.891 -0.4071 -0.9137 -1.1609
 8897TIP3    H248183   5.008   4.960  13.936 -0.6570 -1.2849 -0.0802
 8898TIP3   OH248184   2.643   1.530  11.814 -0.0427 -1.2419 -0.0048
 8898TIP3    H148185   2.702   1.594  11.854 -1.7181 -1.2867  2.7862
 8898TIP3    H248186   2.634   1.558  11.723  2.5237 -0.0155  0.0311
 8899TIP3   OH248187   2.332   5.000  13.719 -0.2577 -0.2068  0.0414
 8899TIP3    H148188   2.371   4.922  13.680  0.9035 -0.3418  1.4251
 8899TIP3    H248189   2.399   5.068  13.711 -0.2997 -0.0262  1.0735
 8900TIP3   OH248190   6.008   0.087   6.640  0.1165  0.5488  0.1247
 8900TIP3    H148191   6.097   0.108   6.611 -0.5936  3.3151 -0.2663
 8900TIP3    H248192   5.969   0.042   6.565  1.3476 -1.4874  0.5955
 8901TIP3   OH248193   1.317   4.075   4.277 -0.3464  0.5383  0.0899
 8901TIP3    H148194   1.314   4.152   4.220  0.2610 -1.3019 -2.6664
 8901TIP3    H248195   1.270   4.008   4.228  2.4393 -1.9079  0.4795
 8902TIP3   OH248196   3.696   5.384  11.026  0.9262  0.4306 -0.3854
 8902TIP3    H148197   3.663   5.371  10.937  1.9626  0.1708 -0.7467
 8902TIP3    H248198   3.620   5.371  11.082  0.1201  1.1893 -1.2595
 8903TIP3   OH248199   0.456   5.775   4.721 -0.1207 -0.3684 -0.3769
 8903TIP3    H148200   0.377   5.791   4.772  0.1020  2.7032 -0.7823
 8903TIP3    H248201   0.517   5.735   4.783 -1.2946 -0.8278  0.5138
 8904TIP3   OH248202   1.296   5.945   2.442 -0.0089  0.0151 -0.0092
 8904TIP3    H148203   1.371   5.998   2.415  0.6241  0.2186  2.0489
 8904TIP3    H248204   1.220   6.002   2.429  0.6155  1.2869  1.6812
 8905TIP3   OH248205   6.769   5.406  17.184 -0.6471 -0.4143  0.1939
 8905TIP3    H148206   6.691   5.395  17.129 -2.0581 -0.0765  2.0513
 8905TIP3    H248207   6.754   5.348  17.259  0.4710  0.3251  1.0176
 8906TIP3   OH248208   1.426   0.464   1.570 -0.0241 -0.0234 -0.1554
 8906TIP3    H148209   1.389   0.457   1.659  0.3284 -0.1397 -0.0177
 8906TIP3    H248210   1.448   0.373   1.547  1.7862  0.2252  0.4512
 8907TIP3   OH248211   3.243   5.171  16.992 -0.2969  0.6470  0.2807
 8907TIP3    H148212   3.269   5.230  17.063  2.9215 -0.0194 -0.1730
 8907TIP3    H248213   3.302   5.194  16.920 -2.4238  0.2548 -1.6818
 8908TIP3   OH248214   5.760   1.206   2.555  0.1245 -0.0782 -0.0323
 8908TIP3    H148215   5.848   1.241   2.547 -0.3074  1.4221  1.2704
 8908TIP3    H248216   5.728   1.199   2.465  0.6590  1.8524 -0.4114
 8909TIP3   OH248217   6.466   4.871   3.525  0.2596 -0.0707  0.4292
 8909TIP3    H148218   6.511   4.797   3.483  1.5094  0.9827 -0.1460
 8909TIP3    H248219   6.440   4.837   3.611  1.3015 -1.0195  0.4016
 8910TIP3   OH248220   6.192   5.148   4.030  0.0056  0.2970 -0.3801
 8910TIP3    H148221   6.226   5.074   3.981 -1.3129  0.2469 -1.2693
 8910TIP3    H248222   6.153   5.109   4.109  1.8638  0.3532  0.6285
 8911TIP3   OH248223   1.344   2.795   0.443 -0.4174 -0.1628 -0.0044
 8911TIP3    H148224   1.356   2.781   0.537  1.6144  1.9282  0.1393
 8911TIP3    H248225   1.324   2.709   0.408  0.9093 -1.3973  2.0786
 8912TIP3   OH248226   5.987   5.999  16.783  0.3924  0.1877  0.2742
 8912TIP3    H148227   5.975   5.985  16.689 -2.2668 -1.3716  0.7553
 8912TIP3    H248228   5.971   6.093  16.795  1.0298  0.4598 -0.8411
 8913TIP3   OH248229   0.381   1.387  17.009  0.1082 -0.3688  0.6762
 8913TIP3    H148230   0.328   1.333  17.067  1.2565 -1.9462  0.3255
 8913TIP3    H248231   0.334   1.386  16.926 -1.5949  1.9828  1.5210
 8914TIP3   OH248232   3.551   5.490   5.914 -0.0355  0.6925 -0.6469
 8914TIP3    H148233   3.528   5.483   6.007 -0.7861  0.5477 -0.8407
 8914TIP3    H248234   3.578   5.401   5.890 -1.0275  0.4499 -0.8751
 8915TIP3   OH248235   0.780   2.284  11.441  0.1167  0.7831 -0.2061
 8915TIP3    H148236   0.813   2.224  11.374 -2.0109  1.1674 -1.6937
 8915TIP3    H248237   0.741   2.227  11.507  0.3172  0.4551 -0.3656
 8916TIP3   OH248238   6.391   3.778  16.907 -0.4817 -0.3521 -0.1727
 8916TIP3    H148239   6.458   3.727  16.861 -1.8764 -1.8083 -0.6629
 8916TIP3    H248240   6.325   3.797  16.841 -1.6709 -0.9460  0.7945
 8917TIP3   OH248241   6.794   5.159  14.591 -0.4139 -0.7785  0.3491
 8917TIP3    H148242   6.831   5.243  14.615 -1.5298 -0.9046  2.8260
 8917TIP3    H248243   6.859   5.095  14.621 -0.8076 -0.8620  1.0517
 8918TIP3   OH248244   1.976   5.652  10.985  0.0240  0.2708 -0.0380
 8918TIP3    H148245   2.025   5.687  10.911 -0.5537  0.7031 -0.2170
 8918TIP3    H248246   2.028   5.577  11.014  0.9391  0.8863 -0.0457
 8919TIP3   OH248247   0.873   0.756  17.039  0.4415 -0.3271  0.3306
 8919TIP3    H148248   0.803   0.785  17.098 -0.1134 -1.5538  0.2973
 8919TIP3    H248249   0.953   0.768  17.090  0.4873  2.8937 -0.2844
 8920TIP3   OH248250   1.007   4.804  12.961 -0.3654 -0.4789 -0.4900
 8920TIP3    H148251   1.072   4.772  13.023 -0.2228  0.8256  0.0502
 8920TIP3    H248252   1.053   4.870  12.909 -0.4382 -1.6308 -2.1113
 8921TIP3   OH248253   5.947   3.733   4.737  0.0492 -0.1347  0.0606
 8921TIP3    H148254   5.923   3.746   4.645 -0.3424 -0.3582  0.1311
 8921TIP3    H248255   6.021   3.672   4.734  1.1782  1.1908 -0.2081
 8922TIP3   OH248256   1.506   4.133  13.488 -0.1980 -0.1353 -0.1583
 8922TIP3    H148257   1.515   4.116  13.582  1.1512  1.6038  0.0907
 8922TIP3    H248258   1.528   4.050  13.447 -0.3907 -0.8122  1.0506
 8923TIP3   OH248259   0.568   4.553   3.969 -0.1920 -0.1256 -0.2865
 8923TIP3    H148260   0.525   4.579   4.050 -1.1972 -2.2024 -0.0929
 8923TIP3    H248261   0.507   4.491   3.928 -0.0099  1.3079 -2.9665
 8924TIP3   OH248262   1.165   2.193   1.751 -0.4786 -0.2946  0.0513
 8924TIP3    H148263   1.259   2.200   1.767 -0.3686 -2.4524  0.6935
 8924TIP3    H248264   1.125   2.240   1.825  0.0679  0.9699 -0.4333
 8925TIP3   OH248265   5.100   0.381  13.131  0.1182  0.1146  0.3670
 8925TIP3    H148266   5.096   0.380  13.227  3.5401  0.9574  0.6320
 8925TIP3    H248267   5.130   0.293  13.108  1.6436  0.6301  0.2991
 8926TIP3   OH248268   5.760   6.273   4.371 -0.4246 -0.4142 -0.3208
 8926TIP3    H148269   5.705   6.302   4.298  0.3977  1.0058 -0.4281
 8926TIP3    H248270   5.708   6.291   4.449 -0.5069 -0.0112 -0.4652
 8927TIP3   OH248271   4.409   0.467  15.620  0.8755 -0.3348  0.1297
 8927TIP3    H148272   4.375   0.485  15.707  0.1946  0.1081 -0.2148
 8927TIP3    H248273   4.439   0.553  15.588  1.3762 -0.5429  0.0346
 8928TIP3   OH248274   0.698   6.548  16.942  0.7674  0.1595 -1.0884
 8928TIP3    H148275   0.675   6.616  17.005  0.1706 -2.2864  1.5218
 8928TIP3    H248276   0.793   6.557  16.931  0.9444  0.4137  0.4699
 8929TIP3   OH248277   2.089   3.063  16.495 -0.4079 -0.4285  0.3881
 8929TIP3    H148278   2.050   2.976  16.487  0.4737 -0.6835 -1.4277
 8929TIP3    H248279   2.149   3.056  16.569  1.2595 -2.0084 -1.0524
 8930TIP3   OH248280   3.904   5.943   3.245  0.4396 -0.1080 -0.5241
 8930TIP3    H148281   3.828   5.885   3.258  0.2804  0.0440 -0.7539
 8930TIP3    H248282   3.937   5.959   3.333 -1.3942  1.9542 -0.1271
 8931TIP3   OH248283   1.515   0.851  12.353  0.4151  0.8654 -0.0579
 8931TIP3    H148284   1.574   0.820  12.422  1.6698  0.7580 -1.1309
 8931TIP3    H248285   1.444   0.895  12.400  1.1234  0.6171  1.2987
 8932TIP3   OH248286   5.056   2.758   1.799  0.7464 -0.5586  0.2175
 8932TIP3    H148287   5.026   2.832   1.852 -0.6591  0.2745 -1.5992
 8932TIP3    H248288   5.144   2.782   1.771  0.4964  0.2154  0.0673
 8933TIP3   OH248289   5.858   2.492  15.848  0.6210 -0.1249 -0.0984
 8933TIP3    H148290   5.887   2.432  15.917 -0.2425 -0.6466 -0.1716
 8933TIP3    H248291   5.939   2.523  15.808  1.1619  0.5699  1.4536
 8934TIP3   OH248292   2.619   0.307   3.221  0.4031 -0.2917 -0.5805
 8934TIP3    H148293   2.703   0.333   3.184  0.8834  1.3266  1.4558
 8934TIP3    H248294   2.621   0.340   3.311 -2.2315 -0.5739 -0.3318
 8935TIP3   OH248295   2.623   4.754   5.156 -0.3130  0.2529  0.6285
 8935TIP3    H148296   2.650   4.664   5.175  1.6435  0.2807 -1.5217
 8935TIP3    H248297   2.651   4.804   5.232  0.8882 -0.5975  0.7796
 8936TIP3   OH248298   6.083   6.578  11.504 -0.3483  0.0194 -0.6743
 8936TIP3    H148299   6.013   6.512  11.500 -0.3544 -0.2527  1.9986
 8936TIP3    H248300   6.149   6.539  11.561 -0.2157  2.1604  0.7640
 8937TIP3   OH248301   1.177   6.661   6.223  0.0753  0.4094 -0.4446
 8937TIP3    H148302   1.103   6.601   6.215  0.0473  0.3783  0.0148
 8937TIP3    H248303   1.253   6.603   6.233  0.1119  0.4443 -0.5239
 8938TIP3   OH248304   6.729   2.825  15.422  0.2476 -0.1612 -0.0259
 8938TIP3    H148305   6.687   2.769  15.357 -0.2485 -1.0254  1.0101
 8938TIP3    H248306   6.661   2.842  15.487  0.9035  0.1802  0.5898
 8939TIP3   OH248307   1.216   3.295  14.604  0.5681  0.2946  0.1273
 8939TIP3    H148308   1.149   3.352  14.566  1.1572  1.1430  0.3158
 8939TIP3    H248309   1.264   3.353  14.665  2.0902 -0.0296 -0.7203
 8940TIP3   OH248310   0.351   2.554   6.208  0.6235  0.6991 -1.0551
 8940TIP3    H148311   0.347   2.473   6.259 -1.1768  0.1773 -1.9407
 8940TIP3    H248312   0.444   2.576   6.206  0.9253 -0.1342  1.0485
 8941TIP3   OH248313   5.890   1.015   1.106  0.5192  0.2043 -0.0089
 8941TIP3    H148314   5.921   1.095   1.149 -0.4314  0.6859 -0.1945
 8941TIP3    H248315   5.966   0.982   1.059  0.8807  1.1211 -0.0962
 8942TIP3   OH248316   1.939   6.381   3.196 -0.1232 -0.1853 -0.1362
 8942TIP3    H148317   1.885   6.326   3.252 -0.0422  1.5441  1.7751
 8942TIP3    H248318   1.880   6.410   3.127 -1.1078  0.0117  0.7499
 8943TIP3   OH248319   5.234   5.453  13.981 -0.0376  0.4274  0.0087
 8943TIP3    H148320   5.328   5.472  13.988  0.1292 -0.7237  1.3432
 8943TIP3    H248321   5.191   5.520  14.033  0.2337 -0.3186  1.2315
 8944TIP3   OH248322   6.534   6.034  16.329 -0.9720  0.5291 -0.4562
 8944TIP3    H148323   6.552   5.942  16.345  2.0325  1.0659  0.0297
 8944TIP3    H248324   6.512   6.069  16.415  1.7453  0.8786  0.2083
 8945TIP3   OH248325   6.589   2.722  12.582 -0.2799  0.1844  0.3153
 8945TIP3    H148326   6.660   2.680  12.533 -2.4065 -3.1912 -0.2286
 8945TIP3    H248327   6.569   2.801  12.532  0.2447 -1.0602 -2.0096
 8946TIP3   OH248328   0.962   3.420  16.706  0.0248 -0.2027 -0.0581
 8946TIP3    H148329   1.020   3.368  16.762  1.2856  0.2792 -0.8799
 8946TIP3    H248330   0.911   3.473  16.768  1.2971  0.2212  0.6737
 8947TIP3   OH248331   2.345   0.571  11.526 -0.3341 -0.6631  0.3047
 8947TIP3    H148332   2.354   0.502  11.593 -0.8155 -0.1834  0.8735
 8947TIP3    H248333   2.263   0.552  11.482 -1.4849  0.6510  1.7837
 8948TIP3   OH248334   6.477   4.968  13.304  0.2916 -0.2925 -0.0829
 8948TIP3    H148335   6.442   4.927  13.226  0.2404 -2.8796  1.2019
 8948TIP3    H248336   6.564   4.999  13.279  0.1114 -0.7036 -1.2510
 8949TIP3   OH248337   2.092   2.324  12.701 -0.1582  0.4751 -0.1962
 8949TIP3    H148338   2.128   2.412  12.717  0.5677 -0.0366  1.0927
 8949TIP3    H248339   2.169   2.267  12.699 -0.5435 -0.0530 -1.8801
 8950TIP3   OH248340   6.316   1.579   2.145  0.0618 -0.7005 -0.5432
 8950TIP3    H148341   6.292   1.497   2.186 -1.0458  0.6833  1.7501
 8950TIP3    H248342   6.243   1.638   2.164  0.5306  0.6920 -2.6499
 8951TIP3   OH248343   5.083   6.090  16.969 -0.2958 -0.0328  0.2215
 8951TIP3    H148344   5.028   6.167  16.983 -0.8949 -0.2109 -0.9501
 8951TIP3    H248345   5.036   6.018  17.013  0.4137  0.3065  1.5668
 8952TIP3   OH248346   5.248   4.046   2.587  0.2623 -0.2949 -0.1885
 8952TIP3    H148347   5.239   4.087   2.501  1.5203  2.5479  0.9204
 8952TIP3    H248348   5.176   3.982   2.591 -0.5694  0.3623 -2.8400
 8953TIP3   OH248349   4.209   4.845  10.925  0.4767 -0.3682 -0.3425
 8953TIP3    H148350   4.252   4.831  11.009 -1.5512  1.8343  1.1972
 8953TIP3    H248351   4.272   4.897  10.875  0.6334  0.7557  0.9504
 8954TIP3   OH248352   3.897   3.643  15.073  0.1392  0.1958  0.3703
 8954TIP3    H148353   3.839   3.673  15.143 -1.2498 -0.9203 -0.2580
 8954TIP3    H248354   3.946   3.571  15.112  1.0946  1.0820  0.8735
 8955TIP3   OH248355   1.844   5.841   3.036 -0.7551 -0.5320  0.7403
 8955TIP3    H148356   1.766   5.794   3.009 -0.4373 -0.5858 -0.1356
 8955TIP3    H248357   1.820   5.933   3.030  0.2147 -0.3349 -3.0343
 8956TIP3   OH248358   4.491   6.016   3.495  0.5084  0.0170 -0.5163
 8956TIP3    H148359   4.431   6.090   3.489  1.2549  0.7268  0.4352
 8956TIP3    H248360   4.578   6.055   3.484  0.8931 -0.7654 -0.3041
 8957TIP3   OH248361   5.258   4.484   3.145  0.0408 -0.9179 -0.1739
 8957TIP3    H148362   5.178   4.487   3.093 -0.0643 -2.2686 -0.1421
 8957TIP3    H248363   5.242   4.543   3.218 -0.8504 -1.0197 -0.2762
 8958TIP3   OH248364   5.082   1.108  16.153 -0.7236  0.0103  0.2106
 8958TIP3    H148365   5.013   1.134  16.214 -1.0356  1.3130 -0.6580
 8958TIP3    H248366   5.162   1.108  16.206 -0.9983  1.0735  0.6458
 8959TIP3   OH248367   0.432   3.180  14.536 -0.7709 -0.1162 -0.4829
 8959TIP3    H148368   0.459   3.110  14.595  0.5804  1.0525  0.3667
 8959TIP3    H248369   0.503   3.185  14.471  0.0261  1.4846  0.4284
 8960TIP3   OH248370   4.944   2.118  12.021  0.1610  0.0828  0.2912
 8960TIP3    H148371   5.015   2.182  12.020  0.4227 -0.2000 -0.0399
 8960TIP3    H248372   4.940   2.088  12.112  0.3960  0.1815  0.3364
 8961TIP3   OH248373   4.281   3.560   3.435 -0.1112 -0.3070  0.1291
 8961TIP3    H148374   4.299   3.498   3.505  0.1096 -0.9424 -0.4823
 8961TIP3    H248375   4.193   3.539   3.406 -1.1121  1.4377  1.7110
 8962TIP3   OH248376   4.904   3.977   1.142 -0.5144  0.5633  0.0485
 8962TIP3    H148377   4.996   4.002   1.144 -0.6225  1.0614 -0.6996
 8962TIP3    H248378   4.902   3.898   1.088 -0.7782  1.8152 -1.8626
 8963TIP3   OH248379   2.461   4.835   1.695 -0.6908  0.6929 -1.2276
 8963TIP3    H148380   2.418   4.911   1.656  0.3877  0.4691 -2.9355
 8963TIP3    H248381   2.461   4.769   1.626 -3.5220 -1.7361  0.8609
 8964TIP3   OH248382   6.199   0.634   0.042  0.2267 -0.4512 -0.4076
 8964TIP3    H148383   6.289   0.600   0.047  0.7010  0.8266  0.2987
 8964TIP3    H248384   6.173   0.645   0.134  0.7883  2.7325 -0.5225
 8965TIP3   OH248385   4.121   4.641   1.804 -0.6000  0.3200 -0.2600
 8965TIP3    H148386   4.039   4.614   1.845  0.2537 -1.7264  0.1763
 8965TIP3    H248387   4.107   4.734   1.783 -2.6017  0.3151  0.7995
 8966TIP3   OH248388   1.555   0.697  11.204 -0.1375  0.0563 -0.2125
 8966TIP3    H148389   1.514   0.611  11.193  1.4069 -0.7297 -0.1460
 8966TIP3    H248390   1.567   0.706  11.298 -0.1637  0.2839 -0.2299
 8967TIP3   OH248391   4.143   4.767   2.347  0.4941  0.2537 -0.4598
 8967TIP3    H148392   4.124   4.701   2.413  2.7364 -1.1059 -1.0748
 8967TIP3    H248393   4.117   4.726   2.264  0.7162  0.6304 -0.7193
 8968TIP3   OH248394   6.610   1.159   0.069  0.1104 -0.3517 -0.1044
 8968TIP3    H148395   6.640   1.139   0.158 -0.8766 -0.0146  0.3165
 8968TIP3    H248396   6.522   1.123   0.064 -0.0507  0.1074 -0.7692
 8969TIP3   OH248397   0.264   5.602   1.716 -0.1141  0.6812 -0.4959
 8969TIP3    H148398   0.289   5.509   1.712 -1.1259  0.3636  0.0439
 8969TIP3    H248399   0.169   5.600   1.726 -0.0580  1.7599  0.4571
 8970TIP3   OH248400   5.585   1.156  15.213 -0.1357  0.3487  0.5242
 8970TIP3    H148401   5.671   1.188  15.240  0.6496 -2.0293  1.0383
 8970TIP3    H248402   5.528   1.233  15.219  1.4036  1.4321  2.6092
 8971TIP3   OH248403   6.715   3.847  15.270  0.2491  0.4804 -0.2557
 8971TIP3    H148404   6.803   3.818  15.294 -0.4070 -1.0595  0.3890
 8971TIP3    H248405   6.693   3.914  15.335  1.0527  1.1336 -0.6326
 8972TIP3   OH248406   1.355   2.721   2.275  0.3029 -0.4499  0.4315
 8972TIP3    H148407   1.384   2.667   2.348 -0.4972  0.2349  1.2882
 8972TIP3    H248408   1.260   2.708   2.271  0.0656  0.9868  0.7679
 8973TIP3   OH248409   0.653   5.368  16.063 -0.7438  0.3780 -0.0061
 8973TIP3    H148410   0.714   5.359  15.990 -0.6655  0.0342  0.1042
 8973TIP3    H248411   0.590   5.297  16.051  0.1171 -0.6078  1.0927
 8974TIP3   OH248412   2.699   2.933  11.286  0.0789  0.1138  0.0508
 8974TIP3    H148413   2.724   2.848  11.321  1.3442  1.2984  2.2375
 8974TIP3    H248414   2.676   2.916  11.194 -0.9752 -2.7476  0.7625
 8975TIP3   OH248415   6.139   6.068  14.762 -0.5781 -0.0653  0.2770
 8975TIP3    H148416   6.062   6.110  14.725 -0.9698 -1.7133 -0.8540
 8975TIP3    H248417   6.210   6.090  14.701 -0.5493 -0.0853  0.3032
 8976TIP3   OH248418   3.393   5.353   2.019  0.6180 -0.2341  0.4840
 8976TIP3    H148419   3.343   5.427   2.055 -0.8658 -0.5143 -0.8810
 8976TIP3    H248420   3.425   5.385   1.935 -0.2141 -1.1828 -0.2168
 8977TIP3   OH248421   6.215   6.182   3.419 -0.3423  0.0110  0.0254
 8977TIP3    H148422   6.233   6.193   3.325 -1.2025  0.5934 -0.0855
 8977TIP3    H248423   6.259   6.100   3.442  2.6317  1.4823 -0.1106
 8978TIP3   OH248424   2.173   3.049   6.404 -0.5236  0.4839  0.4509
 8978TIP3    H148425   2.083   3.080   6.407 -1.3332 -1.7376  1.1537
 8978TIP3    H248426   2.170   2.961   6.441  2.1321  0.7329  1.5340
 8979TIP3   OH248427   3.511   2.499   0.201 -0.2395 -0.2160 -0.1160
 8979TIP3    H148428   3.455   2.521   0.127  0.7548  0.7286 -0.6178
 8979TIP3    H248429   3.450   2.482   0.273 -1.2588 -2.0260 -1.3248
 8980TIP3   OH248430   4.575   1.822  12.454  0.2299  0.0130  0.1460
 8980TIP3    H148431   4.492   1.774  12.457  1.1304 -1.5967  0.3066
 8980TIP3    H248432   4.550   1.914  12.469 -1.3735 -0.6111  1.6767
 8981TIP3   OH248433   5.822   4.409   5.545 -0.6565  0.3372  0.2081
 8981TIP3    H148434   5.886   4.452   5.488 -2.0360  0.8482 -0.9893
 8981TIP3    H248435   5.746   4.394   5.490 -0.9001 -2.0618  1.0836
 8982TIP3   OH248436   4.601   5.446  15.566  0.0233  0.0522 -0.2309
 8982TIP3    H148437   4.696   5.446  15.562  0.1410 -1.6076  1.2461
 8982TIP3    H248438   4.575   5.534  15.539  1.8581  0.0446 -2.2308
 8983TIP3   OH248439   5.432   1.517   2.357  0.0721  0.0574 -0.0993
 8983TIP3    H148440   5.427   1.445   2.420 -2.2540  1.1000  1.0580
 8983TIP3    H248441   5.341   1.533   2.331  0.4893  2.4743 -0.3721
 8984TIP3   OH248442   0.280   4.949  16.157 -0.0739  0.0710  0.0101
 8984TIP3    H148443   0.192   4.915  16.140 -0.2607 -0.5302  2.0077
 8984TIP3    H248444   0.309   4.905  16.237  1.3796  1.5001  0.3314
 8985TIP3   OH248445   4.137   1.987  14.747  0.0088  0.2698 -0.4562
 8985TIP3    H148446   4.154   2.046  14.820 -0.0583  1.6232 -1.4893
 8985TIP3    H248447   4.078   2.036  14.690  0.6286 -0.4402 -1.7567
 8986TIP3   OH248448   5.295   2.069   0.441  0.1840 -1.2424  0.0388
 8986TIP3    H148449   5.336   2.023   0.515  0.2712 -1.8519 -0.3844
 8986TIP3    H248450   5.245   2.001   0.396 -2.6493 -0.2400  1.4474
 8987TIP3   OH248451   6.463   4.302   3.352  0.2811 -0.0316 -0.4326
 8987TIP3    H148452   6.517   4.324   3.275  1.2027 -3.7154 -1.0235
 8987TIP3    H248453   6.522   4.254   3.410 -0.2878  2.9222  2.9617
 8988TIP3   OH248454   5.104   5.383   1.882 -0.0296 -0.1264 -0.2915
 8988TIP3    H148455   5.059   5.332   1.815 -1.9508 -0.3732  1.1205
 8988TIP3    H248456   5.066   5.470   1.875  1.3673  0.4671 -0.9462
 8989TIP3   OH248457   3.055   2.954  16.305 -0.1610 -0.1444  0.4787
 8989TIP3    H148458   3.140   2.915  16.285 -0.4649  0.4910 -2.4850
 8989TIP3    H248459   3.070   3.049  16.296 -1.1138 -0.0162  0.1633
 8990TIP3   OH248460   3.589   5.195  15.561 -0.1044  0.1693 -0.2363
 8990TIP3    H148461   3.663   5.155  15.515 -0.3130 -1.0059  0.4112
 8990TIP3    H248462   3.564   5.269  15.506  2.5400  1.5932  0.2656
 8991TIP3   OH248463   4.928   6.110   2.095  0.1172 -0.4698 -0.1560
 8991TIP3    H148464   4.929   6.206   2.089 -3.2852 -0.2821  0.4649
 8991TIP3    H248465   4.934   6.081   2.004  0.2935  0.3563 -0.4215
 8992TIP3   OH248466   1.454   6.370   5.149  0.0742  0.5209  0.2688
 8992TIP3    H148467   1.373   6.388   5.197 -0.1767  0.9830 -0.3142
 8992TIP3    H248468   1.433   6.392   5.058  0.7479  0.3078  0.0581
 8993TIP3   OH248469   4.097   0.007  17.097 -0.5558 -0.3026  0.8808
 8993TIP3    H148470   4.024  -0.054  17.110 -0.5475 -0.4250  0.3456
 8993TIP3    H248471   4.070   0.062  17.025  0.1183 -0.7134  0.2986
 8994TIP3   OH248472   0.947   2.691  13.120 -0.3415  0.1097  0.5841
 8994TIP3    H148473   1.022   2.633  13.107 -1.7018 -1.6419  0.1664
 8994TIP3    H248474   0.908   2.699  13.033  0.7357  3.0856  0.2787
 8995TIP3   OH248475   6.099   4.299   3.695 -0.0167  0.1532  0.2965
 8995TIP3    H148476   6.158   4.362   3.653 -2.1395  3.0944  1.4275
 8995TIP3    H248477   6.144   4.274   3.775  0.8344  0.2398 -0.1388
 8996TIP3   OH248478   2.031   2.729   0.760  0.3968  0.3536  0.4824
 8996TIP3    H148479   2.085   2.729   0.681 -1.8504  2.0500 -1.2066
 8996TIP3    H248480   2.038   2.818   0.794 -0.4751  0.3007  0.8379
 8997TIP3   OH248481   6.362   5.547   1.579  0.2689  0.1034  0.2305
 8997TIP3    H148482   6.371   5.502   1.495  0.2625  0.2896  0.1296
 8997TIP3    H248483   6.333   5.635   1.556  0.3062  0.1670  0.4260
 8998TIP3   OH248484   1.420   2.098   4.069  0.5682 -0.0676 -0.1640
 8998TIP3    H148485   1.487   2.055   4.122 -0.3013 -1.2599  0.0070
 8998TIP3    H248486   1.469   2.155   4.010  1.7120 -0.7421  0.1019
 8999TIP3   OH248487   3.971   1.680  11.058 -0.1742  0.0213  0.3700
 8999TIP3    H148488   3.903   1.620  11.028  0.2472 -0.6066  0.6398
 8999TIP3    H248489   4.049   1.625  11.066  0.2871  0.6699  0.3503
 9000TIP3   OH248490   4.479   1.392   0.462 -0.4356  0.2950 -0.2023
 9000TIP3    H148491   4.513   1.482   0.461  0.4690 -0.0203  0.7912
 9000TIP3    H248492   4.456   1.376   0.553 -0.2796 -0.5895 -0.3108
 9001TIP3   OH248493   3.360   1.040  16.949  0.0936  0.4237 -0.1651
 9001TIP3    H148494   3.418   0.973  16.986  2.7262  2.9823  0.6549
 9001TIP3    H248495   3.396   1.057  16.862 -0.2438  1.1064 -0.1746
 9002TIP3   OH248496   1.968   2.288   0.142  0.0238 -0.4811 -0.3056
 9002TIP3    H148497   2.032   2.229   0.180 -0.2458  0.0094  0.9657
 9002TIP3    H248498   2.018   2.344   0.083  1.0154  0.6684  1.5405
 9003TIP3   OH248499   1.026   6.499   5.420 -0.1006  0.3274  0.2726
 9003TIP3    H148500   1.121   6.501   5.410 -0.2403 -0.0227 -1.4067
 9003TIP3    H248501   1.002   6.408   5.406 -0.6016  0.1507  2.0067
 9004TIP3   OH248502   5.719   1.279   6.356  0.5199  0.6924 -0.2835
 9004TIP3    H148503   5.663   1.213   6.397  0.9556  0.8089  0.5267
 9004TIP3    H248504   5.690   1.362   6.392 -0.5455  1.0633 -1.8919
 9005TIP3   OH248505   1.106   5.593  16.472 -0.6363 -0.1802 -0.3626
 9005TIP3    H148506   1.116   5.515  16.526 -1.4683  0.8037  1.2647
 9005TIP3    H248507   1.195   5.613  16.443  0.1686  0.3249  2.2025
 9006TIP3   OH248508   3.179   4.501   5.345  0.2586  0.4355 -0.3829
 9006TIP3    H148509   3.237   4.427   5.362 -1.2808 -1.2525 -2.0123
 9006TIP3    H248510   3.181   4.553   5.426  0.9839 -1.6612  1.0122
 9007TIP3   OH248511   6.226   2.848  12.252  0.5365  0.1615  0.0249
 9007TIP3    H148512   6.213   2.879  12.341  0.6601  1.0390 -0.2433
 9007TIP3    H248513   6.142   2.864  12.208  0.1138 -1.3125  0.2646
 9008TIP3   OH248514   4.793   4.320   5.203 -0.8564  0.0145 -0.5473
 9008TIP3    H148515   4.881   4.287   5.218 -1.5612 -1.3182  1.0104
 9008TIP3    H248516   4.790   4.341   5.110  1.1455  0.2556 -0.5887
 9009TIP3   OH248517   5.957   2.346   5.962 -0.0178 -0.0287 -0.2780
 9009TIP3    H148518   5.960   2.380   6.052  1.0248 -0.2165 -0.2287
 9009TIP3    H248519   5.864   2.340   5.942 -0.2870 -0.4583  0.9760
 9010TIP3   OH248520   2.484   6.028  15.520 -0.1860  0.2684 -0.1371
 9010TIP3    H148521   2.436   5.972  15.459  0.0421  1.2645 -1.2716
 9010TIP3    H248522   2.517   5.968  15.587 -0.7287 -0.8119 -0.8069
 9011TIP3   OH248523   3.236   6.486   1.727  0.8247 -0.0806 -0.0956
 9011TIP3    H148524   3.159   6.436   1.753  0.8639 -1.1299 -1.8292
 9011TIP3    H248525   3.292   6.487   1.805 -0.4369 -0.2722  0.8362
 9012TIP3   OH248526   5.973   6.068   3.815 -0.2322  0.4573  0.5231
 9012TIP3    H148527   5.897   6.126   3.823 -0.0388  1.0350 -1.2932
 9012TIP3    H248528   5.943   5.997   3.758  0.4117  0.4032  0.2441
 9013TIP3   OH248529   0.734   6.673   1.838 -0.5249 -0.5485  0.0845
 9013TIP3    H148530   0.661   6.665   1.776 -0.3417 -1.7785  0.0115
 9013TIP3    H248531   0.692   6.665   1.924 -0.6076 -0.1459  0.0859
 9014TIP3   OH248532   1.812   5.202   4.431  0.1928 -0.8159  0.0583
 9014TIP3    H148533   1.809   5.194   4.335 -0.5649  0.7830 -0.0824
 9014TIP3    H248534   1.901   5.175   4.454  0.6483 -0.4503 -1.1946
 9015TIP3   OH248535   4.998   2.395   0.579  0.6616 -0.0420 -0.0259
 9015TIP3    H148536   4.998   2.307   0.617  0.4774  0.2971  0.7801
 9015TIP3    H248537   5.003   2.454   0.655  1.0097  0.6368 -0.5691
 9016TIP3   OH248538   2.297   0.635   3.534 -0.7064  0.8954  0.2497
 9016TIP3    H148539   2.298   0.600   3.623 -0.1416 -0.2583 -0.2015
 9016TIP3    H248540   2.229   0.585   3.489  0.5835 -0.1476 -0.5907
 9017TIP3   OH248541   0.689   0.096   1.652 -0.3146  0.3119  0.3280
 9017TIP3    H148542   0.604   0.140   1.656  0.1936  1.3023  0.5144
 9017TIP3    H248543   0.686   0.032   1.723 -0.7625  0.5891  0.5651
 9018TIP3   OH248544   6.072   5.416  12.666  0.4937  0.9759 -0.2883
 9018TIP3    H148545   6.148   5.358  12.655 -0.1912  0.3386 -2.1684
 9018TIP3    H248546   6.083   5.455  12.753  1.7505 -0.8545  0.4286
 9019TIP3   OH248547   6.567   5.860   4.178 -1.1358 -0.3657 -0.1073
 9019TIP3    H148548   6.536   5.941   4.138  0.0654  0.3348  0.3610
 9019TIP3    H248549   6.644   5.835   4.126 -0.7775 -0.5508  0.5061
 9020TIP3   OH248550   2.948   5.688   1.986 -0.5588 -0.1111 -0.1876
 9020TIP3    H148551   3.005   5.612   1.995  0.5076  0.5213 -1.2314
 9020TIP3    H248552   2.888   5.682   2.060  0.5570 -1.0626  0.6912
 9021TIP3   OH248553   4.532   6.665   3.971 -0.3089  0.3486 -0.8438
 9021TIP3    H148554   4.606   6.643   3.914 -0.1913  0.8297 -0.8836
 9021TIP3    H248555   4.550   6.755   4.000  0.7129 -0.5643  1.6358
 9022TIP3   OH248556   2.843   6.273  11.643  0.3114 -0.0281 -0.5675
 9022TIP3    H148557   2.885   6.352  11.677  0.9665  0.8655 -3.2154
 9022TIP3    H248558   2.916   6.222  11.606 -0.4425 -0.3719 -1.6226
 9023TIP3   OH248559   2.063   5.030  16.659 -0.4110 -0.6933 -0.0041
 9023TIP3    H148560   2.117   5.109  16.651  0.5729 -1.3504 -0.0201
 9023TIP3    H248561   1.973   5.062  16.656 -0.0260  0.4437  0.1604
 9024TIP3   OH248562   5.980   0.027   0.463 -0.1803 -0.0240 -0.1946
 9024TIP3    H148563   5.993  -0.013   0.550  0.6070  0.4850 -0.0658
 9024TIP3    H248564   5.966   0.120   0.481  0.2532  0.1299 -0.6232
 9025TIP3   OH248565   3.838   0.410   5.169 -0.3644 -0.2827 -0.0850
 9025TIP3    H148566   3.901   0.358   5.218  1.4235  1.2948 -0.5521
 9025TIP3    H248567   3.757   0.360   5.171  0.7725 -2.1702  0.9796
 9026TIP3   OH248568   2.206   0.280   0.553  0.6479  0.1753 -0.3774
 9026TIP3    H148569   2.233   0.339   0.623 -2.3081  1.0904  0.1496
 9026TIP3    H248570   2.159   0.210   0.599 -0.2934  0.1611 -1.3203
 9027TIP3   OH248571   1.959   6.813  16.681  0.0813  0.2069 -0.5848
 9027TIP3    H148572   2.035   6.851  16.636  0.1946  1.2568  0.4409
 9027TIP3    H248573   1.949   6.726  16.642  2.4876 -0.4086  0.0099
 9028TIP3   OH248574   4.580   4.738  10.760 -0.1960 -0.0631 -0.0025
 9028TIP3    H148575   4.556   4.796  10.687 -0.0241 -2.0321 -1.7091
 9028TIP3    H248576   4.498   4.729  10.810 -0.5479  0.6081 -0.4282
 9029TIP3   OH248577   2.154   5.734  10.787  0.2252  0.3498 -0.1785
 9029TIP3    H148578   2.164   5.772  10.699  2.2216  0.4876  0.0530
 9029TIP3    H248579   2.200   5.795  10.844  2.8571 -1.8780  0.3225
 9030TIP3   OH248580   4.938   0.830   5.818  0.3362  0.1305  0.3394
 9030TIP3    H148581   4.889   0.899   5.773 -0.4649  0.8843  2.2218
 9030TIP3    H248582   5.015   0.874   5.853  0.5980 -0.2790  0.2874
 9031TIP3   OH248583   5.894   5.165   5.682 -0.4446 -0.4104  0.6035
 9031TIP3    H148584   5.808   5.125   5.673 -1.1736  0.6431  2.3094
 9031TIP3    H248585   5.904   5.178   5.776  0.4005  1.9716  0.2467
 9032TIP3   OH248586   2.473   2.956  16.284  0.4761  0.0910 -0.3409
 9032TIP3    H148587   2.555   2.921  16.249  0.5301  0.1911 -0.3171
 9032TIP3    H248588   2.499   3.037  16.328  0.1640  0.8376 -1.5033
 9033TIP3   OH248589   3.109   1.945   0.905 -0.1330  0.0108 -0.0287
 9033TIP3    H148590   3.064   1.959   0.989 -2.9323  0.2268 -1.4400
 9033TIP3    H248591   3.155   2.028   0.889  0.0717  0.1270  1.0717
 9034TIP3   OH248592   5.843   3.402  11.847  0.0151 -0.7282  0.0861
 9034TIP3    H148593   5.754   3.435  11.837 -0.0921 -0.7813  0.8107
 9034TIP3    H248594   5.898   3.480  11.846 -0.1606 -0.5843  0.9418
 9035TIP3   OH248595   5.139   3.843  14.847  0.3351 -0.1766  0.0204
 9035TIP3    H148596   5.164   3.815  14.758 -2.1028 -1.7114 -0.2938
 9035TIP3    H248597   5.141   3.763  14.898  0.0377  0.3800  0.9205
 9036TIP3   OH248598   3.951   3.268   4.664 -0.2408  0.0762 -0.0457
 9036TIP3    H148599   3.949   3.272   4.760 -0.5044  0.6961 -0.0751
 9036TIP3    H248600   3.969   3.358   4.637 -0.9639  0.0541 -0.6002
 9037TIP3   OH248601   3.853   0.909  11.887 -0.4733  0.1203  0.9633
 9037TIP3    H148602   3.788   0.881  11.823 -0.6148  0.1350  1.0980
 9037TIP3    H248603   3.855   1.004  11.880  1.2048  0.0151 -0.6602
 9038TIP3   OH248604   2.229   4.453   2.050  0.2450  0.0476 -0.3839
 9038TIP3    H148605   2.275   4.491   2.124 -0.3522  1.7628 -0.8577
 9038TIP3    H248606   2.258   4.503   1.974 -1.7257  0.6560 -0.8055
 9039TIP3   OH248607   0.721   5.085  10.729  0.3762 -0.1197 -0.3225
 9039TIP3    H148608   0.732   5.180  10.735 -3.0451  0.3385  0.5744
 9039TIP3    H248609   0.781   5.059  10.659  3.1681  2.2682  0.9555
 9040TIP3   OH248610   3.841   6.061  12.794 -0.5272  0.1109  0.8834
 9040TIP3    H148611   3.937   6.058  12.788 -0.6344 -2.1127 -1.7592
 9040TIP3    H248612   3.816   6.136  12.740 -0.3057  0.5861  1.4305
 9041TIP3   OH248613   3.865   5.505  11.289  0.6007  0.2207  0.0343
 9041TIP3    H148614   3.785   5.479  11.335 -1.0349  1.9692 -1.6860
 9041TIP3    H248615   3.908   5.566  11.349  1.3031 -1.5263  1.4294
 9042TIP3   OH248616   0.216   1.488  12.092 -0.1286 -0.3358  0.3323
 9042TIP3    H148617   0.188   1.565  12.141 -0.5077 -1.0342  1.2342
 9042TIP3    H248618   0.239   1.522  12.005  1.1571  1.0251  1.1527
 9043TIP3   OH248619   2.676   6.544  12.169 -0.2710  0.0061  0.2007
 9043TIP3    H148620   2.752   6.490  12.194 -0.3361 -0.5050 -0.6727
 9043TIP3    H248621   2.613   6.481  12.135 -2.0101  0.1265  2.9251
 9044TIP3   OH248622   6.652   5.852  15.856 -0.1994  0.6270  0.4740
 9044TIP3    H148623   6.643   5.777  15.798  0.4365 -0.1829  1.3980
 9044TIP3    H248624   6.588   5.837  15.926 -0.6668  1.3834  0.2265
 9045TIP3   OH248625   3.857   3.549  15.847  0.1886  0.1901  0.5906
 9045TIP3    H148626   3.880   3.504  15.928  1.1531 -1.9087 -0.7819
 9045TIP3    H248627   3.875   3.642  15.865 -0.3248 -0.1036  2.9734
 9046TIP3   OH248628   6.096   0.108  13.187  0.3302 -0.0258 -0.0172
 9046TIP3    H148629   6.057   0.178  13.134 -3.3830 -2.1058 -0.4219
 9046TIP3    H248630   6.059   0.121  13.274  1.3505 -0.2322  0.4526
 9047TIP3   OH248631   0.455   0.075  15.871  0.5528  0.0811 -0.9685
 9047TIP3    H148632   0.377   0.125  15.897 -0.4561 -1.0888 -1.6254
 9047TIP3    H248633   0.488   0.122  15.794  1.5708  1.5902  0.3186
 9048TIP3   OH248634   1.740   5.154  11.708 -0.7892 -0.0750  0.6096
 9048TIP3    H148635   1.739   5.084  11.773  0.3434 -0.9305 -0.2529
 9048TIP3    H248636   1.760   5.110  11.625 -0.9806  1.1478 -0.1128
 9049TIP3   OH248637   4.778   0.629  12.549  0.4428 -0.5027  0.1540
 9049TIP3    H148638   4.683   0.643  12.552  0.6059  0.8118 -0.1813
 9049TIP3    H248639   4.794   0.562  12.616 -0.7900 -1.2722 -0.2731
 9050TIP3   OH248640   2.906   2.836  13.739 -0.3754  0.2338 -0.3590
 9050TIP3    H148641   2.984   2.824  13.684 -0.5250  0.7070 -0.6849
 9050TIP3    H248642   2.903   2.931  13.755 -2.4676  0.6776 -2.7527
 9051TIP3   OH248643   2.747   3.834  16.900 -0.3953  0.2135  0.0531
 9051TIP3    H148644   2.750   3.855  16.807  1.0726 -0.1392 -0.0026
 9051TIP3    H248645   2.682   3.764  16.907 -0.6221  0.3474 -0.6905
 9052TIP3   OH248646   0.930   3.605  14.306  0.0903  0.6365 -0.1222
 9052TIP3    H148647   0.844   3.623  14.345 -0.6557 -0.6469 -1.1090
 9052TIP3    H248648   0.945   3.677  14.245 -0.2168  0.9258  0.1400
 9053TIP3   OH248649   4.022   6.192   4.581  0.2290  0.6991  0.2794
 9053TIP3    H148650   3.969   6.117   4.553  0.3608  0.4658  0.6525
 9053TIP3    H248651   4.001   6.260   4.517 -0.5427  0.6206  0.4311
 9054TIP3   OH248652   0.784   0.916   6.096 -0.2109  0.1370  0.0955
 9054TIP3    H148653   0.723   0.954   6.158  0.2087  1.3511 -0.2118
 9054TIP3    H248654   0.871   0.934   6.134 -0.0015 -0.5429 -0.0450
 9055TIP3   OH248655   3.094   5.603   2.307 -0.3508 -0.3361  0.4815
 9055TIP3    H148656   3.087   5.698   2.317  0.3721 -0.2019 -0.1583
 9055TIP3    H248657   3.005   5.571   2.319 -0.6386  0.4468  0.5111
 9056TIP3   OH248658   6.105   0.677   3.706  0.1299  0.2115 -0.2219
 9056TIP3    H148659   6.128   0.656   3.616  0.7716 -0.3451  0.0634
 9056TIP3    H248660   6.011   0.698   3.703  0.4384  1.5495 -1.2316
 9057TIP3   OH248661   5.577   2.251   1.579 -0.5377  0.1683 -0.3326
 9057TIP3    H148662   5.665   2.245   1.542  0.3801  0.2868  1.7000
 9057TIP3    H248663   5.520   2.211   1.513  1.3188 -1.9447 -0.7509
 9058TIP3   OH248664   1.070   4.889  16.582  0.5450  0.1390 -0.0305
 9058TIP3    H148665   0.981   4.908  16.613  0.4819  0.4392 -0.3925
 9058TIP3    H248666   1.097   4.814  16.635  0.2518  0.3319  0.4079
 9059TIP3   OH248667   2.926   6.627   4.079 -0.4408 -0.4786 -0.2902
 9059TIP3    H148668   2.832   6.631   4.063 -0.3845  0.9883 -0.4467
 9059TIP3    H248669   2.953   6.719   4.086  0.5005 -0.8542  2.5696
 9060TIP3   OH248670   1.965   1.992  14.624 -0.4775 -0.3132 -0.4665
 9060TIP3    H148671   1.906   1.983  14.699 -0.0399 -2.9920 -0.3757
 9060TIP3    H248672   2.052   2.003  14.662 -0.3117 -1.2218 -0.5769
 9061TIP3   OH248673   3.967   6.698  15.923 -0.1646  0.5201 -0.1976
 9061TIP3    H148674   3.888   6.644  15.926 -0.0599  0.3424 -0.5622
 9061TIP3    H248675   4.032   6.642  15.880 -0.3719  1.3354 -1.5999
 9062TIP3   OH248676   6.829   1.966   4.217  0.2303  0.6079  0.2317
 9062TIP3    H148677   6.869   1.892   4.263  1.3840 -0.3821 -2.1625
 9062TIP3    H248678   6.738   1.938   4.203  0.2690  0.2807  0.6068
 9063TIP3   OH248679   3.153   1.523   1.176 -0.4788 -0.1599  0.5280
 9063TIP3    H148680   3.128   1.572   1.098  0.0883 -0.4631  0.1542
 9063TIP3    H248681   3.248   1.519   1.173 -0.3706  0.7439  1.7967
 9064TIP3   OH248682   4.221   6.110   3.389  0.2746 -0.3266  0.9093
 9064TIP3    H148683   4.135   6.081   3.418 -0.5670 -1.7347 -2.5467
 9064TIP3    H248684   4.263   6.031   3.355  2.6237  0.5052  1.6780
 9065TIP3   OH248685   2.660   4.816   6.283 -0.0374 -0.1075 -0.2904
 9065TIP3    H148686   2.712   4.818   6.364 -0.6781  1.1835  0.1156
 9065TIP3    H248687   2.637   4.724   6.271  0.7326 -0.4221  0.5612
 9066TIP3   OH248688   1.013   1.615  16.192 -0.5099 -0.1634  0.9030
 9066TIP3    H148689   0.960   1.542  16.159 -0.1725 -0.3266  0.7178
 9066TIP3    H248690   0.957   1.657  16.258 -1.1219  0.0597  0.2540
 9067TIP3   OH248691   1.881   5.856  13.558 -0.4174  0.4484 -0.7272
 9067TIP3    H148692   1.925   5.772  13.569  1.8819  1.6365 -0.1265
 9067TIP3    H248693   1.831   5.868  13.639 -1.2727 -0.5908 -1.0849
 9068TIP3   OH248694   2.807   3.780   3.096 -0.2556 -0.6876 -0.2338
 9068TIP3    H148695   2.844   3.740   3.017 -1.2063 -2.5230  0.1753
 9068TIP3    H248696   2.749   3.848   3.063  2.0274  1.0381 -0.9344
 9069TIP3   OH248697   6.187   1.947  13.492  0.3339 -0.2031  0.3390
 9069TIP3    H148698   6.154   1.863  13.523  0.7649 -0.3328  0.4629
 9069TIP3    H248699   6.219   1.928  13.403 -1.0384  0.2004 -0.2716
 9070TIP3   OH248700   6.390   3.343  12.026 -0.2577 -0.2127 -0.8489
 9070TIP3    H148701   6.330   3.351  12.101 -1.2723  0.6117 -1.7031
 9070TIP3    H248702   6.334   3.358  11.950  0.7925 -0.8273 -1.7650
 9071TIP3   OH248703   3.547   4.184   4.438  0.4405  0.4835  0.5693
 9071TIP3    H148704   3.591   4.138   4.510  0.8406 -0.9315 -0.5432
 9071TIP3    H248705   3.545   4.121   4.367 -0.7250  1.5661 -0.3997
 9072TIP3   OH248706   0.118   5.708   2.065  0.1426 -0.5312 -0.4187
 9072TIP3    H148707   0.082   5.688   1.979  1.3833 -0.9561 -0.8581
 9072TIP3    H248708   0.136   5.623   2.105 -2.4554 -0.4136  1.1932
 9073TIP3   OH248709   3.882   4.794   5.753  0.7994  0.2735 -0.4056
 9073TIP3    H148710   3.882   4.802   5.849 -0.8292 -2.4673 -0.0443
 9073TIP3    H248711   3.796   4.827   5.727  0.7243 -0.1711 -0.7409
 9074TIP3   OH248712   2.518   1.453   6.119  0.1248  0.0918 -0.1286
 9074TIP3    H148713   2.560   1.443   6.204 -1.2447  1.8263  0.8124
 9074TIP3    H248714   2.429   1.420   6.132 -0.3331  1.0682 -0.6321
 9075TIP3   OH248715   6.134   3.232   1.742 -0.5640 -0.0632 -0.2370
 9075TIP3    H148716   6.200   3.176   1.783  0.6554  0.0607 -1.8926
 9075TIP3    H248717   6.142   3.316   1.788 -0.3473 -0.3874  0.3200
 9076TIP3   OH248718   3.140   2.296  13.208  0.0207 -0.5056 -0.5220
 9076TIP3    H148719   3.182   2.374  13.171  0.0518 -0.9438 -1.4402
 9076TIP3    H248720   3.162   2.299  13.301  1.7861 -0.5146 -0.8992
 9077TIP3   OH248721   6.474   0.140  14.532  0.2091 -0.5302 -0.3592
 9077TIP3    H148722   6.471   0.169  14.441  2.0364  0.0552 -0.2813
 9077TIP3    H248723   6.539   0.069  14.532  0.3936 -0.3780  0.5095
 9078TIP3   OH248724   3.051   0.996   3.598  0.4516  0.0219 -0.3936
 9078TIP3    H148725   3.035   0.917   3.649 -0.5267 -0.5100 -1.4747
 9078TIP3    H248726   2.981   0.997   3.533  1.4523  0.8528 -1.5054
 9079TIP3   OH248727   2.367   0.886  16.314 -0.3693 -0.2365  0.3575
 9079TIP3    H148728   2.444   0.829  16.307 -0.1592  0.0038  0.6682
 9079TIP3    H248729   2.299   0.841  16.265  0.4708  0.4132 -1.5150
 9080TIP3   OH248730   4.555   4.358  16.391  0.1794 -0.2078  0.3496
 9080TIP3    H148731   4.582   4.323  16.307  0.6089 -1.0850  0.8402
 9080TIP3    H248732   4.599   4.443  16.397  0.6187 -0.4030 -0.0574
 9081TIP3   OH248733   3.846   3.766   3.948 -0.2798  0.4377  0.6960
 9081TIP3    H148734   3.774   3.826   3.934 -0.3241  0.3812  0.6808
 9081TIP3    H248735   3.903   3.779   3.872 -0.6509 -0.0562  0.3255
 9082TIP3   OH248736   0.917   3.816  12.809 -0.7670 -0.0422  0.3097
 9082TIP3    H148737   0.929   3.781  12.897 -0.8267  1.8149  1.1051
 9082TIP3    H248738   0.822   3.816  12.796 -0.8506  1.0244  0.8458
 9083TIP3   OH248739   5.094   5.868  12.037 -0.2043  0.0600 -0.1559
 9083TIP3    H148740   5.131   5.786  12.071  1.0940  0.6642 -0.0395
 9083TIP3    H248741   5.168   5.928  12.036 -0.8868  0.9045 -1.3452
 9084TIP3   OH248742   4.927   5.596   3.158 -0.2917  0.5930 -0.3955
 9084TIP3    H148743   4.857   5.567   3.216 -0.0158  2.8373  1.1873
 9084TIP3    H248744   5.005   5.595   3.212  0.2227  1.5361 -1.0848
 9085TIP3   OH248745   6.711   0.783   1.666 -0.1834 -0.2532  0.6708
 9085TIP3    H148746   6.632   0.730   1.653 -0.3054  0.1258 -0.2093
 9085TIP3    H248747   6.776   0.721   1.700  0.5406 -1.7054 -2.9001
 9086TIP3   OH248748   0.200   2.128  11.227 -0.0741  0.4553  0.0951
 9086TIP3    H148749   0.127   2.185  11.203  0.7911  1.5939  0.1095
 9086TIP3    H248750   0.230   2.091  11.144 -1.7911 -1.4708  0.2616
 9087TIP3   OH248751   2.497   0.142  16.676  0.1275 -0.5501  0.2440
 9087TIP3    H148752   2.540   0.057  16.667  1.3535  0.0328  0.3908
 9087TIP3    H248753   2.493   0.177  16.587 -0.2199 -0.6887  0.2046
 9088TIP3   OH248754   0.258   6.382   0.307  0.2669 -0.3851 -0.4842
 9088TIP3    H148755   0.203   6.315   0.349 -1.0168  1.3103  0.6490
 9088TIP3    H248756   0.294   6.433   0.380  2.8414 -0.9786 -1.2225
 9089TIP3   OH248757   2.225   4.772   4.032 -0.1637  0.0458 -0.5881
 9089TIP3    H148758   2.140   4.730   4.044 -0.1286  0.5471  2.1324
 9089TIP3    H248759   2.212   4.832   3.958 -1.9602 -0.3953 -0.6798
 9090TIP3   OH248760   3.359   0.502  14.783  0.1863  0.0998 -0.1743
 9090TIP3    H148761   3.265   0.502  14.800  0.3193 -2.5392  1.0657
 9090TIP3    H248762   3.375   0.422  14.733  1.6684  0.9701 -1.1785
 9091TIP3   OH248763   1.807   4.964   1.636 -0.3043 -0.1631 -0.0059
 9091TIP3    H148764   1.731   5.019   1.658 -0.0373  0.8865 -1.5700
 9091TIP3    H248765   1.781   4.876   1.664 -1.8460  0.2849  0.0800
 9092TIP3   OH248766   1.336   0.031  15.005  0.2334 -0.1026 -0.0098
 9092TIP3    H148767   1.423   0.019  14.967  0.2396 -1.6932  0.4142
 9092TIP3    H248768   1.344   0.108  15.061  1.1481  0.2362 -0.5878
 9093TIP3   OH248769   1.147   0.371  13.500 -0.3920  0.1826  0.0201
 9093TIP3    H148770   1.073   0.363  13.441  0.5548 -0.3146 -1.1421
 9093TIP3    H248771   1.164   0.282  13.531  1.1035 -0.1372 -1.5301
 9094TIP3   OH248772   2.635   5.544  11.833  0.1877  0.4911  0.3782
 9094TIP3    H148773   2.620   5.468  11.776  1.0588  0.0225  0.7437
 9094TIP3    H248774   2.667   5.506  11.915  3.0352  1.3033 -0.2216
 9095TIP3   OH248775   5.928   2.805   4.006  0.4387  0.4120 -0.0400
 9095TIP3    H148776   5.961   2.775   3.921  2.9825 -0.0404  0.9893
 9095TIP3    H248777   5.928   2.901   3.999  1.7271  0.4259 -0.2554
 9096TIP3   OH248778   4.187   0.274   4.920 -0.2769  0.0505  0.0199
 9096TIP3    H148779   4.210   0.288   5.012 -1.7087  0.0341  0.4008
 9096TIP3    H248780   4.092   0.284   4.917 -0.6039 -2.5192 -0.9825
 9097TIP3   OH248781   0.638   4.494   2.714 -0.9416 -0.0023 -0.1836
 9097TIP3    H148782   0.565   4.525   2.768 -0.5552 -0.1234  0.4204
 9097TIP3    H248783   0.715   4.506   2.769 -0.5097  0.0637 -0.7923
 9098TIP3   OH248784   0.547   4.079   5.434  0.6231 -0.0529 -0.5037
 9098TIP3    H148785   0.621   4.074   5.373  1.0442  3.2514 -0.4591
 9098TIP3    H248786   0.478   4.122   5.385  0.0834  0.3565  0.5875
 9099TIP3   OH248787   3.563   4.191   3.460  0.6697 -0.8525  0.1584
 9099TIP3    H148788   3.546   4.115   3.404 -1.5323 -0.6072  0.3945
 9099TIP3    H248789   3.477   4.213   3.497  1.6419  0.4193  1.8191
 9100TIP3   OH248790   1.111   2.559   1.673  0.2397 -0.1241  0.3603
 9100TIP3    H148791   1.050   2.485   1.667 -0.4019  0.5141 -1.7569
 9100TIP3    H248792   1.189   2.522   1.715 -0.9810 -1.3504  1.6432
 9101TIP3   OH248793   1.739   3.470   5.241 -0.0664  0.2201  0.2656
 9101TIP3    H148794   1.774   3.559   5.235  1.3099 -0.2836  0.6022
 9101TIP3    H248795   1.815   3.413   5.233 -0.6297 -0.8861  2.1004
 9102TIP3   OH248796   0.270   2.138   1.202 -0.0352 -0.3658 -0.0097
 9102TIP3    H148797   0.306   2.226   1.214  0.3387 -0.2276 -1.9285
 9102TIP3    H248798   0.333   2.092   1.147 -1.7110 -0.7903 -1.7043
 9103TIP3   OH248799   1.076   3.563  15.631  0.0192 -0.5701  0.2345
 9103TIP3    H148800   1.050   3.565  15.539 -0.7788  1.0912  0.4541
 9103TIP3    H248801   1.042   3.480  15.664  1.0950 -1.6012 -1.1655
 9104TIP3   OH248802   4.647   5.107  12.203 -0.1354  0.5387  0.7264
 9104TIP3    H148803   4.710   5.097  12.132 -1.1772 -1.1102 -0.0400
 9104TIP3    H248804   4.645   5.021  12.245 -1.7433  0.5950  0.8183
 9105TIP3   OH248805   2.364   4.567  10.395 -0.2063 -0.1602 -0.2029
 9105TIP3    H148806   2.288   4.595  10.446 -0.8726 -0.1624 -1.1719
 9105TIP3    H248807   2.432   4.631  10.417 -1.4843  1.8930 -1.8526
 9106TIP3   OH248808   2.268   3.315   5.104 -0.7223 -0.2926  0.0393
 9106TIP3    H148809   2.298   3.338   5.016 -1.4934 -2.0068 -0.7162
 9106TIP3    H248810   2.295   3.224   5.116 -1.0233 -0.2277  1.4072
 9107TIP3   OH248811   6.266   5.538  17.091  0.0343 -0.1204  0.3091
 9107TIP3    H148812   6.245   5.631  17.080  0.1568 -0.2610 -1.4716
 9107TIP3    H248813   6.181   5.495  17.099 -0.0411  0.0961  0.6876
 9108TIP3   OH248814   1.318   2.912  15.455  0.2152 -0.2267  0.6930
 9108TIP3    H148815   1.309   2.821  15.426 -1.7230  0.5190 -1.3101
 9108TIP3    H248816   1.404   2.915  15.498  0.8280 -2.7360 -0.1730
 9109TIP3   OH248817   3.576   4.038   0.418 -0.2850  0.1335  0.1854
 9109TIP3    H148818   3.592   4.107   0.482  1.2188 -0.2803  0.3131
 9109TIP3    H248819   3.524   4.079   0.350  0.1153  1.2428  0.5289
 9110TIP3   OH248820   1.806   3.296  12.536 -0.6588  0.5770  0.4474
 9110TIP3    H148821   1.872   3.273  12.471 -0.7695  0.8178  0.2466
 9110TIP3    H248822   1.791   3.215  12.585 -0.5869  0.3886  0.1622
 9111TIP3   OH248823   1.623   5.684   0.117  0.3327 -0.0853  0.7569
 9111TIP3    H148824   1.665   5.740   0.182 -0.1050 -1.0560  1.9239
 9111TIP3    H248825   1.692   5.623   0.089  0.8674  1.1061 -0.6695
 9112TIP3   OH248826   5.291   3.060  12.892  0.4351 -0.7748 -0.0538
 9112TIP3    H148827   5.206   3.031  12.923 -1.2820  2.1797 -1.5131
 9112TIP3    H248828   5.277   3.084  12.801  3.2098 -1.3704 -0.7531
 9113TIP3   OH248829   3.958   5.131   3.512 -0.0921  0.1659 -0.1855
 9113TIP3    H148830   4.020   5.069   3.474 -0.9087  0.9487 -3.0468
 9113TIP3    H248831   4.009   5.210   3.526 -0.0550  0.2896 -0.9689
 9114TIP3   OH248832   3.271   3.752  14.286 -0.3191 -0.2647 -0.1243
 9114TIP3    H148833   3.325   3.688  14.331 -1.0638 -1.2834 -0.6407
 9114TIP3    H248834   3.188   3.752  14.333 -0.5574 -0.1839 -0.5377
 9115TIP3   OH248835   6.546   0.150   4.671 -0.1404 -0.4189  0.1886
 9115TIP3    H148836   6.451   0.160   4.659 -0.3782 -2.2233  0.3086
 9115TIP3    H248837   6.575   0.101   4.594  0.6836 -0.0627  0.2576
 9116TIP3   OH248838   2.073   5.449   5.064 -0.4130 -0.7826  0.0082
 9116TIP3    H148839   2.058   5.367   5.017 -0.7947 -0.1567 -0.9870
 9116TIP3    H248840   1.987   5.491   5.068 -0.1061 -0.1260 -0.0725
 9117TIP3   OH248841   0.118   4.710  17.129  0.2281  0.3054 -0.4614
 9117TIP3    H148842   0.064   4.688  17.053  1.2404  0.7068 -1.3329
 9117TIP3    H248843   0.163   4.629  17.151 -1.7339 -0.4130  1.1685
 9118TIP3   OH248844   6.218   1.763  11.572 -0.0586 -0.0959 -0.2910
 9118TIP3    H148845   6.249   1.833  11.514  0.9229  1.5463  2.0369
 9118TIP3    H248846   6.166   1.707  11.515 -1.5574  2.9261 -2.2013
 9119TIP3   OH248847   1.544   2.518  12.104  0.0742  0.1345  0.1642
 9119TIP3    H148848   1.510   2.429  12.099  2.7052 -1.0483  1.5327
 9119TIP3    H248849   1.583   2.525  12.191  1.8884  1.8645 -0.6953
 9120TIP3   OH248850   4.681   4.437  14.956 -0.0373  0.0995 -0.3505
 9120TIP3    H148851   4.750   4.403  15.013  0.9663 -0.1423 -1.6852
 9120TIP3    H248852   4.686   4.533  14.966  1.3264  0.1513 -1.3674
 9121TIP3   OH248853   5.657   5.653   0.325  0.6684  0.4845 -0.6153
 9121TIP3    H148854   5.698   5.708   0.391  0.6746 -0.4000  0.1363
 9121TIP3    H248855   5.729   5.602   0.288  0.8489  1.7351 -2.1044
 9122TIP3   OH248856   5.752   5.059  13.351 -0.2482  0.4136 -0.3609
 9122TIP3    H148857   5.715   5.135  13.396  2.7899  1.3257  0.8299
 9122TIP3    H248858   5.762   5.087  13.260 -1.7566  0.3721 -0.5646
 9123TIP3   OH248859   5.514   3.367  11.934  0.7382  0.4295  0.4230
 9123TIP3    H148860   5.437   3.390  11.985 -0.5076 -0.7193 -0.8444
 9123TIP3    H248861   5.545   3.285  11.973 -0.4586 -0.6715 -0.8213
 9124TIP3   OH248862   5.474   0.239  14.523  0.0942 -0.2434  0.3789
 9124TIP3    H148863   5.520   0.175  14.576 -1.2090 -0.8963  0.7768
 9124TIP3    H248864   5.460   0.195  14.439  0.2074 -0.0548  0.2614
 9125TIP3   OH248865   3.371   3.144  14.777  0.4792 -0.2187  0.5947
 9125TIP3    H148866   3.447   3.200  14.787  0.1477  0.0110  2.0161
 9125TIP3    H248867   3.398   3.059  14.813  0.6786 -0.7287 -0.6946
 9126TIP3   OH248868   3.960   6.477  16.646 -0.0737  0.2649 -0.4284
 9126TIP3    H148869   3.987   6.461  16.737  0.5773  0.9981 -0.4714
 9126TIP3    H248870   4.043   6.493  16.600 -0.5015  1.7379 -0.7551
 9127TIP3   OH248871   3.649   5.407   4.848  0.0831 -0.3397  0.6529
 9127TIP3    H148872   3.578   5.347   4.871  0.0573 -0.1852  0.9830
 9127TIP3    H248873   3.608   5.494   4.846 -0.0980 -0.4397 -0.8162
 9128TIP3   OH248874   5.176   0.156  14.140 -0.1643  0.4534  0.4874
 9128TIP3    H148875   5.094   0.108  14.151  0.4783 -0.6223  0.8070
 9128TIP3    H248876   5.165   0.235  14.191  0.1421 -1.1527  3.2259
 9129TIP3   OH248877   5.122   0.924  13.496 -0.0204 -0.2361 -0.2128
 9129TIP3    H148878   5.027   0.924  13.503 -0.0091 -0.4751 -0.0545
 9129TIP3    H248879   5.152   0.970  13.575 -0.0802  2.1339 -1.4907
 9130TIP3   OH248880   0.332   5.806   5.450 -0.4105  0.6183 -0.0632
 9130TIP3    H148881   0.340   5.835   5.359 -0.2499  1.1901  0.1300
 9130TIP3    H248882   0.393   5.733   5.458  1.7641  2.3881  0.3368
 9131TIP3   OH248883   6.126   4.834   2.038 -0.0333  0.2314 -0.0061
 9131TIP3    H148884   6.105   4.927   2.051 -0.0502  0.3327 -0.7316
 9131TIP3    H248885   6.044   4.794   2.012 -0.2927 -0.2259  1.4402
 9132TIP3   OH248886   6.627   3.086   1.752  0.3669 -0.1367  0.0282
 9132TIP3    H148887   6.700   3.145   1.771 -0.4664  1.4611 -1.3861
 9132TIP3    H248888   6.623   3.027   1.826  1.9088  0.9530  1.0349
 9133TIP3   OH248889   5.883   5.005  17.151 -0.2249 -0.4305 -0.6512
 9133TIP3    H148890   5.816   4.997  17.084 -0.4726  2.8789 -0.9551
 9133TIP3    H248891   5.955   5.051  17.108  1.1167 -1.4347  0.4339
 9134TIP3   OH248892   6.430   2.076   2.730 -0.4476 -0.1612 -0.2796
 9134TIP3    H148893   6.518   2.081   2.692 -0.1215  0.8541  0.5613
 9134TIP3    H248894   6.373   2.060   2.655  0.2047  1.4256 -1.1720
 9135TIP3   OH248895   2.187   3.849  14.008  0.9374 -0.6392  0.3980
 9135TIP3    H148896   2.156   3.927  13.962 -1.9540 -1.6394  0.3870
 9135TIP3    H248897   2.232   3.883  14.085 -1.7668  1.1490  1.3415
 9136TIP3   OH248898   0.833   3.227   5.547 -0.5638 -0.3534  0.1975
 9136TIP3    H148899   0.814   3.216   5.639 -0.9692  0.6493  0.2449
 9136TIP3    H248900   0.866   3.141   5.518 -0.5355 -0.6969  1.2342
 9137TIP3   OH248901   6.375   0.822   5.928  0.3673  0.1900 -0.6334
 9137TIP3    H148902   6.342   0.756   5.868  2.4411 -0.6012 -0.9755
 9137TIP3    H248903   6.297   0.873   5.953 -1.3968 -2.5812 -0.0423
 9138TIP3   OH248904   1.709   2.190   0.860  0.6740 -0.1573 -0.1819
 9138TIP3    H148905   1.655   2.185   0.781 -2.4274 -0.5364  1.8001
 9138TIP3    H248906   1.777   2.124   0.846  0.3384 -0.0781 -2.5813
 9139TIP3   OH248907   4.966   6.364  16.480 -0.1496 -0.1107  0.3924
 9139TIP3    H148908   5.049   6.334  16.441  0.6184  3.2450 -0.8940
 9139TIP3    H248909   4.913   6.390  16.405 -2.4147 -1.9815  1.2216
 9140TIP3   OH248910   5.698   3.713   3.438  0.3681  0.7360  0.2195
 9140TIP3    H148911   5.729   3.786   3.384  2.0282  0.3425  0.5748
 9140TIP3    H248912   5.741   3.727   3.522 -1.6745  0.9809  1.2742
 9141TIP3   OH248913   3.036   1.207  11.985 -0.1564  0.0669 -0.1649
 9141TIP3    H148914   3.049   1.165  11.900  0.5538 -0.3213  0.1357
 9141TIP3    H248915   2.967   1.272  11.969 -1.2358 -1.1614 -0.6376
 9142TIP3   OH248916   2.558   1.078   3.938  0.1095  0.4912  0.2660
 9142TIP3    H148917   2.525   1.162   3.906 -1.1809 -0.4140 -0.9059
 9142TIP3    H248918   2.640   1.100   3.982 -1.1057  2.5978  1.6420
 9143TIP3   OH248919   4.192   3.844   1.816  0.2142  0.6490 -0.1609
 9143TIP3    H148920   4.241   3.904   1.872  0.8561  0.0089 -0.0158
 9143TIP3    H248921   4.252   3.823   1.745 -0.3332  0.8782 -0.6984
 9144TIP3   OH248922   3.669   5.099   4.384  0.1820  0.0789  0.2380
 9144TIP3    H148923   3.756   5.063   4.399  0.7277  0.8549 -0.9104
 9144TIP3    H248924   3.634   5.047   4.311 -0.0319  0.2381  0.2252
 9145TIP3   OH248925   6.344   3.498  11.380 -0.1198  0.3896 -0.6765
 9145TIP3    H148926   6.306   3.584  11.397  0.0078 -0.1057  2.6623
 9145TIP3    H248927   6.271   3.437  11.392  0.5519 -0.1945  0.5619
 9146TIP3   OH248928   6.783   6.438   5.767  0.2320  0.7684 -0.5219
 9146TIP3    H148929   6.759   6.516   5.717 -0.7231  1.5511  1.1091
 9146TIP3    H248930   6.838   6.470   5.838 -0.0256 -0.0687  0.0705
 9147TIP3   OH248931   1.999   1.734   5.264 -0.7936  0.4259  0.2638
 9147TIP3    H148932   2.006   1.822   5.301  0.1559  0.0803  0.9506
 9147TIP3    H248933   2.042   1.740   5.179  1.0576  0.2006  1.1291
 9148TIP3   OH248934   6.034   0.983  16.317  0.9791 -0.3067 -0.6322
 9148TIP3    H148935   6.008   1.060  16.268  1.3079 -0.5903 -1.2704
 9148TIP3    H248936   6.025   1.008  16.409  1.1483  0.5093 -0.8302
 9149TIP3   OH248937   0.106   4.628   0.728 -0.4207  0.0469  0.2120
 9149TIP3    H148938   0.068   4.619   0.815 -0.3769 -0.1007  0.2149
 9149TIP3    H248939   0.172   4.697   0.739  0.7423 -1.0876  0.6838
 9150TIP3   OH248940   5.197   6.118   5.376  0.3543  0.2325 -0.1717
 9150TIP3    H148941   5.208   6.097   5.468  0.0889 -0.3879 -0.2782
 9150TIP3    H248942   5.106   6.147   5.369  1.4560  4.5512  0.5580
 9151TIP3   OH248943   3.210   1.858   2.974 -0.2671 -0.3490 -0.0167
 9151TIP3    H148944   3.242   1.912   3.046  2.4374 -2.8013  0.7933
 9151TIP3    H248945   3.288   1.816   2.939 -1.6538 -0.2693 -3.6003
 9152TIP3   OH248946   1.642   2.486  16.300 -0.2253  0.5631 -0.0072
 9152TIP3    H148947   1.632   2.579  16.320 -0.5068  0.4205  0.5412
 9152TIP3    H248948   1.564   2.445  16.337 -1.3488  0.4083 -2.3730
 9153TIP3   OH248949   6.677   6.598   1.255 -0.4565 -0.0647 -0.1366
 9153TIP3    H148950   6.600   6.563   1.211  1.0174 -2.8237 -0.6912
 9153TIP3    H248951   6.742   6.608   1.186  0.1679  0.9175  0.5540
 9154TIP3   OH248952   0.443   2.444   2.437 -0.1452  0.6859  0.0893
 9154TIP3    H148953   0.448   2.377   2.369 -2.7109 -1.9920  2.2781
 9154TIP3    H248954   0.513   2.421   2.498 -0.3763  0.6407  0.3361
 9155TIP3   OH248955   4.119   6.304   1.033 -0.9913  0.1529 -0.4304
 9155TIP3    H148956   4.148   6.244   1.102 -0.3972  0.7044 -0.1905
 9155TIP3    H248957   4.058   6.363   1.077 -0.2055  0.8407 -0.2353
 9156TIP3   OH248958   0.417   3.157   1.157 -0.0186 -0.2002 -0.4433
 9156TIP3    H148959   0.484   3.096   1.127 -0.4773 -1.6539  1.2610
 9156TIP3    H248960   0.465   3.224   1.206  0.2137 -1.8162  1.6979
 9157TIP3   OH248961   2.353   1.917   1.038  0.0514  0.2173 -0.3331
 9157TIP3    H148962   2.447   1.904   1.043  0.0723  0.4894  0.0694
 9157TIP3    H248963   2.325   1.930   1.129 -0.4975 -0.6817 -0.3644
 9158TIP3   OH248964   4.332   6.010  12.364 -0.2676 -0.1197  0.0765
 9158TIP3    H148965   4.286   5.934  12.399  0.5104 -0.8712 -0.5062
 9158TIP3    H248966   4.415   6.012  12.412 -1.0086  1.4469  1.3964
 9159TIP3   OH248967   3.035   0.800  16.352 -0.1143 -0.3029  0.2596
 9159TIP3    H148968   2.968   0.859  16.386  0.3689  0.4516 -0.0583
 9159TIP3    H248969   3.092   0.783  16.426  0.0967  0.1389  0.2009
 9160TIP3   OH248970   0.784   6.367   4.644 -0.0120 -0.4706 -0.9687
 9160TIP3    H148971   0.753   6.422   4.716  1.1214 -0.2262 -0.6608
 9160TIP3    H248972   0.845   6.305   4.684 -0.9182 -1.6894 -1.3876
 9161TIP3   OH248973   2.317   5.290  12.524  0.3163 -0.5804 -0.4150
 9161TIP3    H148974   2.236   5.251  12.491  0.2494 -0.4555 -0.4002
 9161TIP3    H248975   2.301   5.384  12.520 -0.0232 -0.5647  0.7674
 9162TIP3   OH248976   0.926   1.664   5.924  0.0122  0.8499 -0.1725
 9162TIP3    H148977   0.927   1.666   5.829  1.5103  2.2423 -0.1644
 9162TIP3    H248978   0.838   1.695   5.947 -0.4177  0.3462 -1.0775
 9163TIP3   OH248979   0.806   1.594   5.649 -0.0154  0.4591  0.3548
 9163TIP3    H148980   0.873   1.661   5.638 -0.2409  0.4545 -1.2212
 9163TIP3    H248981   0.724   1.642   5.659  0.0120  0.4329  0.7347
 9164TIP3   OH248982   3.978   3.332   3.106 -0.8488  0.6630  0.3974
 9164TIP3    H148983   3.958   3.404   3.046 -0.5859 -1.2970 -2.1685
 9164TIP3    H248984   3.960   3.253   3.057 -2.4351 -1.1365  3.5793
 9165TIP3   OH248985   4.319   5.633   5.700 -0.0414  0.4139 -0.2726
 9165TIP3    H148986   4.352   5.591   5.780 -1.1023 -0.7405 -0.4092
 9165TIP3    H248987   4.336   5.568   5.631 -1.7270  0.1834 -0.4946
 9166TIP3   OH248988   2.496   4.741  13.894 -0.5771  0.4532  0.3553
 9166TIP3    H148989   2.545   4.823  13.894  0.6398 -0.2531  0.5768
 9166TIP3    H248990   2.492   4.715  13.986 -0.8134  0.1733  0.2690
 9167TIP3   OH248991   2.963   2.765   2.243 -0.2825  1.2342 -0.2398
 9167TIP3    H148992   2.971   2.677   2.207 -1.6101  0.3796  1.4079
 9167TIP3    H248993   2.902   2.810   2.185 -1.4921  0.2690  0.2631
 9168TIP3   OH248994   3.386   2.123  13.652  0.0661  0.3342  0.3133
 9168TIP3    H148995   3.429   2.044  13.621  0.3005  0.6179 -0.0897
 9168TIP3    H248996   3.438   2.152  13.727 -0.1071  0.0253  0.5536
 9169TIP3   OH248997   1.826   5.053   3.887 -0.2340 -0.7289 -0.1546
 9169TIP3    H148998   1.918   5.027   3.890  0.2964  0.3466 -3.6353
 9169TIP3    H248999   1.780   4.975   3.857 -1.1360 -2.2587  4.3360
 9170TIP3   OH249000   5.595   0.556   2.549 -0.3005 -0.6708  0.4352
 9170TIP3    H149001   5.511   0.602   2.553  0.7073  1.2933  0.4676
 9170TIP3    H249002   5.639   0.580   2.631  1.6244  1.2030 -1.0344
 9171TIP3   OH249003   2.668   1.903  12.206 -0.1311 -0.4763  0.4589
 9171TIP3    H149004   2.683   1.879  12.297  1.9608  0.1396  0.3271
 9171TIP3    H249005   2.747   1.952  12.180 -1.4712  1.0077 -1.1237
 9172TIP3   OH249006   6.082   6.402   5.839 -0.3429 -0.2199 -0.7893
 9172TIP3    H149007   5.994   6.417   5.805 -0.8407  0.6165  0.7661
 9172TIP3    H249008   6.069   6.368   5.927  0.8961 -2.7323 -1.4923
 9173TIP3   OH249009   1.516   3.666   1.022 -0.2232 -0.1879  0.5751
 9173TIP3    H149010   1.473   3.749   1.043  0.1423 -0.2734  1.7136
 9173TIP3    H249011   1.514   3.616   1.103  0.5055 -0.8748  0.1872
 9174TIP3   OH249012   3.224   6.429  16.938  0.3700  0.4936 -0.5173
 9174TIP3    H149013   3.237   6.522  16.959 -1.8671  0.7135  0.2056
 9174TIP3    H249014   3.171   6.431  16.858 -0.4042 -0.1131 -0.0376
 9175TIP3   OH249015   0.717   0.306   5.287  0.2761 -0.2462  0.2890
 9175TIP3    H149016   0.791   0.329   5.232 -0.7333  0.0146 -1.0091
 9175TIP3    H249017   0.641   0.311   5.229 -1.1094  1.8773  2.0828
 9176TIP3   OH249018   4.713   2.157  14.651 -0.3062  0.7468  0.2988
 9176TIP3    H149019   4.637   2.105  14.627 -0.5198  1.5329 -0.8123
 9176TIP3    H249020   4.715   2.154  14.746 -0.2052 -1.4085  0.2776
 9177TIP3   OH249021   1.585   5.421   3.004 -0.1403 -0.2951  0.2188
 9177TIP3    H149022   1.675   5.434   3.034 -0.6080  1.0297  1.1351
 9177TIP3    H249023   1.586   5.336   2.960  1.9378  0.4503 -1.2856
 9178TIP3   OH249024   2.023   6.708  12.310  0.0639 -0.3337 -0.2040
 9178TIP3    H149025   2.083   6.647  12.353  0.7174 -0.2355 -0.9520
 9178TIP3    H249026   2.068   6.792  12.312 -0.0348 -0.2623 -0.7927
 9179TIP3   OH249027   1.822   2.678  11.398  0.5811  0.5379 -0.2811
 9179TIP3    H149028   1.731   2.689  11.372 -0.1442 -1.8662  0.9534
 9179TIP3    H249029   1.867   2.652  11.317 -0.1988 -0.0187 -0.5428
 9180TIP3   OH249030   5.699   0.379   3.585 -0.3196 -0.0588  0.2353
 9180TIP3    H149031   5.664   0.466   3.606 -1.0298  0.7975 -3.8042
 9180TIP3    H249032   5.624   0.328   3.556  0.0569 -2.2400  2.6539
 9181TIP3   OH249033   3.782   2.529   1.056  0.0536  0.0202  0.2185
 9181TIP3    H149034   3.860   2.503   1.105 -0.0395 -0.7926 -0.0602
 9181TIP3    H249035   3.812   2.600   0.999 -0.0686  1.7735  2.1908
 9182TIP3   OH249036   3.005   6.476  13.495  0.1440 -0.1337  0.0530
 9182TIP3    H149037   3.020   6.472  13.401 -0.5709  1.4053 -0.1593
 9182TIP3    H249038   2.930   6.535  13.505  2.1583  2.4061  1.7243
 9183TIP3   OH249039   6.450   5.594   3.252  0.2636  0.1161  0.4732
 9183TIP3    H149040   6.529   5.569   3.203 -1.2499 -0.6433 -1.7604
 9183TIP3    H249041   6.414   5.668   3.204 -0.2653  0.6194  1.6021
 9184TIP3   OH249042   5.904   3.877  11.248  0.0604 -0.3745  0.0209
 9184TIP3    H149043   5.936   3.900  11.335 -1.0354 -0.2292  0.4045
 9184TIP3    H249044   5.899   3.961  11.202 -0.5303 -0.2827  0.2384
 9185TIP3   OH249045   5.748   0.018  16.200 -0.3521  0.4582  0.4307
 9185TIP3    H149046   5.708  -0.025  16.276 -0.9592  1.8944  0.9521
 9185TIP3    H249047   5.718  -0.034  16.126  0.0829 -0.8565  1.1341
 9186TIP3   OH249048   2.998   1.773  14.299 -0.0502 -0.1724 -0.2219
 9186TIP3    H149049   3.048   1.719  14.238 -0.8924  0.8645 -1.9065
 9186TIP3    H249050   2.931   1.815  14.245 -1.9052 -0.4808  1.7381
 9187TIP3   OH249051   4.897   2.765   0.446 -0.2974 -0.5101 -0.5867
 9187TIP3    H149052   4.872   2.723   0.528  0.8623 -0.3758 -0.1366
 9187TIP3    H249053   4.952   2.700   0.401 -0.1294 -0.2231 -0.8013
 9188TIP3   OH249054   3.610   2.394   5.627 -0.0319 -0.0654  0.2797
 9188TIP3    H149055   3.533   2.448   5.643  0.2529  0.1016  1.1132
 9188TIP3    H249056   3.627   2.351   5.710  2.2629  1.8170  0.8849
 9189TIP3   OH249057   3.469   3.502   4.131 -0.0972 -0.5559  0.0749
 9189TIP3    H149058   3.519   3.505   4.050  1.8121 -0.4236  1.1946
 9189TIP3    H249059   3.447   3.593   4.150  1.6525 -0.2817  0.9573
 9190TIP3   OH249060   4.913   1.122   4.283  0.6816 -0.4468  0.4649
 9190TIP3    H149061   4.995   1.091   4.244  0.4784  0.6824 -0.8955
 9190TIP3    H249062   4.895   1.058   4.353  2.7603 -0.6569  0.8738
 9191TIP3   OH249063   4.807   1.197   0.667  0.6114  0.4634  0.0824
 9191TIP3    H149064   4.835   1.281   0.630 -1.4136  1.5229  0.7978
 9191TIP3    H249065   4.825   1.205   0.761  2.3532 -0.7894 -0.0877
 9192TIP3   OH249066   2.709   3.514  16.735 -0.5133 -0.5100 -0.1698
 9192TIP3    H149067   2.804   3.523  16.725 -0.2242 -1.4000  1.4198
 9192TIP3    H249068   2.674   3.530  16.647  1.0290  0.6566 -0.6116
 9193TIP3   OH249069   5.139   3.525  12.988  0.1752  0.5912  0.2788
 9193TIP3    H149070   5.163   3.564  13.072  0.0384  0.4099  0.4033
 9193TIP3    H249071   5.092   3.445  13.011 -0.0930  0.6743  0.0351
 9194TIP3   OH249072   4.576   3.164  11.336 -0.3935  0.3696 -0.2912
 9194TIP3    H149073   4.553   3.198  11.422  0.2655 -0.2532  0.1433
 9194TIP3    H249074   4.548   3.072  11.339  3.3806 -0.9135  0.8408
 9195TIP3   OH249075   2.446   1.365   3.884  0.0539 -0.0800  0.1205
 9195TIP3    H149076   2.415   1.381   3.974  2.5668  0.4840  0.9548
 9195TIP3    H249077   2.384   1.412   3.829 -1.0547  0.2784  1.6108
 9196TIP3   OH249078   2.034   3.169   1.104 -0.1856 -0.8515  0.0317
 9196TIP3    H149079   2.017   3.222   1.181  0.1134  0.1503 -0.5724
 9196TIP3    H249080   2.098   3.105   1.132  1.3052  0.6422  0.1863
 9197TIP3   OH249081   0.289   4.382   2.943  0.2117 -0.4619 -0.5533
 9197TIP3    H149082   0.272   4.310   2.883  0.9451 -1.1353  0.0195
 9197TIP3    H249083   0.232   4.366   3.018 -1.8247  1.2028 -1.6644
 9198TIP3   OH249084   6.121   6.738   4.949 -0.1556 -0.6182  0.2212
 9198TIP3    H149085   6.088   6.825   4.972  0.0917 -1.1644  3.0503
 9198TIP3    H249086   6.069   6.679   5.003 -0.1848 -2.2679 -1.5109
 9199TIP3   OH249087   6.651   5.623  15.700  0.2571  0.0281 -0.0256
 9199TIP3    H149088   6.623   5.550  15.756  2.1014 -1.0799 -0.4401
 9199TIP3    H249089   6.624   5.596  15.612  0.2209  0.2430 -0.0797
 9200TIP3   OH249090   3.799   3.483  13.056  0.2991 -0.4182  0.4741
 9200TIP3    H149091   3.867   3.487  12.989  0.3485  0.1556  0.5547
 9200TIP3    H249092   3.799   3.392  13.085 -0.3896 -0.9204 -1.0075
 9201TIP3   OH249093   2.405   1.037   1.532 -0.1596 -0.4151  0.3891
 9201TIP3    H149094   2.368   1.014   1.447 -0.9721 -1.6559  1.0581
 9201TIP3    H249095   2.335   1.022   1.595  0.0991  1.4418  1.2007
 9202TIP3   OH249096   1.597   2.576   4.943 -0.0883  0.9721 -0.2783
 9202TIP3    H149097   1.631   2.644   5.002 -0.7193  1.5921 -0.6024
 9202TIP3    H249098   1.511   2.554   4.979  0.5949 -0.5273  0.4931
 9203TIP3   OH249099   2.895   0.975  13.788  0.2384  0.0027  0.0387
 9203TIP3    H149100   2.906   0.884  13.761 -2.3197 -0.1182 -0.9071
 9203TIP3    H249101   2.830   0.971  13.858 -2.2282  1.2430 -2.0293
 9204TIP3   OH249102   1.848   0.505   2.271  0.2043 -0.9038  0.0380
 9204TIP3    H149103   1.849   0.411   2.290 -1.9502 -0.3372  3.8082
 9204TIP3    H249104   1.939   0.526   2.248  1.3496 -3.4554  1.7946
 9205TIP3   OH249105   1.103   0.282  11.409  0.2017  0.8579 -0.6961
 9205TIP3    H149106   1.139   0.264  11.496 -0.1922 -1.9160 -1.0465
 9205TIP3    H249107   1.181   0.302  11.356  0.9514 -1.4480 -0.5863
 9206TIP3   OH249108   0.552   1.333  11.260 -0.3134  0.9874  0.3518
 9206TIP3    H149109   0.476   1.276  11.246 -0.3476  0.5298  2.1542
 9206TIP3    H249110   0.547   1.397  11.189 -0.9579 -0.5157 -1.0292
 9207TIP3   OH249111   3.769   0.906  10.779 -0.4735 -0.1515 -0.9274
 9207TIP3    H149112   3.749   0.983  10.726  1.4448  0.5477 -0.7073
 9207TIP3    H249113   3.698   0.903  10.843 -1.1313  0.8323 -1.5752
 9208TIP3   OH249114   4.756   4.743  12.923 -0.6934 -0.6008  0.2296
 9208TIP3    H149115   4.697   4.790  12.983 -3.7712  0.3370 -3.1578
 9208TIP3    H249116   4.722   4.654  12.921 -0.5432 -0.6521 -0.0297
 9209TIP3   OH249117   1.478   5.943   6.446 -0.3939  0.1305  0.3072
 9209TIP3    H149118   1.431   6.017   6.407  0.0029  0.6890  0.8765
 9209TIP3    H249119   1.438   5.932   6.532 -0.5810 -0.4502  0.1543
 9210TIP3   OH249120   1.905   5.904  14.055 -0.0598 -0.4706  0.6683
 9210TIP3    H149121   1.833   5.924  14.115 -0.7291 -0.0342 -0.2567
 9210TIP3    H249122   1.925   5.812  14.072 -0.2419 -0.3548  1.5556
 9211TIP3   OH249123   5.585   0.525   1.678  0.1774 -0.5443  0.1351
 9211TIP3    H149124   5.559   0.442   1.639  0.1722  0.2156 -1.5944
 9211TIP3    H249125   5.507   0.580   1.670  0.9735  0.4376 -1.2027
 9212TIP3   OH249126   6.629   4.291  16.419  0.2184  0.4358 -0.7549
 9212TIP3    H149127   6.605   4.344  16.344 -1.0429  0.0807 -0.6137
 9212TIP3    H249128   6.562   4.309  16.485  0.4893 -0.3645 -0.2414
 9213TIP3   OH249129   4.417   5.286   4.543 -0.5322  0.3343 -0.1456
 9213TIP3    H149130   4.331   5.290   4.502 -0.2266 -1.6536 -1.0965
 9213TIP3    H249131   4.410   5.215   4.607  0.9013 -1.1925 -1.6033
 9214TIP3   OH249132   1.342   0.623   0.065  0.9992 -0.2651  0.1425
 9214TIP3    H149133   1.412   0.628   0.001 -0.0092  0.7175 -0.9357
 9214TIP3    H249134   1.280   0.692   0.038  1.1633  1.1267  2.9289
 9215TIP3   OH249135   6.225   1.440  13.343 -0.4261  0.1704 -0.1149
 9215TIP3    H149136   6.175   1.494  13.282  1.7702  0.6025 -1.6370
 9215TIP3    H249137   6.250   1.363  13.292  2.1510  0.9219 -0.1350
 9216TIP3   OH249138   2.713   4.506  11.461 -0.0756 -0.6269 -0.1748
 9216TIP3    H149139   2.767   4.551  11.397 -0.2778 -0.2732 -0.1010
 9216TIP3    H249140   2.773   4.445  11.505  0.2909 -0.1455 -0.0030
 9217TIP3   OH249141   4.500   1.963  16.640 -0.2990 -0.3135  0.4947
 9217TIP3    H149142   4.413   1.984  16.674  0.0405  0.1021  1.1350
 9217TIP3    H249143   4.516   2.028  16.571 -0.1510  0.1594  0.9653
 9218TIP3   OH249144   3.200   0.260  15.914 -0.2141  1.0040  1.0529
 9218TIP3    H149145   3.194   0.305  15.998  0.5506 -0.6101  2.0183
 9218TIP3    H249146   3.168   0.172  15.932 -0.9510  0.8916 -0.6028
 9219TIP3   OH249147   4.060   5.772   5.866  0.4790 -0.6278 -0.3505
 9219TIP3    H149148   4.088   5.707   5.800  2.7442 -0.0326 -0.0429
 9219TIP3    H249149   4.087   5.735   5.949  0.1313 -0.0954  0.0047
 9220TIP3   OH249150   6.408   4.871   4.248  0.4706  0.3759  0.5543
 9220TIP3    H149151   6.436   4.804   4.186 -0.6655  1.8019 -1.5988
 9220TIP3    H249152   6.321   4.842   4.277  1.0726 -0.3780  1.6651
 9221TIP3   OH249153   4.116   2.032   5.651 -0.1426  0.5003  0.1102
 9221TIP3    H149154   4.126   1.939   5.671 -0.3502 -0.1710 -2.6003
 9221TIP3    H249155   4.191   2.053   5.595 -0.7110  1.6933 -0.2366
 9222TIP3   OH249156   3.773   6.067   4.005 -0.5178 -0.5172  0.3968
 9222TIP3    H149157   3.755   6.084   4.097  0.9530  2.0948  0.3202
 9222TIP3    H249158   3.838   5.997   4.005 -1.3588 -1.3293  1.2321
 9223TIP3   OH249159   4.668   4.014  13.388 -0.5421  0.1275  0.6188
 9223TIP3    H149160   4.707   3.971  13.464 -1.1072  0.1997  0.9524
 9223TIP3    H249161   4.736   4.074  13.358 -0.1066 -0.3102  0.7269
 9224TIP3   OH249162   3.543   4.990  12.398  0.4849 -0.0805  0.0617
 9224TIP3    H149163   3.471   4.963  12.455  1.3677 -1.1776  0.6932
 9224TIP3    H249164   3.519   4.958  12.311 -0.8606  1.5854 -0.2210
 9225TIP3   OH249165   3.253   4.160  13.409  0.3951  0.8404 -0.0597
 9225TIP3    H149166   3.271   4.074  13.446  1.0794  0.8066 -0.4441
 9225TIP3    H249167   3.186   4.197  13.466  0.1029  0.0629  0.1216
 9226TIP3   OH249168   0.216   6.651  17.134 -0.9149 -0.2176 -0.1711
 9226TIP3    H149169   0.182   6.592  17.067  0.9420 -0.6611 -0.7535
 9226TIP3    H249170   0.237   6.732  17.088 -1.5194  0.2043  0.2659
 9227TIP3   OH249171   6.358   0.465   5.589  0.1563  1.0307  0.1644
 9227TIP3    H149172   6.277   0.515   5.578  0.6522  1.6672 -0.8880
 9227TIP3    H249173   6.330   0.374   5.599 -0.6560  0.8287 -2.9298
 9228TIP3   OH249174   1.823   1.165   6.380 -0.5757  0.0030  0.3938
 9228TIP3    H149175   1.744   1.161   6.434 -1.3322 -0.4053 -0.7271
 9228TIP3    H249176   1.803   1.112   6.303  0.9737 -0.5294  0.3171
 9229TIP3   OH249177   5.157   5.961   2.059  0.5209 -0.5886 -0.3677
 9229TIP3    H149178   5.122   5.956   2.148  0.3291 -1.6303 -0.4931
 9229TIP3    H249179   5.136   6.050   2.030 -0.1850 -0.5209  0.3132
 9230TIP3   OH249180   3.068   5.250  16.288 -0.1421 -0.0278 -0.2350
 9230TIP3    H149181   3.147   5.271  16.338  1.2416  0.1443 -2.3802
 9230TIP3    H249182   3.053   5.157  16.304  0.0213  0.1107  0.7989
 9231TIP3   OH249183   2.399   1.056  16.557  0.8480 -0.2388  0.0223
 9231TIP3    H149184   2.382   0.981  16.500  0.3681  0.2027 -0.4329
 9231TIP3    H249185   2.313   1.079  16.593  0.9265  0.3183 -0.1355
 9232TIP3   OH249186   1.808   5.939   0.202 -0.3876 -0.0496  0.2089
 9232TIP3    H149187   1.761   5.986   0.270 -0.7770  0.0270 -0.1091
 9232TIP3    H249188   1.900   5.957   0.220 -0.4267 -0.8468  1.3085
 9233TIP3   OH249189   1.470   3.106  13.859 -0.2277 -0.4554 -0.7498
 9233TIP3    H149190   1.451   3.035  13.921 -1.9706 -1.1752 -2.0424
 9233TIP3    H249191   1.393   3.162  13.862 -0.3098 -0.4629 -2.2179
 9234TIP3   OH249192   3.383   3.466  13.834  0.1971 -0.1590  0.4095
 9234TIP3    H149193   3.342   3.418  13.763 -0.3832  1.9281 -0.7545
 9234TIP3    H249194   3.325   3.454  13.909  0.5637 -1.9799  0.4396
 9235TIP3   OH249195   4.751   5.796  10.828 -0.5479  0.0110  0.2474
 9235TIP3    H149196   4.845   5.811  10.813 -0.3455 -0.6847  0.7899
 9235TIP3    H249197   4.715   5.784  10.740 -0.2600  0.9903 -0.0197
 9236TIP3   OH249198   6.089   2.848  16.897  0.5374  0.1210 -0.2050
 9236TIP3    H149199   6.133   2.857  16.813 -0.5482  0.0404 -0.8023
 9236TIP3    H249200   6.133   2.775  16.940  1.5903  0.6388 -0.3782
 9237TIP3   OH249201   2.292   0.254  15.641 -0.4523  0.3608 -0.1161
 9237TIP3    H149202   2.380   0.282  15.666  0.7966 -2.0544 -1.3794
 9237TIP3    H249203   2.301   0.228  15.549 -2.3459 -0.4859 -0.1083
 9238TIP3   OH249204   1.015   3.547   1.104  0.3879 -0.2982  0.3609
 9238TIP3    H149205   0.971   3.614   1.052 -1.2148  0.5161  2.6226
 9238TIP3    H249206   0.957   3.471   1.101  0.5547 -0.4324  0.5134
 9239TIP3   OH249207   5.148   2.376   0.899 -0.2556  0.1751 -1.0998
 9239TIP3    H149208   5.086   2.321   0.947 -0.3501 -1.3765 -2.8923
 9239TIP3    H249209   5.226   2.322   0.891  0.5109  1.2258 -0.8927
 9240TIP3   OH249210   0.099   0.491  13.572 -0.1117 -0.5701 -0.3685
 9240TIP3    H149211   0.166   0.424  13.552 -0.8911 -1.3381 -0.4683
 9240TIP3    H249212   0.072   0.472  13.662 -0.5021 -0.5451 -0.4779
 9241TIP3   OH249213   3.679   1.626   5.393  0.0884 -0.5597  0.5225
 9241TIP3    H149214   3.666   1.698   5.455 -1.4865  1.8270 -2.3109
 9241TIP3    H249215   3.746   1.658   5.333 -0.5862 -1.4703 -0.7657
 9242TIP3   OH249216   4.185   5.283   5.521  0.1565 -0.7510  0.2205
 9242TIP3    H149217   4.124   5.212   5.539 -0.7985  0.0855  0.3978
 9242TIP3    H249218   4.131   5.352   5.482  0.9896 -0.0007  0.3468
 9243TIP3   OH249219   3.581   1.567   2.567  0.2462  0.1807  0.0084
 9243TIP3    H149220   3.612   1.567   2.477  0.7921 -0.0694  0.1891
 9243TIP3    H249221   3.592   1.476   2.596 -0.7910  0.0520  0.0419
 9244TIP3   OH249222   4.113   1.772  13.904 -0.1406  0.0349  0.3608
 9244TIP3    H149223   4.049   1.701  13.899  2.4697 -2.5357  0.4739
 9244TIP3    H249224   4.107   1.805  13.993 -2.6729  1.3694 -0.2181
 9245TIP3   OH249225   0.106   0.822   4.772  0.5705  0.7020  0.2731
 9245TIP3    H149226   0.060   0.758   4.718  0.4988  1.0179 -0.0457
 9245TIP3    H249227   0.165   0.867   4.711  2.9932 -1.1967  1.0506
 9246TIP3   OH249228   0.332   1.406   1.124  0.1451 -0.3870  0.4554
 9246TIP3    H149229   0.298   1.457   1.198  1.1111 -1.2745  1.5641
 9246TIP3    H249230   0.426   1.404   1.137  0.4363  0.1797 -1.3356
 9247TIP3   OH249231   5.370   4.056   4.664 -0.1358 -0.5725  0.6769
 9247TIP3    H149232   5.451   4.040   4.615 -0.9483 -0.9587 -0.6044
 9247TIP3    H249233   5.345   4.145   4.641 -0.4413 -0.6998  0.5169
 9248TIP3   OH249234   0.637   5.816   6.345 -0.5517  0.9216 -0.2676
 9248TIP3    H149235   0.546   5.817   6.374 -0.2328 -1.3147  1.0633
 9248TIP3    H249236   0.637   5.756   6.270 -0.4619  2.4836 -1.5673
 9249TIP3   OH249237   1.204   5.913   1.135 -0.1132  0.4308 -0.3256
 9249TIP3    H149238   1.190   6.007   1.135 -1.6215  0.2440 -1.1137
 9249TIP3    H249239   1.133   5.879   1.189  1.2317 -0.1880  1.1375
 9250TIP3   OH249240   5.063   1.932  16.757 -0.0449  0.5250 -0.2419
 9250TIP3    H149241   5.125   1.912  16.687  0.9796  0.4205  0.6700
 9250TIP3    H249242   5.115   1.981  16.821 -1.6230  3.2112 -0.8373
 9251TIP3   OH249243   5.862   3.435   4.473 -0.4561 -0.1559 -0.0433
 9251TIP3    H149244   5.772   3.414   4.447  0.3200 -1.6215 -1.7358
 9251TIP3    H249245   5.877   3.383   4.552 -1.3328  0.7213  0.7223
 9252TIP3   OH249246   6.421   2.974  15.807 -0.2345 -0.1429  0.3446
 9252TIP3    H149247   6.327   2.989  15.799  0.1359  1.5664 -2.0268
 9252TIP3    H249248   6.461   3.049  15.763  2.1873 -2.1518 -1.1532
 9253TIP3   OH249249   2.742   1.308   5.456  0.7049  0.1767  0.6381
 9253TIP3    H149250   2.782   1.282   5.373  0.2482 -1.1198  0.7967
 9253TIP3    H249251   2.730   1.402   5.448  0.8007  0.0997 -0.7176
 9254TIP3   OH249252   1.341   5.587  12.229  0.0893  0.6005 -0.4252
 9254TIP3    H149253   1.434   5.572  12.212  0.3919  2.6116 -0.7815
 9254TIP3    H249254   1.321   5.670  12.185 -1.9456  0.1066 -0.5669
 9255TIP3   OH249255   0.822   2.576   5.325  0.0551  0.2499  0.1833
 9255TIP3    H149256   0.908   2.608   5.300  0.5147 -1.6184 -0.7455
 9255TIP3    H249257   0.765   2.603   5.253  0.2133 -0.0321 -0.0483
 9256TIP3   OH249258   1.791   3.088   3.276 -0.4982  0.2703  0.2070
 9256TIP3    H149259   1.705   3.129   3.282 -0.0448  1.9601 -2.5052
 9256TIP3    H249260   1.851   3.162   3.261  0.9263 -1.0709 -1.1539
 9257TIP3   OH249261   6.128   2.419   5.708  0.2854  0.1598  1.2500
 9257TIP3    H149262   6.116   2.362   5.632  1.0569  1.2891  0.2510
 9257TIP3    H249263   6.061   2.391   5.770 -1.7606  0.5908 -0.6698
 9258TIP3   OH249264   4.560   4.165  15.408  0.2797  0.4486 -0.9198
 9258TIP3    H149265   4.580   4.250  15.369 -0.5085 -0.2178 -2.8695
 9258TIP3    H249266   4.639   4.112  15.393  1.1303  1.0288  1.0901
 9259TIP3   OH249267   6.048   1.847  11.211  0.4926 -0.3916  0.7612
 9259TIP3    H149268   6.094   1.839  11.127 -0.8967  0.1662 -0.0949
 9259TIP3    H249269   5.995   1.926  11.201 -0.7372 -1.0776  1.6418
 9260TIP3   OH249270   1.086   2.790  14.640  0.0528  0.2832 -0.5020
 9260TIP3    H149271   1.163   2.819  14.591  0.2635  1.2772  0.3771
 9260TIP3    H249272   1.118   2.782  14.731 -0.4935 -0.8503 -0.3894
 9261TIP3   OH249273   4.936   0.521  10.870 -0.7521 -0.4395  0.1746
 9261TIP3    H149274   5.000   0.545  10.803  0.5394 -0.4036  1.3838
 9261TIP3    H249275   4.851   0.532  10.827  0.0481 -1.0750 -1.6614
 9262TIP3   OH249276   2.573   2.064   4.047  0.4473  0.2902 -0.9095
 9262TIP3    H149277   2.496   2.008   4.052  0.5298  0.2399 -0.0096
 9262TIP3    H249278   2.640   2.010   4.004  0.2671  0.0039 -0.8326
 9263TIP3   OH249279   5.221   6.684  11.707 -0.0476 -0.7695 -0.1265
 9263TIP3    H149280   5.153   6.721  11.764  1.9022  1.1003  1.1365
 9263TIP3    H249281   5.185   6.692  11.618 -1.0820  1.1744  0.4167
 9264TIP3   OH249282   1.021   4.335  14.747 -0.4662 -0.4793  0.3769
 9264TIP3    H149283   1.056   4.247  14.755  3.2550  0.5531 -1.9385
 9264TIP3    H249284   0.978   4.336  14.661 -0.2836  0.0090  0.2876
 9265TIP3   OH249285   4.500   6.730  16.659  0.5669  0.1542  0.1559
 9265TIP3    H149286   4.589   6.701  16.640  1.3206  2.5350 -0.1695
 9265TIP3    H249287   4.496   6.732  16.755  0.6088 -0.5908  0.1855
 9266TIP3   OH249288   6.079   5.934   5.755  0.3350  0.0020 -0.0038
 9266TIP3    H149289   6.016   5.965   5.820  0.2185 -0.3948  0.0778
 9266TIP3    H249290   6.058   5.983   5.676  0.0902  0.0574  0.0940
 9267TIP3   OH249291   2.550   6.802  17.149 -0.8600 -0.3852 -0.5655
 9267TIP3    H149292   2.505   6.719  17.131 -1.0163 -0.0184 -1.9738
 9267TIP3    H249293   2.481   6.867  17.153 -0.5159  0.2762 -3.3204
 9268TIP3   OH249294   3.216   2.194   3.004  0.0124 -0.3059  0.2170
 9268TIP3    H149295   3.279   2.150   3.060 -0.3447  1.1304  1.8523
 9268TIP3    H249296   3.266   2.265   2.963 -0.1811 -0.0625  0.3912
 9269TIP3   OH249297   1.579   3.500  13.790  0.4120  0.2742 -0.4907
 9269TIP3    H149298   1.607   3.588  13.816  1.2912 -0.3084  0.6717
 9269TIP3    H249299   1.486   3.497  13.812  0.7368  0.3984  1.0386
 9270TIP3   OH249300   2.964   1.529   5.640  0.2392 -0.1151  0.2227
 9270TIP3    H149301   2.993   1.479   5.564  0.7140 -1.2962  1.1565
 9270TIP3    H249302   2.891   1.582   5.607  0.3810 -0.6677 -1.0250
 9271TIP3   OH249303   6.704   6.555   5.442  0.5245 -0.3111  0.9234
 9271TIP3    H149304   6.630   6.584   5.389  1.0130 -1.0535 -0.1976
 9271TIP3    H249305   6.702   6.460   5.436  0.9203 -0.3863  1.8060
 9272TIP3   OH249306   5.777   0.685  14.881 -0.4546 -0.1557  0.5708
 9272TIP3    H149307   5.723   0.708  14.957  1.2537  1.9649  1.2625
 9272TIP3    H249308   5.865   0.714  14.905  0.1094  0.8449 -2.3106
 9273TIP3   OH249309   2.901   0.407  15.888  0.5803 -0.4607  0.0088
 9273TIP3    H149310   2.903   0.460  15.967 -0.2625 -0.1165 -0.1827
 9273TIP3    H249311   2.853   0.329  15.912  1.8973 -1.2076  0.3134
 9274TIP3   OH249312   1.823   6.487  15.396 -0.2754  0.0676 -0.3210
 9274TIP3    H149313   1.804   6.579  15.415 -0.8397 -0.7060  3.8027
 9274TIP3    H249314   1.907   6.471  15.439 -0.8738 -1.6771  0.2573
 9275TIP3   OH249315   1.200   0.116   1.947  0.0488  0.3153  0.2503
 9275TIP3    H149316   1.119   0.156   1.915  0.6529 -0.1175 -1.9808
 9275TIP3    H249317   1.254   0.190   1.974 -0.3882  0.7200  0.0231
 9276TIP3   OH249318   1.860   1.929   3.057 -0.0229  0.0698 -0.2507
 9276TIP3    H149319   1.868   1.835   3.075 -3.6719 -0.3003  0.1454
 9276TIP3    H249320   1.835   1.968   3.140  1.3005  1.4634 -0.4498
 9277TIP3   OH249321   1.024   2.833   4.448 -0.7417  0.0379  0.2806
 9277TIP3    H149322   0.981   2.772   4.508 -0.7161  0.4203  0.6957
 9277TIP3    H249323   1.089   2.878   4.502  0.0813 -0.4243 -0.3011
 9278TIP3   OH249324   6.646   0.471  10.975 -0.7998  0.5124  0.3376
 9278TIP3    H149325   6.572   0.447  10.919 -1.5896  2.1366  0.6399
 9278TIP3    H249326   6.651   0.400  11.039 -1.8610  0.1995  0.0892
 9279TIP3   OH249327   0.788   2.440   3.681  0.4991 -0.7951  0.3483
 9279TIP3    H149328   0.754   2.443   3.592 -2.2925 -2.6380  1.2149
 9279TIP3    H249329   0.772   2.528   3.716 -0.4385 -0.6982 -0.2919
 9280TIP3   OH249330   1.687   5.795   6.462 -0.6950  0.1406  0.4773
 9280TIP3    H149331   1.611   5.853   6.474  0.0716  1.0393  1.1829
 9280TIP3    H249332   1.762   5.853   6.474  0.1479 -0.2895 -2.1768
 9281TIP3   OH249333   2.740   3.679   5.944  0.1909 -0.8566 -0.6118
 9281TIP3    H149334   2.776   3.722   5.867  0.7004 -0.0969  0.0375
 9281TIP3    H249335   2.679   3.743   5.981  3.8046  1.1147  2.6149
 9282TIP3   OH249336   3.557   2.566   3.135  0.3025 -0.0701 -0.2402
 9282TIP3    H149337   3.645   2.565   3.173  0.5838 -0.1181 -0.8727
 9282TIP3    H249338   3.573   2.571   3.041 -0.3723 -0.3015 -0.3668
 9283TIP3   OH249339   0.807   6.803  15.761 -0.2732  0.8487  0.6010
 9283TIP3    H149340   0.776   6.808  15.852 -0.7198  0.9130  0.4446
 9283TIP3    H249341   0.731   6.826  15.708  0.2242  1.6881  0.2399
 9284TIP3   OH249342   3.818   4.584  12.643  0.8629 -0.5111  0.0888
 9284TIP3    H149343   3.788   4.500  12.609 -2.4743  0.6277 -0.1516
 9284TIP3    H249344   3.805   4.645  12.571  1.7289  0.5084  0.7609
 9285TIP3   OH249345   5.993   1.548  12.213  0.0337 -0.0375 -0.4958
 9285TIP3    H149346   5.993   1.637  12.177 -0.4218 -0.4632 -1.5710
 9285TIP3    H249347   5.931   1.500  12.159 -0.4120 -0.7948  0.6433
 9286TIP3   OH249348   5.731   6.092   2.918 -0.9268  0.0571  1.0775
 9286TIP3    H149349   5.703   6.162   2.977  0.9446  0.8362  1.0998
 9286TIP3    H249350   5.826   6.102   2.912 -0.9336 -0.7102 -1.1705
 9287TIP3   OH249351   2.642   2.336   3.963  0.5090 -0.4951  0.0864
 9287TIP3    H149352   2.568   2.327   3.903 -0.4876  0.1569  1.1730
 9287TIP3    H249353   2.636   2.260   4.021  0.7416 -0.4951  0.1112
 9288TIP3   OH249354   5.152   5.200  15.039 -0.1936 -0.1272 -0.4972
 9288TIP3    H149355   5.220   5.142  15.003  1.0831  0.3807  0.9594
 9288TIP3    H249356   5.201   5.271  15.080 -1.6802  0.9770 -0.5683
 9289TIP3   OH249357   1.509   4.758   3.546  0.2439 -0.0798 -0.2307
 9289TIP3    H149358   1.416   4.777   3.545  0.1868 -0.1934  1.1037
 9289TIP3    H249359   1.520   4.686   3.484 -0.2638  1.0801 -1.7240
 9290TIP3   OH249360   3.710   1.033  15.796 -0.2041 -0.2886  0.4199
 9290TIP3    H149361   3.709   0.994  15.884  1.2045  1.3379  1.2270
 9290TIP3    H249362   3.712   1.127  15.812  0.2601  0.0421 -1.3681
 9291TIP3   OH249363   6.630   0.649   2.549 -0.2663  0.6675 -0.1910
 9291TIP3    H149364   6.551   0.600   2.573  1.9638 -3.8942 -1.1598
 9291TIP3    H249365   6.692   0.632   2.620  0.8068  1.7994 -0.8103
 9292TIP3   OH249366   0.478   5.009  12.242  0.1644  0.3690 -0.0253
 9292TIP3    H149367   0.554   5.066  12.252  1.1294 -1.0093  0.6168
 9292TIP3    H249368   0.422   5.031  12.317  1.0308 -0.2669  0.8249
 9293TIP3   OH249369   5.402   0.476  14.192 -0.1375  0.4016 -0.4632
 9293TIP3    H149370   5.308   0.461  14.205 -0.0632  0.3573  0.0150
 9293TIP3    H249371   5.409   0.501  14.100 -0.7826  1.7370 -0.1781
 9294TIP3   OH249372   1.102   1.289   2.786 -0.2272 -0.5941 -0.0582
 9294TIP3    H149373   1.057   1.208   2.807  1.4240 -1.9226 -1.3345
 9294TIP3    H249374   1.167   1.264   2.720  0.0202  1.8599 -0.8431
 9295TIP3   OH249375   5.237   3.209  11.334 -0.0611  0.6755 -0.0102
 9295TIP3    H149376   5.244   3.128  11.386  1.4297  1.0561  0.4164
 9295TIP3    H249377   5.240   3.179  11.243  2.3962  0.3279  0.1193
 9296TIP3   OH249378   6.269   0.288   2.621 -0.2805 -0.0363  0.9541
 9296TIP3    H149379   6.173   0.292   2.625 -0.3655  0.5439 -0.6505
 9296TIP3    H249380   6.295   0.372   2.583  0.7003 -0.9256 -0.4449
 9297TIP3   OH249381   0.456   0.386  14.454 -0.4793 -0.1239 -0.3421
 9297TIP3    H149382   0.496   0.341  14.380 -2.2643 -1.9264 -0.2942
 9297TIP3    H249383   0.500   0.350  14.531 -0.1772  0.0799 -0.4193
 9298TIP3   OH249384   3.347   0.188   3.594 -0.1961  0.9432  0.8112
 9298TIP3    H149385   3.325   0.223   3.508 -0.1834 -0.9577  0.0008
 9298TIP3    H249386   3.363   0.266   3.648  4.9063  2.3872 -2.1033
 9299TIP3   OH249387   4.997   6.663  12.865 -0.0358  0.3603 -0.1443
 9299TIP3    H149388   5.072   6.712  12.831  0.0343  0.1038 -0.3636
 9299TIP3    H249389   5.000   6.678  12.960  1.1500 -0.7908  0.0391
 9300TIP3   OH249390   0.888   2.456  15.079  0.2464 -0.2651 -0.0997
 9300TIP3    H149391   0.922   2.542  15.055 -1.7539  0.6670  0.2530
 9300TIP3    H249392   0.920   2.443  15.169  0.7032  0.0227 -0.2165
 9301TIP3   OH249393   4.104   5.067   3.075 -0.1365 -0.0002  0.4870
 9301TIP3    H149394   4.197   5.089   3.068 -0.2937  0.4402 -0.2210
 9301TIP3    H249395   4.095   4.986   3.025 -0.5502  1.1694 -1.4287
 9302TIP3   OH249396   4.119   2.475   2.978  0.1826 -0.4219 -0.5779
 9302TIP3    H149397   4.062   2.485   3.055  0.2341  0.7136 -0.6631
 9302TIP3    H249398   4.066   2.427   2.915 -0.0532 -0.8944 -0.0320
 9303TIP3   OH249399   0.697   6.409   5.576  0.1264 -0.3573  0.2186
 9303TIP3    H149400   0.730   6.493   5.609  0.8828 -0.1736 -0.9625
 9303TIP3    H249401   0.775   6.361   5.551 -0.4137 -0.5259 -1.2055
 9304TIP3   OH249402   5.581   5.155  17.126  0.6487  0.1478  0.1579
 9304TIP3    H149403   5.503   5.104  17.143  1.5031 -0.8752  1.0905
 9304TIP3    H249404   5.622   5.113  17.050  0.7828  0.1029  0.2542
 9305TIP3   OH249405   0.101   3.184  11.629 -0.3727 -0.1689 -0.8153
 9305TIP3    H149406   0.151   3.257  11.666  1.2805 -0.8156 -1.6672
 9305TIP3    H249407   0.161   3.109  11.632 -1.0714 -0.8506 -2.4195
 9306TIP3   OH249408   6.288   2.597  13.567  0.3829 -0.3072  0.5725
 9306TIP3    H149409   6.239   2.679  13.565 -0.1029 -0.5913  0.4149
 9306TIP3    H249410   6.247   2.547  13.638  1.6374  0.1562  1.6647
 9307TIP3   OH249411   5.315   4.300   5.709  0.1276 -0.3183  0.8417
 9307TIP3    H149412   5.368   4.244   5.653  0.7909 -0.0272  1.1570
 9307TIP3    H249413   5.265   4.240   5.764 -2.1394 -0.6687 -1.4413
 9308TIP3   OH249414   2.803   1.148  14.693 -0.0668  0.1132  0.0166
 9308TIP3    H149415   2.735   1.091  14.657  1.2237 -2.1719  1.0284
 9308TIP3    H249416   2.768   1.177  14.777  0.2719 -1.2580  0.6494
 9309TIP3   OH249417   1.697   6.307  13.490  0.7863  0.1267  0.1566
 9309TIP3    H149418   1.782   6.313  13.445 -0.2634 -3.0531 -2.6623
 9309TIP3    H249419   1.642   6.370  13.444  0.7057 -0.4229 -0.5181
 9310TIP3   OH249420   5.661   0.921   4.897 -0.3034 -0.6108  0.0008
 9310TIP3    H149421   5.585   0.944   4.950  0.1365 -1.7820  1.2172
 9310TIP3    H249422   5.735   0.964   4.942 -0.2553  0.7575 -1.3298
 9311TIP3   OH249423   2.873   5.252   0.973 -0.9360 -0.3599 -0.2717
 9311TIP3    H149424   2.857   5.168   1.015 -0.6032 -1.5295 -2.3333
 9311TIP3    H249425   2.796   5.266   0.918 -0.1088 -0.3443 -1.4691
 9312TIP3   OH249426   6.211   3.099   0.159 -0.2971  0.1555 -0.5753
 9312TIP3    H149427   6.275   3.059   0.219  0.0355 -0.2924 -1.2246
 9312TIP3    H249428   6.205   3.038   0.086 -1.2559  0.3375 -0.6656
 9313TIP3   OH249429   5.672   3.610   4.124  0.3661  0.0492 -0.0847
 9313TIP3    H149430   5.627   3.603   4.208  1.4814  1.3600  0.6700
 9313TIP3    H249431   5.733   3.536   4.123  0.1775 -0.1098  0.1509
 9314TIP3   OH249432   4.910   3.268   2.170 -0.2099 -0.3185  0.0904
 9314TIP3    H149433   4.837   3.329   2.180 -0.0797 -0.0681 -0.4020
 9314TIP3    H249434   4.907   3.212   2.247  0.5511  1.2396  1.3138
 9315TIP3   OH249435   5.343   5.976   4.788 -0.1956 -0.6908  0.3317
 9315TIP3    H149436   5.324   6.015   4.873  1.7385  0.0210  0.4907
 9315TIP3    H249437   5.263   5.988   4.737  0.3263  4.0553  0.1951
 9316TIP3   OH249438   2.101   4.989   1.189 -0.0121 -0.1648 -0.3509
 9316TIP3    H149439   2.015   4.963   1.221 -0.3486  1.6963  0.4151
 9316TIP3    H249440   2.125   4.921   1.127 -1.3607 -1.5199  0.5253
 9317TIP3   OH249441   3.551   5.944  15.231 -0.6463 -0.2064 -0.8307
 9317TIP3    H149442   3.544   6.038  15.219  1.2012 -0.0538 -0.9918
 9317TIP3    H249443   3.620   5.917  15.170  0.2763 -1.3223  0.6247
 9318TIP3   OH249444   2.071   3.036  14.747 -0.2711 -0.0267 -0.1706
 9318TIP3    H149445   2.045   3.117  14.702  0.2997  1.6773  2.3637
 9318TIP3    H249446   2.156   3.015  14.709 -0.0329  1.0574 -0.2817
 9319TIP3   OH249447   1.083   1.149   6.019 -0.1047 -0.0032  0.1177
 9319TIP3    H149448   1.066   1.129   6.110 -2.9186  0.9188 -0.1081
 9319TIP3    H249449   1.140   1.227   6.022 -1.5395  1.0663  1.1604
 9320TIP3   OH249450   0.309   3.735  13.685 -0.2401 -0.2513 -0.0493
 9320TIP3    H149451   0.361   3.715  13.607 -0.8302 -2.0292 -0.0170
 9320TIP3    H249452   0.349   3.685  13.755 -0.0998  0.8447  0.6834
 9321TIP3   OH249453   2.672   0.964  12.252  0.1983 -0.1745 -0.2640
 9321TIP3    H149454   2.700   1.052  12.227 -0.3429 -0.0918 -0.6000
 9321TIP3    H249455   2.671   0.966  12.348 -0.1611  0.3029 -0.2734
 9322TIP3   OH249456   2.140   5.311  13.252  0.0033 -0.1782  0.1848
 9322TIP3    H149457   2.144   5.391  13.200 -0.1647 -1.8061 -2.4779
 9322TIP3    H249458   2.095   5.338  13.333 -0.2952  2.3224 -0.7265
 9323TIP3   OH249459   5.362   4.697  13.506 -0.0058 -0.2428  0.1985
 9323TIP3    H149460   5.296   4.766  13.512  0.1912  0.1129 -1.3197
 9323TIP3    H249461   5.435   4.729  13.560 -0.6191 -0.1338  0.9918
 9324TIP3   OH249462   3.008   5.251  11.377  0.1191 -0.1275 -0.1948
 9324TIP3    H149463   3.009   5.194  11.300 -1.0961  0.3144 -0.5563
 9324TIP3    H249464   3.052   5.331  11.347  1.6064 -0.7334  0.2424
 9325TIP3   OH249465   3.577   5.504   1.224 -0.2912  0.4715  0.1434
 9325TIP3    H149466   3.569   5.452   1.144  1.0228 -0.0087  0.2961
 9325TIP3    H249467   3.494   5.492   1.270 -0.0363 -1.4983  0.1591
 9326TIP3   OH249468   1.823   6.628   3.616  0.3884  0.7200  0.2420
 9326TIP3    H149469   1.889   6.628   3.548 -0.5617 -0.4402 -0.7180
 9326TIP3    H249470   1.864   6.583   3.690  1.2673  1.6010  0.3139
 9327TIP3   OH249471   0.529   1.918  12.907  0.3094  0.6721  0.6259
 9327TIP3    H149472   0.612   1.967  12.902  0.7527 -0.1591 -0.6293
 9327TIP3    H249473   0.525   1.887  12.997  1.4153  0.6581  0.6900
 9328TIP3   OH249474   1.864   5.943   3.618  0.0062  0.8053 -0.0498
 9328TIP3    H149475   1.787   5.925   3.563  0.0481  0.0526  0.1202
 9328TIP3    H249476   1.881   6.036   3.606 -0.7170  0.9047 -0.3702
 9329TIP3   OH249477   2.339   3.580   3.205 -0.2000  0.5158 -0.0417
 9329TIP3    H149478   2.348   3.528   3.125 -1.5142  1.0382 -0.5564
 9329TIP3    H249479   2.429   3.598   3.232  0.2864 -1.5253 -0.1651
 9330TIP3   OH249480   1.869   5.831  16.305 -0.1539 -0.3498 -0.5095
 9330TIP3    H149481   1.927   5.760  16.334  1.0010  0.1401 -1.5088
 9330TIP3    H249482   1.783   5.790  16.298 -0.3017 -0.7297  2.4535
 9331TIP3   OH249483   1.915   1.564  14.162  0.6750 -0.6602 -0.3629
 9331TIP3    H149484   1.982   1.606  14.215 -1.6277  0.5954  1.7303
 9331TIP3    H249485   1.955   1.555  14.075  3.3130  0.5021  0.6442
 9332TIP3   OH249486   4.509   0.614  14.119  0.0624 -0.0013  0.0455
 9332TIP3    H149487   4.523   0.545  14.184  0.4969  0.0881  0.0513
 9332TIP3    H249488   4.483   0.567  14.040  0.8314 -0.2189 -0.0874
 9333TIP3   OH249489   6.488   3.632  14.214  0.6638  0.0190 -0.4585
 9333TIP3    H149490   6.493   3.536  14.221 -0.4255 -0.2397 -2.4356
 9333TIP3    H249491   6.557   3.655  14.152  1.1156  0.5761  0.2320
 9334TIP3   OH249492   2.002   2.278  15.102  0.2249 -0.5980 -0.0223
 9334TIP3    H149493   1.973   2.360  15.063  0.8654 -0.5045 -0.3168
 9334TIP3    H249494   1.970   2.210  15.043  1.6838 -0.4272 -1.0592
 9335TIP3   OH249495   1.854   2.218  12.301  0.1978 -0.7450 -0.1821
 9335TIP3    H149496   1.897   2.251  12.221  2.5431  0.1524  1.3394
 9335TIP3    H249497   1.805   2.141  12.272 -0.5093  0.5638 -2.7888
 9336TIP3   OH249498   1.121   0.151  13.011 -0.5458 -0.3010  0.1730
 9336TIP3    H149499   1.188   0.090  12.980 -0.4681  0.3197 -0.9288
 9336TIP3    H249500   1.049   0.141  12.949 -0.0453  1.6039 -0.7875
 9337TIP3   OH249501   5.575   0.562   3.941 -0.4271 -0.2433  0.3296
 9337TIP3    H149502   5.550   0.472   3.924 -2.4231  0.5641 -1.5220
 9337TIP3    H249503   5.665   0.569   3.908 -0.0674 -1.6403  0.9543
 9338TIP3   OH249504   1.680   0.158  16.199  0.4492  0.0341  0.4214
 9338TIP3    H149505   1.646   0.073  16.228  2.7886 -1.3015 -0.5076
 9338TIP3    H249506   1.611   0.220  16.222 -0.4808 -1.7861  3.0530
 9339TIP3   OH249507   5.283   5.142  13.505 -0.3777  0.0423  0.5284
 9339TIP3    H149508   5.258   5.234  13.496 -0.3464 -0.1199 -2.1227
 9339TIP3    H249509   5.315   5.135  13.594 -2.4788  2.0614  1.5555
 9340TIP3   OH249510   3.841   2.744  17.051  0.5048 -0.3338  0.3844
 9340TIP3    H149511   3.779   2.771  16.983  0.3582 -0.8501  0.3125
 9340TIP3    H249512   3.832   2.811  17.119 -0.5001 -0.6852  0.6039
 9341TIP3   OH249513   4.915   2.724   6.130  0.0848 -0.3415  0.0728
 9341TIP3    H149514   4.900   2.647   6.074  2.2803 -0.7040 -0.1231
 9341TIP3    H249515   4.968   2.691   6.203  2.4759  1.1808 -0.8385
 9342TIP3   OH249516   0.808   6.298   1.452 -0.2882 -0.4614 -0.0969
 9342TIP3    H149517   0.754   6.345   1.515 -0.0156 -0.3562  0.0607
 9342TIP3    H249518   0.803   6.206   1.479 -1.9525 -0.7439 -1.2261
 9343TIP3   OH249519   6.180   3.576  12.075  0.1215 -0.3368  0.4432
 9343TIP3    H149520   6.119   3.650  12.072  1.1634  0.5100 -0.7770
 9343TIP3    H249521   6.138   3.513  12.135 -1.3096  0.7561  0.6504
 9344TIP3   OH249522   4.516   4.817  11.836  0.2129 -0.1045  0.1551
 9344TIP3    H149523   4.530   4.745  11.898 -0.2841 -1.4389 -1.2093
 9344TIP3    H249524   4.475   4.886  11.888 -2.2530 -1.9831  0.9346
 9345TIP3   OH249525   5.848   3.887   3.026 -0.3182 -0.4392  0.0213
 9345TIP3    H149526   5.876   3.814   2.971 -0.7243 -1.6688  1.4012
 9345TIP3    H249527   5.837   3.850   3.113  1.6883  1.7428  1.3140
 9346TIP3   OH249528   5.915   2.191  11.088 -0.4553 -0.2112  0.3632
 9346TIP3    H149529   5.828   2.230  11.085  0.1078  1.0215 -1.0385
 9346TIP3    H249530   5.916   2.129  11.015 -1.3278 -3.0251  2.5320
 9347TIP3   OH249531   3.691   4.165   2.581 -0.3087 -0.0406 -0.6043
 9347TIP3    H149532   3.630   4.210   2.522 -0.3867 -0.3741 -0.7805
 9347TIP3    H249533   3.691   4.218   2.660 -0.7837 -0.0008 -0.6275
 9348TIP3   OH249534   3.635   0.389   5.740 -0.2824 -0.4357  0.5265
 9348TIP3    H149535   3.724   0.400   5.772 -0.4716  2.9393  0.2515
 9348TIP3    H249536   3.644   0.337   5.660  1.6681  0.9628 -0.2402
 9349TIP3   OH249537   1.847   0.281   6.365  0.3597 -0.2119 -0.0077
 9349TIP3    H149538   1.875   0.218   6.431 -1.6711 -0.7789  0.3673
 9349TIP3    H249539   1.873   0.242   6.282  1.6657 -0.1555  0.3445
 9350TIP3   OH249540   4.488   0.760   4.879  0.2584  0.5097 -0.2685
 9350TIP3    H149541   4.458   0.845   4.848 -1.5179 -0.5284 -1.6069
 9350TIP3    H249542   4.569   0.778   4.926  0.0165  2.8951 -0.6728
 9351TIP3   OH249543   1.664   2.784   2.071 -0.3167 -0.2765  0.2570
 9351TIP3    H149544   1.751   2.746   2.056 -0.5152 -0.8003  0.4197
 9351TIP3    H249545   1.603   2.722   2.032 -0.4928  1.4934 -2.5047
 9352TIP3   OH249546   3.895   5.373   0.505 -0.0694 -0.6133  0.2070
 9352TIP3    H149547   3.837   5.401   0.434  2.1387 -0.2477 -1.5688
 9352TIP3    H249548   3.859   5.289   0.534 -1.0546 -0.7803 -1.3851
 9353TIP3   OH249549   3.387   2.156   2.157  0.3362  0.5860  0.6069
 9353TIP3    H149550   3.455   2.188   2.216  1.1216  1.5584 -0.7755
 9353TIP3    H249551   3.368   2.068   2.188  2.1835  0.3187  1.0724
 9354TIP3   OH249552   3.801   3.215  11.091  0.0588  0.8845 -0.9728
 9354TIP3    H149553   3.874   3.220  11.152  1.9248 -0.9717 -2.8771
 9354TIP3    H249554   3.767   3.126  11.102 -1.2867  1.3951 -0.8401
 9355TIP3   OH249555   6.353   6.804   5.164 -0.2037 -0.0154 -0.1074
 9355TIP3    H149556   6.426   6.857   5.131 -1.3428  1.3271 -0.6124
 9355TIP3    H249557   6.351   6.727   5.108  0.0894  0.5244 -0.8719
 9356TIP3   OH249558   6.483   6.558  13.775  0.1998 -0.2605  0.4818
 9356TIP3    H149559   6.543   6.597  13.712 -0.9433  1.5245  0.4420
 9356TIP3    H249560   6.436   6.632  13.813 -2.3542 -1.5941  0.1317
 9357TIP3   OH249561   2.340   5.581   3.790 -0.1506  0.5736  0.1090
 9357TIP3    H149562   2.245   5.590   3.786 -0.2162 -0.3433 -0.7983
 9357TIP3    H249563   2.364   5.539   3.708  0.8488 -0.7497  1.0239
 9358TIP3   OH249564   3.591   0.475  16.040 -0.0595  0.3070  0.4662
 9358TIP3    H149565   3.587   0.396  16.094 -0.6596  0.0808  0.1066
 9358TIP3    H249566   3.535   0.455  15.965  0.5534  0.7088 -0.1170
 9359TIP3   OH249567   2.379   2.385  14.749  0.3840  0.2392 -0.0939
 9359TIP3    H149568   2.315   2.376  14.678  1.3050  2.3404 -1.2764
 9359TIP3    H249569   2.327   2.409  14.825 -0.3195  1.6398 -0.9717
 9360TIP3   OH249570   5.575   0.552   0.045  0.3190 -0.1666 -0.1621
 9360TIP3    H149571   5.618   0.486  -0.009  0.2888 -0.7327  0.4918
 9360TIP3    H249572   5.647   0.604   0.081  0.4275 -0.7369  0.4531
 9361TIP3   OH249573   1.212   5.368  13.320 -0.5543 -0.6766 -0.1282
 9361TIP3    H149574   1.179   5.298  13.376 -1.3543  0.9502  1.5729
 9361TIP3    H249575   1.302   5.343  13.299 -0.7576 -2.0989  0.6145
 9362TIP3   OH249576   5.327   6.129   3.017  0.4498 -0.2304  0.2753
 9362TIP3    H149577   5.289   6.116   2.930 -1.6844 -0.8223  1.2130
 9362TIP3    H249578   5.394   6.061   3.024 -0.8052 -1.5837 -0.1841
 9363TIP3   OH249579   4.868   3.959  13.968 -0.5295 -0.2741 -0.5286
 9363TIP3    H149580   4.897   3.869  13.951  0.8085 -0.3212  1.6772
 9363TIP3    H249581   4.942   4.013  13.940 -0.3337 -0.0403  0.4202
 9364TIP3   OH249582   1.980   1.126   5.591 -0.4122 -0.1201 -0.1080
 9364TIP3    H149583   2.029   1.187   5.646  0.7053 -1.6628  0.6944
 9364TIP3    H249584   1.909   1.179   5.554 -0.0319  1.4332  1.2477
 9365TIP3   OH249585   0.476   1.815   4.206 -0.6159 -0.5651 -0.2398
 9365TIP3    H149586   0.418   1.786   4.135 -2.4990 -1.2807  1.4888
 9365TIP3    H249587   0.460   1.753   4.277 -2.0792  2.4599  2.3476
 9366TIP3   OH249588   4.279   5.749  10.586 -0.8843  0.1287  0.0761
 9366TIP3    H149589   4.283   5.817  10.653  1.7106 -0.1114  0.2834
 9366TIP3    H249590   4.239   5.793  10.510 -1.6792  1.0788  1.0163
 9367TIP3   OH249591   5.694   0.316  10.776  0.5190 -0.2019  0.2152
 9367TIP3    H149592   5.754   0.381  10.810 -1.0141  0.0368  2.7311
 9367TIP3    H249593   5.637   0.365  10.716  1.6027 -0.0647 -0.7519
 9368TIP3   OH249594   0.741   0.539   0.987  0.1731  0.1811  0.9135
 9368TIP3    H149595   0.790   0.619   1.004 -0.5651  0.8394  0.0147
 9368TIP3    H249596   0.650   0.562   1.006 -0.5213  0.5515 -2.2761
 9369TIP3   OH249597   5.465   5.003   5.284 -0.0209 -0.3705  0.1020
 9369TIP3    H149598   5.521   5.028   5.357  1.0433 -2.2643  0.0013
 9369TIP3    H249599   5.487   5.064   5.214  0.5166  0.1034  0.6747
 9370TIP3   OH249600   1.068   6.232   1.617  0.3162  0.3455  0.4227
 9370TIP3    H149601   1.095   6.147   1.652  2.5552  1.1258  0.8119
 9370TIP3    H249602   1.087   6.226   1.523 -0.0059  0.2376  0.3659
 9371TIP3   OH249603   5.841   0.062   5.983  0.2656  0.0987  0.0978
 9371TIP3    H149604   5.867   0.154   5.972  1.3485 -0.2579 -0.4959
 9371TIP3    H249605   5.899   0.014   5.925 -0.4637 -0.9503  0.2123
 9372TIP3   OH249606   3.077   0.124  12.699  1.1247  0.0998  0.1411
 9372TIP3    H149607   3.133   0.138  12.623  0.7870  1.3493  0.1115
 9372TIP3    H249608   3.128   0.157  12.773  0.8436  0.2726  0.2563
 9373TIP3   OH249609   0.336   3.569  14.619  0.1949 -0.0500  0.1467
 9373TIP3    H149610   0.316   3.654  14.659 -1.8881 -0.2306 -0.4021
 9373TIP3    H249611   0.361   3.513  14.692 -1.5717  0.1877  0.9747
 9374TIP3   OH249612   5.085   0.540  14.944 -0.2127 -0.0855 -0.4648
 9374TIP3    H149613   5.125   0.467  14.897 -0.1633 -0.5447  0.2589
 9374TIP3    H249614   5.096   0.516  15.037  0.3886  1.1504 -0.1989
 9375TIP3   OH249615   4.795   5.592  11.131 -0.1653  0.1157 -0.1635
 9375TIP3    H149616   4.793   5.522  11.067 -2.8241  0.5273 -0.6716
 9375TIP3    H249617   4.790   5.673  11.080 -3.4868  0.4298  0.4163
 9376TIP3   OH249618   2.172   4.299   1.495 -0.1556 -0.0240 -0.1016
 9376TIP3    H149619   2.107   4.237   1.462  1.2454 -1.0931 -0.9956
 9376TIP3    H249620   2.163   4.296   1.590 -1.8153  0.3354 -0.2258
 9377TIP3   OH249621   3.125   4.389  13.945 -0.4428 -0.4746  0.3753
 9377TIP3    H149622   3.177   4.395  13.865  0.3748 -0.8417  0.8648
 9377TIP3    H249623   3.123   4.479  13.979  0.3080 -0.5452  0.6188
 9378TIP3   OH249624   2.856   1.532   0.708  0.3990  0.7021 -0.2621
 9378TIP3    H149625   2.872   1.476   0.632 -0.8547 -0.2021  0.1054
 9378TIP3    H249626   2.904   1.490   0.780  1.1757  1.2777 -0.4403
 9379TIP3   OH249627   0.510   1.897   3.875  0.3745  0.4580 -0.3506
 9379TIP3    H149628   0.425   1.912   3.832 -0.4227  0.4509  1.1701
 9379TIP3    H249629   0.506   1.805   3.903  1.0907  0.3233 -0.6700
 9380TIP3   OH249630   1.083   6.027  13.700 -0.1262  0.4688 -0.3567
 9380TIP3    H149631   1.177   6.013  13.686 -0.2985 -0.1168 -0.9618
 9380TIP3    H249632   1.066   6.113  13.661  0.0623  0.3479 -0.7101
 9381TIP3   OH249633   0.115   6.427   3.271 -0.6275 -0.3943  0.1005
 9381TIP3    H149634   0.105   6.342   3.229 -1.0482 -0.9502  1.2713
 9381TIP3    H249635   0.047   6.482   3.232  0.7281 -0.0302 -1.9132
 9382TIP3   OH249636   5.009   3.309   4.412 -0.0602  0.0784  0.1481
 9382TIP3    H149637   5.092   3.355   4.404 -1.3967  2.6932  0.1996
 9382TIP3    H249638   4.982   3.291   4.322 -0.6284  1.6556 -0.0364
 9383TIP3   OH249639   5.520   4.026   2.834  0.1657  0.6577 -0.4739
 9383TIP3    H149640   5.600   4.002   2.788  0.6401  2.6474 -0.7513
 9383TIP3    H249641   5.549   4.082   2.906 -0.8125 -0.2940  0.7287
 9384TIP3   OH249642   4.748   3.820   5.906 -0.4481 -0.5967  0.7170
 9384TIP3    H149643   4.812   3.777   5.962  0.8427  0.7337  0.3358
 9384TIP3    H249644   4.724   3.753   5.841  0.7770 -1.0507  0.7054
 9385TIP3   OH249645   2.583   6.812   4.906  0.3863 -0.4086  0.4679
 9385TIP3    H149646   2.495   6.844   4.885  0.7638  2.1996  2.1994
 9385TIP3    H249647   2.596   6.735   4.852 -2.0472  0.5242 -1.6013
 9386TIP3   OH249648   2.786   6.434   1.244  0.2406  0.2918  0.4349
 9386TIP3    H149649   2.843   6.441   1.320  0.2784 -0.2691  0.4614
 9386TIP3    H249650   2.741   6.519   1.240 -1.1819 -0.2923  2.2215
 9387TIP3   OH249651   0.490   1.443   2.382 -0.3953  0.3711  0.2909
 9387TIP3    H149652   0.499   1.373   2.447 -3.2735 -0.9411 -0.5861
 9387TIP3    H249653   0.472   1.521   2.433 -1.4379 -0.4014  1.1433
 9388TIP3   OH249654   1.760   5.909   4.083 -0.5573 -0.0108  0.0656
 9388TIP3    H149655   1.808   5.945   4.157 -0.8573  1.5382 -0.4629
 9388TIP3    H249656   1.723   5.827   4.116 -0.0362  0.2590  1.3782
 9389TIP3   OH249657   1.035   2.187  17.083  0.0881  0.5366 -0.5838
 9389TIP3    H149658   1.126   2.189  17.113 -0.8031  0.7825  2.3986
 9389TIP3    H249659   1.010   2.095  17.087  0.0406  0.5284 -0.9684
 9390TIP3   OH249660   2.601   0.947   0.067  0.5569  0.1371  0.3045
 9390TIP3    H149661   2.556   0.872   0.028 -0.3211 -0.1399  1.7806
 9390TIP3    H249662   2.681   0.910   0.104 -0.1376 -0.2114  1.5158
 9391TIP3   OH249663   2.402   4.421  15.020  0.0696 -0.4450  0.3889
 9391TIP3    H149664   2.381   4.328  15.023  2.2422 -0.9895  0.4439
 9391TIP3    H249665   2.474   4.432  15.082  1.0440  0.9075 -0.9096
 9392TIP3   OH249666   6.485   0.534   0.155  0.6447  0.0895  0.4106
 9392TIP3    H149667   6.529   0.526   0.070  1.5273  1.8041  0.6552
 9392TIP3    H249668   6.536   0.600   0.202 -0.1061 -0.4861  2.1081
 9393TIP3   OH249669   2.989   6.065   3.877  0.5041 -0.0932 -0.5704
 9393TIP3    H149670   3.047   6.089   3.804 -0.2934 -1.2544 -1.6118
 9393TIP3    H249671   2.939   5.991   3.845 -0.7935  0.1866  0.7099
 9394TIP3   OH249672   0.721   6.219  12.987 -0.1758 -0.5438 -0.2185
 9394TIP3    H149673   0.775   6.274  12.930 -1.1047 -0.6450 -1.2180
 9394TIP3    H249674   0.770   6.216  13.070  1.3492 -0.6430 -1.0823
 9395TIP3   OH249675   4.255   1.120   2.273 -0.1038 -0.1136  0.1034
 9395TIP3    H149676   4.326   1.066   2.308 -0.9451 -0.0125  2.1104
 9395TIP3    H249677   4.193   1.058   2.236 -0.1052 -0.3852  0.5569
 9396TIP3   OH249678   4.800   3.209  16.088 -0.4063  0.2204 -0.3267
 9396TIP3    H149679   4.883   3.231  16.044 -0.1183 -0.6815 -0.2392
 9396TIP3    H249680   4.789   3.279  16.153 -0.1645  0.8336 -0.9303
 9397TIP3   OH249681   1.609   3.808  14.083 -0.4292 -0.4149 -0.0078
 9397TIP3    H149682   1.560   3.864  14.142 -0.9126 -0.6597 -0.1748
 9397TIP3    H249683   1.699   3.813  14.115 -0.3180  1.0533 -0.4872
 9398TIP3   OH249684   4.231   3.187   6.150 -0.1682 -0.8419 -0.0551
 9398TIP3    H149685   4.136   3.198   6.158 -0.1411  0.0549 -0.8250
 9398TIP3    H249686   4.253   3.230   6.067  1.0709 -0.0395  0.6645
 9399TIP3   OH249687   2.538   1.117   6.309  0.2982  0.3876 -0.4939
 9399TIP3    H149688   2.591   1.196   6.316  1.8009 -0.4941 -1.4018
 9399TIP3    H249689   2.469   1.129   6.374  0.3136  2.5502 -0.7923
 9400TIP3   OH249690   0.604   3.367  16.568  0.3253  0.5246 -1.2947
 9400TIP3    H149691   0.566   3.431  16.507  1.5837 -0.7914 -3.5952
 9400TIP3    H249692   0.537   3.299  16.575  0.1433  0.7183 -1.1381
 9401TIP3   OH249693   3.954   2.009   1.109  0.8423 -0.6125  0.1638
 9401TIP3    H149694   3.973   2.075   1.176  0.5621 -0.5219  0.1556
 9401TIP3    H249695   3.999   2.040   1.031  1.7441 -1.0702  0.4870
 9402TIP3   OH249696   5.535   6.090  13.135  0.4249 -0.0619 -0.0641
 9402TIP3    H149697   5.594   6.105  13.208  0.1210  1.6745 -0.1270
 9402TIP3    H249698   5.591   6.055  13.066  0.6605 -2.0066  1.0381
 9403TIP3   OH249699   1.879   2.023  17.129 -0.2491  0.6586  0.1384
 9403TIP3    H149700   1.876   1.982  17.042 -1.5981  1.9583 -0.4866
 9403TIP3    H249701   1.948   1.977  17.175  0.6394  0.0477 -1.6943
 9404TIP3   OH249702   4.544   2.811   3.335  0.3909 -0.6608 -0.3156
 9404TIP3    H149703   4.597   2.889   3.349  1.1124 -1.2914  0.6197
 9404TIP3    H249704   4.454   2.843   3.330  0.6903  0.2398 -0.0755
 9405TIP3   OH249705   2.711   6.186  11.875  0.3516 -0.3535 -0.6624
 9405TIP3    H149706   2.736   6.210  11.786  0.4517 -1.2966 -0.8964
 9405TIP3    H249707   2.662   6.104  11.865  0.9755 -0.8510  0.2139
 9406TIP3   OH249708   3.919   1.926  17.120  0.0793  0.3632  0.2727
 9406TIP3    H149709   3.867   1.914  17.041  1.0454 -0.5241 -0.2584
 9406TIP3    H249710   3.916   2.020  17.138  0.2123  0.6401 -1.0839
 9407TIP3   OH249711   5.985   5.390  13.032  0.2456  0.1663  0.1695
 9407TIP3    H149712   5.999   5.300  13.004 -0.5043  0.0514  0.1467
 9407TIP3    H249713   6.063   5.412  13.083  0.7209 -0.2805 -0.3538
 9408TIP3   OH249714   6.488   4.125  15.395  0.1662  0.0916  0.2444
 9408TIP3    H149715   6.413   4.171  15.433  0.0606  0.8029 -0.7859
 9408TIP3    H249716   6.564   4.178  15.417 -0.1302  1.7897 -2.3778
 9409TIP3   OH249717   4.673   5.871  15.379 -0.0352  0.1063 -0.2640
 9409TIP3    H149718   4.700   5.785  15.349  0.3506  0.3420 -0.6127
 9409TIP3    H249719   4.607   5.854  15.446 -1.4950 -0.4307 -1.7644
 9410TIP3   OH249720   3.647   2.690   3.590  0.1500  0.3251  1.0666
 9410TIP3    H149721   3.704   2.764   3.569  0.9894 -0.1165  1.7565
 9410TIP3    H249722   3.683   2.617   3.540  1.6972 -0.5492  3.3080
 9411TIP3   OH249723   1.604   5.086   1.352 -0.3412  0.0168  0.1800
 9411TIP3    H149724   1.665   5.159   1.362  0.5001 -0.6974  0.2648
 9411TIP3    H249725   1.608   5.039   1.435 -0.2630 -0.5961 -0.1663
 9412TIP3   OH249726   2.758   6.598   6.340 -0.3114 -0.8575  0.0245
 9412TIP3    H149727   2.824   6.600   6.409 -0.1116 -1.6496 -0.1303
 9412TIP3    H249728   2.724   6.687   6.336  1.1256 -0.3007 -0.2634
 9413TIP3   OH249729   1.661   6.672  16.762 -0.1455  0.3842  0.4503
 9413TIP3    H149730   1.657   6.697  16.854 -0.3081 -1.0530  0.8531
 9413TIP3    H249731   1.744   6.709  16.731  0.8517 -0.7169  1.6902
 9414TIP3   OH249732   4.742   5.947   4.878 -0.2470  0.3877  0.3104
 9414TIP3    H149733   4.727   6.001   4.955 -2.0382 -1.0315  1.0535
 9414TIP3    H249734   4.834   5.920   4.885  0.4812  2.6953  0.2762
 9415TIP3   OH249735   1.125   5.572  17.110 -0.3043 -0.4693 -0.2120
 9415TIP3    H149736   1.194   5.617  17.160 -0.5788  0.8137 -0.9659
 9415TIP3    H249737   1.044   5.617  17.135 -0.6994 -1.1140 -0.3259
 9416TIP3   OH249738   6.240   4.859  12.760  0.4930  0.4731 -0.3449
 9416TIP3    H149739   6.260   4.952  12.752 -0.3974  0.6107 -1.1705
 9416TIP3    H249740   6.158   4.855  12.809  1.1016  0.0470  0.6856
 9417TIP3   OH249741   2.974   0.613  13.321  0.3071  0.1921 -0.4754
 9417TIP3    H149742   3.057   0.645  13.286 -0.4458  1.8289 -0.8505
 9417TIP3    H249743   2.920   0.596  13.244  0.0304 -0.1405 -0.2117
 9418TIP3   OH249744   1.939   2.586  13.680  0.0352  0.1493 -0.0316
 9418TIP3    H149745   2.027   2.561  13.707  0.4300  1.3856 -0.1048
 9418TIP3    H249746   1.900   2.626  13.757  0.6215  2.2762 -0.7341
 9419TIP3   OH249747   6.463   5.194  10.895 -0.1165  0.2201 -0.1903
 9419TIP3    H149748   6.429   5.282  10.909 -0.2188  0.0832  0.4337
 9419TIP3    H249749   6.385   5.140  10.884 -0.1491 -0.1747  1.7194
 9420TIP3   OH249750   1.034   2.244   5.311  0.8334 -0.4399 -0.3351
 9420TIP3    H149751   1.051   2.255   5.217 -1.1368  1.7641 -0.5222
 9420TIP3    H249752   0.958   2.186   5.315  1.9743 -1.9930  0.0523
 9421TIP3   OH249753   5.296   3.398  14.991  0.0764 -0.1257 -0.1678
 9421TIP3    H149754   5.345   3.479  15.004 -0.7089  0.4156 -0.5336
 9421TIP3    H249755   5.321   3.343  15.065  2.5575 -0.5510 -1.2201
 9422TIP3   OH249756   5.325   0.344  12.687  0.3143  0.1216 -0.1091
 9422TIP3    H149757   5.299   0.412  12.749  0.3093 -0.2653  0.3202
 9422TIP3    H249758   5.254   0.341  12.623  0.6275  0.9734 -0.5091
 9423TIP3   OH249759   4.483   2.589  10.374  0.4672 -0.6415 -0.5154
 9423TIP3    H149760   4.499   2.513  10.318 -0.0838 -0.1892 -1.3064
 9423TIP3    H249761   4.388   2.592  10.385  0.4653  0.0650 -0.6898
 9424TIP3   OH249762   1.786   2.255  15.698 -0.1846 -0.1705 -0.2994
 9424TIP3    H149763   1.843   2.240  15.773 -1.5240 -0.0335  0.7852
 9424TIP3    H249764   1.836   2.313  15.641  0.8910 -0.3414  0.4286
 9425TIP3   OH249765   6.561   0.967  12.235 -0.0375 -0.0468  0.1480
 9425TIP3    H149766   6.556   0.880  12.276 -1.2922  0.5419  1.3262
 9425TIP3    H249767   6.473   0.981  12.199  1.0147 -0.5197 -2.8161
 9426TIP3   OH249768   3.865   6.066   0.130  0.1924  0.2286  0.2123
 9426TIP3    H149769   3.957   6.037   0.128  0.6226  1.5311  0.3726
 9426TIP3    H249770   3.869   6.158   0.156 -1.1049  0.5566 -0.6342
 9427TIP3   OH249771   0.957   1.074  13.151 -0.3397 -0.4952  0.1768
 9427TIP3    H149772   0.955   0.991  13.103  0.3594 -0.6231  0.3667
 9427TIP3    H249773   0.945   1.141  13.084 -1.0277 -0.7493  0.0363
 9428TIP3   OH249774   5.915   2.735  11.258 -0.0548  0.1123  0.1492
 9428TIP3    H149775   5.864   2.753  11.179 -0.1594 -0.0815  0.1726
 9428TIP3    H249776   5.950   2.647  11.245 -2.4160 -1.1407  1.5341
 9429TIP3   OH249777   6.065   1.335   0.378 -0.0023 -0.4854  0.0222
 9429TIP3    H149778   6.132   1.372   0.321  0.0315 -0.6863 -0.0719
 9429TIP3    H249779   6.071   1.385   0.459 -0.1345 -0.1136 -0.1978
 9430TIP3   OH249780   0.132   4.954   4.706  0.1798  0.0779  0.0705
 9430TIP3    H149781   0.090   4.877   4.745  0.7930 -0.6312 -0.6282
 9430TIP3    H249782   0.225   4.932   4.706  0.5943  1.6236  1.6155
 9431TIP3   OH249783   2.947   3.687   1.748  0.0886 -0.1352 -0.6093
 9431TIP3    H149784   3.024   3.700   1.693 -1.3475 -1.5804 -3.1876
 9431TIP3    H249785   2.929   3.594   1.743 -1.4002  0.0487  0.5539
 9432TIP3   OH249786   2.040   5.377   4.227 -0.2594  0.9837  0.3448
 9432TIP3    H149787   2.119   5.431   4.225  1.4197 -1.3304 -0.1179
 9432TIP3    H249788   2.056   5.315   4.298 -0.0821 -1.6259 -1.8165
 9433TIP3   OH249789   6.656   5.344  13.060  0.1572  0.4008  0.3612
 9433TIP3    H149790   6.716   5.418  13.053  0.1074  0.4126  0.0405
 9433TIP3    H249791   6.670   5.310  13.148  2.0074 -0.7660 -0.3191
 9434TIP3   OH249792   0.909   2.496  16.081 -0.4508 -0.1017 -0.3571
 9434TIP3    H149793   0.986   2.481  16.026 -1.1571 -1.9048 -0.9537
 9434TIP3    H249794   0.941   2.548  16.155  1.6054 -1.7894  0.0303
 9435TIP3   OH249795   2.814   2.545  14.986 -0.1994  1.1955  0.1052
 9435TIP3    H149796   2.725   2.579  14.990  0.0694  1.9117  0.0456
 9435TIP3    H249797   2.851   2.583  14.907 -0.2553 -0.1341 -0.5802
 9436TIP3   OH249798   2.623   2.584  14.567  0.1662  0.3752  0.0985
 9436TIP3    H149799   2.552   2.532  14.529  1.1274 -0.2468 -0.9323
 9436TIP3    H249800   2.658   2.633  14.493  1.2778  0.1047  0.4328
 9437TIP3   OH249801   5.925   3.783   2.323 -0.1462 -0.2217 -0.0862
 9437TIP3    H149802   5.905   3.783   2.417  0.5008 -1.7805  0.0853
 9437TIP3    H249803   5.880   3.860   2.289 -1.8267 -0.5756  1.2054
 9438TIP3   OH249804   5.304   0.259   3.243  0.2662  0.3477  0.3892
 9438TIP3    H149805   5.253   0.241   3.164 -1.0343 -1.9354  1.6291
 9438TIP3    H249806   5.384   0.300   3.212 -0.2142 -0.4785 -2.1205
 9439TIP3   OH249807   0.939   2.134   2.390  0.0907  0.3147  0.0403
 9439TIP3    H149808   0.903   2.152   2.476  0.4352 -0.3546  0.3283
 9439TIP3    H249809   0.867   2.095   2.340  0.1195 -0.0477  0.2817
 9440TIP3   OH249810   6.825   4.567  14.585  0.2148  0.0806 -0.0545
 9440TIP3    H149811   6.755   4.569  14.519  0.1069 -0.3322  0.0466
 9440TIP3    H249812   6.846   4.659  14.599 -0.8524  0.2639  0.4925
 9441TIP3   OH249813   5.028   2.825  16.671 -0.0238 -0.5668 -0.1384
 9441TIP3    H149814   4.986   2.783  16.746  1.0005 -0.1074  0.7100
 9441TIP3    H249815   5.045   2.914  16.699 -0.3027 -0.1626 -1.1955
 9442TIP3   OH249816   5.024   5.615  11.681 -0.3301  0.7773  0.5689
 9442TIP3    H149817   5.056   5.567  11.757 -0.6047  1.3886  1.0750
 9442TIP3    H249818   5.002   5.702  11.714  1.7187  1.8436 -0.6182
 9443TIP3   OH249819   5.910   2.467  13.865 -0.3206  0.0058 -0.4216
 9443TIP3    H149820   5.920   2.501  13.776 -0.0437  0.7532 -0.1147
 9443TIP3    H249821   5.819   2.484  13.887 -0.9508 -2.0021 -1.2798
 9444TIP3   OH249822   1.883   1.841   1.411  0.5159  0.1530 -0.9672
 9444TIP3    H149823   1.906   1.933   1.419  2.4231 -0.2609 -1.2004
 9444TIP3    H249824   1.829   1.836   1.333  2.5096  0.7656 -2.4560
 9445TIP3   OH249825   2.149   0.153   3.602  0.4577 -0.2878 -0.3249
 9445TIP3    H149826   2.212   0.173   3.533 -0.2771  1.7230 -0.4776
 9445TIP3    H249827   2.064   0.151   3.557  0.2353 -1.7873  0.0827
 9446TIP3   OH249828   3.897   5.713   0.958  0.0402 -0.0326 -0.2647
 9446TIP3    H149829   3.844   5.685   0.883 -0.1438  1.3412 -0.6740
 9446TIP3    H249830   3.836   5.713   1.032 -0.1415 -0.0051 -0.4129
 9447TIP3   OH249831   2.815   6.624  15.887 -0.3780 -0.4325 -0.1878
 9447TIP3    H149832   2.859   6.667  15.960 -0.3489 -3.8980  2.0668
 9447TIP3    H249833   2.725   6.611  15.918  0.2222 -4.1210  0.4672
 9448TIP3   OH249834   5.508   3.282  16.424  0.3111 -0.5210  0.5391
 9448TIP3    H149835   5.599   3.271  16.452  1.0489 -1.3050 -1.8461
 9448TIP3    H249836   5.490   3.375  16.436  1.4556 -0.3359  0.9657
 9449TIP3   OH249837   1.300   4.245  14.550  0.0797 -0.2502 -0.1308
 9449TIP3    H149838   1.384   4.273  14.586 -0.1313  0.4715 -0.1868
 9449TIP3    H249839   1.312   4.252  14.455 -0.0691 -0.0767 -0.1363
 9450TIP3   OH249840   4.828   2.234   1.657 -0.5026  0.1657 -0.0518
 9450TIP3    H149841   4.900   2.284   1.695 -0.2841 -0.3918  0.2969
 9450TIP3    H249842   4.856   2.217   1.567 -0.9629  1.3815 -0.4380
 9451TIP3   OH249843   1.535   5.789  10.450 -0.1755 -0.2934 -0.2337
 9451TIP3    H149844   1.519   5.696  10.461  2.5772 -0.7505  0.6196
 9451TIP3    H249845   1.628   5.800  10.470 -0.6984  2.8536  1.0391
 9452TIP3   OH249846   2.805   0.413   0.121 -0.2593  0.3690 -0.0338
 9452TIP3    H149847   2.888   0.383   0.085  0.5075  0.6494  1.4215
 9452TIP3    H249848   2.752   0.334   0.129  0.5427 -0.1118  0.7055
 9453TIP3   OH249849   1.777   1.816   1.959  0.4300 -0.2878  0.1113
 9453TIP3    H149850   1.706   1.875   1.981  1.4714  0.6041  1.1780
 9453TIP3    H249851   1.853   1.873   1.947  0.8796 -1.1629 -1.5049
 9454TIP3   OH249852   6.395   0.797   6.233  0.2683 -0.0374  0.6599
 9454TIP3    H149853   6.318   0.853   6.221  0.1033 -0.2888  0.5336
 9454TIP3    H249854   6.411   0.798   6.328  0.8628  1.0076  0.5596
 9455TIP3   OH249855   6.629   0.331   6.782  0.1200 -0.1401  0.0420
 9455TIP3    H149856   6.579   0.387   6.841 -1.6202  0.8272 -2.2178
 9455TIP3    H249857   6.671   0.392   6.722  2.1351 -1.0804  0.4110
 9456TIP3   OH249858   6.043   4.449   3.935  0.6587 -0.3487  0.1137
 9456TIP3    H149859   5.979   4.380   3.952  0.6305 -0.5629 -0.8263
 9456TIP3    H249860   6.096   4.415   3.863  1.1884  0.2547  0.2160
 9457TIP3   OH249861   1.940   2.391  13.398  0.2780  0.3753 -0.3584
 9457TIP3    H149862   1.988   2.382  13.481 -0.7841 -0.8791  0.1538
 9457TIP3    H249863   1.848   2.387  13.423 -0.0775  0.8821 -1.5215
 9458TIP3   OH249864   6.812   6.779  14.063 -0.1051  0.6621 -0.2264
 9458TIP3    H149865   6.903   6.756  14.042 -0.5667 -1.3335 -0.2458
 9458TIP3    H249866   6.790   6.848  14.001  1.5686  1.6259  0.1801
 9459TIP3   OH249867   3.485   3.237   6.691 -0.4273 -0.2259 -0.0357
 9459TIP3    H149868   3.410   3.271   6.643  1.0754 -1.3729 -3.5119
 9459TIP3    H249869   3.455   3.152   6.724 -0.4720 -1.1097 -2.2010
 9460TIP3   OH249870   5.645   2.827  17.055 -0.6260  0.3865  0.2029
 9460TIP3    H149871   5.557   2.859  17.035 -0.5962  0.3235 -0.0409
 9460TIP3    H249872   5.691   2.830  16.971 -0.6068 -0.2257  0.1806
 9461TIP3   OH249873   3.748   2.367   0.159  0.1405  0.0282 -0.4032
 9461TIP3    H149874   3.674   2.417   0.192  1.1958  0.6630  1.1155
 9461TIP3    H249875   3.766   2.405   0.073  0.5258  1.9168  0.4526
 9462TIP3   OH249876   1.950   1.595   0.588 -0.5300 -0.0196  0.1138
 9462TIP3    H149877   1.954   1.621   0.680  1.7946  0.2085 -0.0032
 9462TIP3    H249878   1.930   1.501   0.590  1.6776 -0.5150  0.9735
 9463TIP3   OH249879   6.270   4.543   2.500 -0.1402 -0.0123  0.2884
 9463TIP3    H149880   6.360   4.530   2.471  0.0193  2.3517 -0.5119
 9463TIP3    H249881   6.216   4.502   2.433  0.3203  1.0149 -0.7320
 9464TIP3   OH249882   1.657   5.849   4.533  0.1050 -0.0790  0.8297
 9464TIP3    H149883   1.673   5.940   4.559  0.1353 -0.1064  0.9068
 9464TIP3    H249884   1.564   5.847   4.512 -0.0627 -0.2070  1.5562
 9465TIP3   OH249885   1.554   2.389  16.629 -0.2011  0.0255 -0.4797
 9465TIP3    H149886   1.584   2.399  16.719 -1.6845  0.5185 -0.0013
 9465TIP3    H249887   1.473   2.338  16.637  0.6646 -1.6640 -1.7400
 9466TIP3   OH249888   2.657   6.658   4.090  0.3798 -0.3732 -0.3241
 9466TIP3    H149889   2.597   6.588   4.117 -1.8795  1.1913 -0.9270
 9466TIP3    H249890   2.654   6.721   4.162  0.1658  0.3649 -0.9660
 9467TIP3   OH249891   0.006   0.912   5.499 -0.2618  0.3659  0.2324
 9467TIP3    H149892  -0.055   0.843   5.472 -1.9487  0.9164  2.3615
 9467TIP3    H249893   0.083   0.864   5.529 -0.3664 -0.4426 -0.7083
 9468TIP3   OH249894   3.834   2.401  16.678  0.1946 -0.1043 -0.4197
 9468TIP3    H149895   3.896   2.423  16.608 -0.7017 -1.2157 -1.6160
 9468TIP3    H249896   3.849   2.468  16.745  3.5324 -0.9909 -0.0859
 9469TIP3   OH249897   4.685   2.878  12.611 -0.2406 -0.0923 -0.1675
 9469TIP3    H149898   4.779   2.859  12.616 -0.5027 -1.3200  0.4907
 9469TIP3    H249899   4.660   2.853  12.522 -0.0104 -0.0752 -0.2365
 9470TIP3   OH249900   4.011   0.123   1.753 -0.5786 -0.1893  0.3444
 9470TIP3    H149901   4.039   0.032   1.744  2.6936  0.7042  0.1892
 9470TIP3    H249902   3.965   0.142   1.672  1.2765 -0.9685 -0.9774
 9471TIP3   OH249903   0.445   1.604   2.584 -0.0688 -0.5043  0.0012
 9471TIP3    H149904   0.365   1.657   2.587 -0.3759 -0.9898  1.0683
 9471TIP3    H249905   0.427   1.532   2.644  0.8963 -1.0338 -0.3297
 9472TIP3   OH249906   3.749   2.132   3.090 -0.7887  0.3427  0.3525
 9472TIP3    H149907   3.807   2.063   3.122  1.8413  1.2913 -1.8960
 9472TIP3    H249908   3.705   2.093   3.014  0.0357  0.7797 -0.3813
 9473TIP3   OH249909   5.964   3.973  13.094  0.6225  0.0900  0.1434
 9473TIP3    H149910   5.981   4.050  13.148 -1.9062  0.7685  0.0852
 9473TIP3    H249911   5.927   4.008  13.013  1.1714 -1.1214 -0.6728
 9474TIP3   OH249912   6.010   3.333   0.757 -0.1564 -0.3876 -0.2910
 9474TIP3    H149913   5.935   3.305   0.705  0.1153 -0.1282 -0.8315
 9474TIP3    H249914   5.972   3.361   0.840 -1.0307  2.2919 -1.4727
 9475TIP3   OH249915   6.548   5.336  12.786 -0.2419 -0.1297  0.1464
 9475TIP3    H149916   6.599   5.255  12.776  0.8372  0.6070 -0.6457
 9475TIP3    H249917   6.571   5.368  12.873  0.4461  0.0285 -0.0789
 9476TIP3   OH249918   2.420   6.546   0.164  0.1955  0.3589 -0.6150
 9476TIP3    H149919   2.328   6.561   0.187 -0.3664 -0.9953 -1.7994
 9476TIP3    H249920   2.419   6.534   0.069  1.5532  0.0027 -0.6006
 9477TIP3   OH249921   5.560   4.056   1.478 -0.1281  0.3139  0.2882
 9477TIP3    H149922   5.526   4.088   1.395  0.5539 -1.2796 -0.6509
 9477TIP3    H249923   5.531   3.965   1.482 -0.2786  0.4085  1.8786
 9478TIP3   OH249924   3.414   1.190  14.297  0.4452  0.4013  0.6301
 9478TIP3    H149925   3.332   1.140  14.295  0.3503  0.5675 -0.6623
 9478TIP3    H249926   3.475   1.136  14.346  0.6881 -1.5545 -1.6711
 9479TIP3   OH249927   1.449   6.465   3.696 -0.4825  0.1760  0.4453
 9479TIP3    H149928   1.445   6.558   3.672  0.0839 -0.0000 -0.3380
 9479TIP3    H249929   1.458   6.466   3.792 -1.1323  0.9122  0.5119
 9480TIP3   OH249930   6.516   1.627   1.955  0.1072  0.0774  0.2372
 9480TIP3    H149931   6.453   1.649   2.024  1.0993 -0.4226  1.3457
 9480TIP3    H249932   6.496   1.535   1.934 -1.4547  0.7723 -1.5664
 9481TIP3   OH249933   5.058   1.440  16.115  0.9437  0.4986  0.0686
 9481TIP3    H149934   5.050   1.516  16.057  0.8280  0.0835 -0.4626
 9481TIP3    H249935   5.116   1.380  16.069  1.0174  0.2513  0.4762
 9482TIP3   OH249936   1.203   5.419  13.988 -0.6005  0.1306  0.6126
 9482TIP3    H149937   1.199   5.507  14.025 -1.5312  0.1750  0.4313
 9482TIP3    H249938   1.293   5.409  13.959 -0.6010  1.1994  0.2171
 9483TIP3   OH249939   2.959   1.468   2.529 -0.5379  0.9906  0.1350
 9483TIP3    H149940   2.903   1.480   2.606  0.6823  1.0542  1.0496
 9483TIP3    H249941   2.938   1.381   2.497 -2.3279  1.6309 -0.5508
 9484TIP3   OH249942   0.228   4.892  13.201 -0.3223 -0.2897  0.4195
 9484TIP3    H149943   0.173   4.850  13.135  0.5952 -1.0711  0.1243
 9484TIP3    H249944   0.283   4.953  13.152  1.8081 -2.3158  0.0545
 9485TIP3   OH249945   0.204   0.617  16.682  0.3378 -0.6795  0.1366
 9485TIP3    H149946   0.165   0.704  16.674  0.4887 -0.6219  0.0238
 9485TIP3    H249947   0.163   0.565  16.613 -1.0169 -1.1739  1.2702
 9486TIP3   OH249948   5.949   5.679  11.329 -0.4611  0.3539 -0.0566
 9486TIP3    H149949   5.911   5.592  11.314  0.5062 -0.1322  0.2184
 9486TIP3    H249950   6.012   5.665  11.400 -1.6623  1.6677  1.3259
 9487TIP3   OH249951   1.345   6.064  12.248  0.7633  0.3732 -0.3766
 9487TIP3    H149952   1.320   6.143  12.200  0.2432  0.6187  0.2820
 9487TIP3    H249953   1.437   6.051  12.225  0.2626 -0.1170 -2.2356
 9488TIP3   OH249954   1.564   1.093   6.504 -0.0071 -0.3813 -0.3264
 9488TIP3    H149955   1.533   1.061   6.419  0.3390 -0.7360 -0.3206
 9488TIP3    H249956   1.496   1.066   6.566  0.2468 -1.0442 -0.3322
 9489TIP3   OH249957   0.562   0.214  14.270 -0.0721 -0.2456  0.3487
 9489TIP3    H149958   0.535   0.123  14.259 -0.6020  0.0593 -1.1473
 9489TIP3    H249959   0.657   0.210  14.281 -0.2712 -1.0759  2.0802
 9490TIP3   OH249960   0.576   6.522   2.374 -0.4876  0.3329  0.5084
 9490TIP3    H149961   0.596   6.566   2.457 -0.1423  2.0275 -0.4386
 9490TIP3    H249962   0.660   6.521   2.328 -0.6749 -0.6286  0.1716
 9491TIP3   OH249963   1.524   4.350   1.831 -0.1605 -0.6004 -0.1055
 9491TIP3    H149964   1.539   4.264   1.791  0.7998 -0.7214  0.4841
 9491TIP3    H249965   1.435   4.374   1.804  0.0959 -1.1185 -1.4789
 9492TIP3   OH249966   2.228   3.993  14.425 -0.1538  0.2428  0.1212
 9492TIP3    H149967   2.142   4.035  14.432 -0.3548 -0.2392  0.5532
 9492TIP3    H249968   2.262   4.024  14.340 -0.3922  1.0833  0.3176
 9493TIP3   OH249969   0.482   4.765  14.344  0.3526  0.0550 -0.0141
 9493TIP3    H149970   0.470   4.798  14.433  1.9327  0.3757  0.1128
 9493TIP3    H249971   0.555   4.816  14.309  0.8829 -1.2423 -0.8793
 9494TIP3   OH249972   4.432   0.967   2.420  0.7256  0.9489 -1.1899
 9494TIP3    H149973   4.505   0.907   2.433 -0.8656 -0.7137  0.8849
 9494TIP3    H249974   4.359   0.926   2.466 -0.7546  4.0054 -0.5478
 9495TIP3   OH249975   6.791   4.575  13.620  0.1081  0.4297  0.2248
 9495TIP3    H149976   6.801   4.481  13.607  0.1191  0.0147  2.7789
 9495TIP3    H249977   6.858   4.614  13.564  2.1136 -1.2699  1.3069
 9496TIP3   OH249978   0.570   4.885  11.669  0.0623 -0.2108 -0.0888
 9496TIP3    H149979   0.596   4.797  11.641 -1.4889 -0.5817 -0.4617
 9496TIP3    H249980   0.561   4.879  11.764  1.1164 -0.1201  0.0253
 9497TIP3   OH249981   4.906   4.475  10.334  0.2741  0.2100 -0.5632
 9497TIP3    H149982   4.940   4.419  10.403  2.3891  0.4714 -1.3060
 9497TIP3    H249983   4.811   4.473  10.345  0.3145 -2.6563  0.0758
 9498TIP3   OH249984   1.371   2.218   2.176 -0.2482 -0.0959 -0.3011
 9498TIP3    H149985   1.304   2.285   2.192 -1.5651 -1.6157  0.8111
 9498TIP3    H249986   1.413   2.205   2.261  0.4556 -0.2335 -0.6602
 9499TIP3   OH249987   4.868   5.370   6.300  0.4201 -0.4220 -0.2353
 9499TIP3    H149988   4.936   5.303   6.305 -0.3548 -1.1472  1.4518
 9499TIP3    H249989   4.816   5.345   6.223 -0.2282 -2.1972  0.7208
 9500TIP3   OH249990   1.425   2.781   6.057  0.3078  0.2693  0.0789
 9500TIP3    H149991   1.398   2.855   6.112  0.3102  1.0389 -0.9218
 9500TIP3    H249992   1.473   2.821   5.985  1.3734 -0.8292  0.1566
 9501TIP3   OH249993   0.186   0.036   3.761  0.2016  0.1903 -0.1613
 9501TIP3    H149994   0.229  -0.010   3.689  0.5084  0.5159 -0.1853
 9501TIP3    H249995   0.180  -0.030   3.831 -2.9229 -1.1398 -1.4977
 9502TIP3   OH249996   4.525   5.456  12.912  0.2735  0.3051 -0.0199
 9502TIP3    H149997   4.440   5.422  12.941  0.0617  0.6245 -0.2602
 9502TIP3    H249998   4.571   5.476  12.994  0.2182 -0.1158  0.1150
 9503TIP3   OH249999   0.580   6.623   1.358  0.2894  0.3009 -0.3614
 9503TIP3    H150000   0.583   6.715   1.330  1.1364  0.5030  0.3631
 9503TIP3    H250001   0.656   6.613   1.415  0.6517 -1.0567 -1.0466
 9504TIP3   OH250002   3.189   6.491  10.277 -0.1082 -0.3438  0.0806
 9504TIP3    H150003   3.125   6.502  10.347  0.5934 -1.5649  0.9481
 9504TIP3    H250004   3.240   6.571  10.278  1.6326 -1.3668  2.8264
 9505TIP3   OH250005   5.157   4.685  12.544  0.0109 -0.2946 -0.0861
 9505TIP3    H150006   5.095   4.618  12.517  1.5216 -1.8698  0.2065
 9505TIP3    H250007   5.184   4.660  12.632 -0.4482  1.5266  0.6254
 9506TIP3   OH250008   2.713   3.168  16.662 -0.0070  0.2662  0.0833
 9506TIP3    H150009   2.760   3.224  16.725  0.0583  1.0114 -0.6094
 9506TIP3    H250010   2.714   3.081  16.702  0.2772  0.6673  0.9822
 9507TIP3   OH250011   5.841   3.510   6.007 -0.2443  0.3311 -0.0567
 9507TIP3    H150012   5.877   3.425   6.030 -0.4123  0.1107 -0.5965
 9507TIP3    H250013   5.747   3.502   6.025  0.1736  1.6125  3.5353
 9508TIP3   OH250014   6.426   4.744  12.617 -0.1375  0.1438  0.6255
 9508TIP3    H150015   6.434   4.779  12.529 -0.8017 -1.9178 -0.3244
 9508TIP3    H250016   6.362   4.801  12.660  1.1054  1.9067  0.2215
 9509TIP3   OH250017   4.404   6.110  16.152  0.1220  0.1815 -0.0911
 9509TIP3    H150018   4.483   6.062  16.177 -0.3905 -1.4906 -1.4419
 9509TIP3    H250019   4.367   6.059  16.079 -1.1539  1.9845 -0.7847
 9510TIP3   OH250020   0.195   1.517   4.838  0.0367 -0.3157  0.1732
 9510TIP3    H150021   0.203   1.450   4.906  0.0601 -1.1559 -0.6430
 9510TIP3    H250022   0.146   1.475   4.767 -0.9463  0.8837  0.0868
 9511TIP3   OH250023   0.169   5.916  13.640  0.1254 -0.1057 -0.1178
 9511TIP3    H150024   0.109   5.880  13.575 -1.5999  0.7622  0.9264
 9511TIP3    H250025   0.114   5.972  13.695  0.2234 -4.4308  5.2238
 9512TIP3   OH250026   0.082   2.015  11.836 -0.1671  0.4558 -0.5290
 9512TIP3    H150027   0.125   2.020  11.750 -0.7231 -0.6630 -0.8998
 9512TIP3    H250028   0.039   2.100  11.846 -0.6796  0.3658 -1.7027
 9513TIP3   OH250029   1.948   5.436  13.844  0.1382  0.4985 -0.2700
 9513TIP3    H150030   1.874   5.492  13.820  0.3307 -0.1187 -2.5130
 9513TIP3    H250031   1.913   5.347  13.841  1.0181  0.1617 -1.8206
 9514TIP3   OH250032   2.716   4.280  12.553  0.0308 -0.1937  0.0856
 9514TIP3    H150033   2.803   4.306  12.521 -0.9769  2.7203 -0.6167
 9514TIP3    H250034   2.685   4.215  12.490  1.3233 -0.5970 -0.1556
 9515TIP3   OH250035   3.515   3.623  11.126  0.1649  0.1289 -0.4193
 9515TIP3    H150036   3.594   3.617  11.073  1.8580 -2.7743  2.0728
 9515TIP3    H250037   3.540   3.680  11.200 -0.2683 -0.2859  0.0532
 9516TIP3   OH250038   2.285   5.745  16.577 -0.5186  0.7604  0.1410
 9516TIP3    H150039   2.214   5.717  16.519 -1.7108  2.5204  0.6901
 9516TIP3    H250040   2.244   5.754  16.663  0.5295  1.1477  0.6181
 9517TIP3   OH250041   5.589   5.747  16.767 -0.2170  0.9226 -0.2247
 9517TIP3    H150042   5.500   5.724  16.737 -0.3841  0.9244  0.2561
 9517TIP3    H250043   5.625   5.664  16.798 -1.0286  1.3532  2.0507
 9518TIP3   OH250044   3.809   6.830  14.457 -0.6953  0.4790 -0.5327
 9518TIP3    H150045   3.789   6.763  14.523 -2.7925 -0.6101 -2.1236
 9518TIP3    H250046   3.890   6.800  14.416 -0.0244  0.5297  0.7103
 9519TIP3   OH250047   3.675   4.298   1.583 -0.4807  0.0655  0.0033
 9519TIP3    H150048   3.593   4.337   1.611 -0.6158 -0.5101  0.4290
 9519TIP3    H250049   3.731   4.300   1.660 -0.8198 -1.4287  0.3303
 9520TIP3   OH250050   2.278   6.737   4.869 -0.2369 -0.1964 -0.4566
 9520TIP3    H150051   2.213   6.803   4.845  0.7551  1.0331  0.1349
 9520TIP3    H250052   2.236   6.688   4.940  0.0367  1.6069  1.0182
 9521TIP3   OH250053   0.323   2.474   1.561 -0.0477 -0.3257 -0.2419
 9521TIP3    H150054   0.350   2.517   1.642 -0.3667  0.5149 -0.5644
 9521TIP3    H250055   0.251   2.417   1.587 -0.7706  0.6371 -0.0667
 9522TIP3   OH250056   3.946   3.358  15.124 -0.1960  0.2175  0.1992
 9522TIP3    H150057   3.971   3.265  15.126 -1.5689 -0.2962 -2.1158
 9522TIP3    H250058   3.862   3.361  15.169 -0.7519  0.0808 -0.8040
 9523TIP3   OH250059   1.868   1.008  11.669  0.2789 -0.2714  0.6321
 9523TIP3    H150060   1.867   1.100  11.646 -1.0894 -0.0783  1.3564
 9523TIP3    H250061   1.936   1.000  11.736  0.7076  0.1071  0.2494
 9524TIP3   OH250062   3.602   3.775  16.879  0.2529 -0.2545  0.0419
 9524TIP3    H150063   3.624   3.768  16.786  1.1998 -0.0046  0.2331
 9524TIP3    H250064   3.546   3.852  16.884  0.6536  0.0661 -0.2583
 9525TIP3   OH250065   0.171   4.472  15.047  0.2209 -0.0476  0.2425
 9525TIP3    H150066   0.137   4.446  15.133 -0.8789 -0.7094 -0.3796
 9525TIP3    H250067   0.101   4.524  15.008  0.5453 -0.1020 -0.4277
 9526TIP3   OH250068   1.189   5.386  12.129  0.3735  0.2615 -0.2119
 9526TIP3    H150069   1.162   5.432  12.049 -0.6119  1.2983  0.6679
 9526TIP3    H250070   1.235   5.453  12.180  0.7117 -0.2992  0.2219
 9527TIP3   OH250071   2.603   5.696   3.588  0.3269 -0.5286  0.9027
 9527TIP3    H150072   2.584   5.603   3.579  0.5548 -0.4271 -1.1111
 9527TIP3    H250073   2.542   5.739   3.528  1.0802  0.4887  0.8432
 9528TIP3   OH250074   5.778   2.358  12.706 -0.3954  0.2281 -0.1055
 9528TIP3    H150075   5.811   2.269  12.701 -1.2671 -0.2198  1.5146
 9528TIP3    H250076   5.824   2.405  12.636  1.7415 -0.9432  0.4518
 9529TIP3   OH250077   4.508   5.698   6.143 -0.0820  0.1455  0.8123
 9529TIP3    H150078   4.579   5.763   6.147 -0.9857  1.1838  0.6237
 9529TIP3    H250079   4.483   5.686   6.235 -1.0237  1.3675  0.7422
 9530TIP3   OH250080   3.621   3.880  13.231  0.0209 -0.3686 -0.3672
 9530TIP3    H150081   3.681   3.820  13.276 -1.4522 -3.1921 -1.9700
 9530TIP3    H250082   3.599   3.945  13.298  1.8929 -1.4029  1.3776
 9531TIP3   OH250083   5.550   5.422   4.516 -0.6582  0.1121 -0.0701
 9531TIP3    H150084   5.459   5.401   4.495 -0.5532  0.2682 -0.6732
 9531TIP3    H250085   5.558   5.516   4.500 -0.7684  0.3860  1.3644
 9532TIP3   OH250086   4.217   6.586  10.744  0.0857  1.0476  0.3074
 9532TIP3    H150087   4.149   6.520  10.744 -0.2097  1.3273 -1.2353
 9532TIP3    H250088   4.172   6.668  10.763  0.6057  0.7477  3.4047
 9533TIP3   OH250089   0.113   3.065   3.489 -0.0790 -0.1898  0.6330
 9533TIP3    H150090   0.059   3.003   3.440  0.5844 -0.0947 -0.2374
 9533TIP3    H250091   0.125   3.024   3.575  1.4488 -1.9432 -0.3340
 9534TIP3   OH250092   4.208   1.359  14.843  0.3429 -0.3973 -0.1122
 9534TIP3    H150093   4.140   1.425  14.833  0.1743 -0.3662  1.0978
 9534TIP3    H250094   4.199   1.327  14.933 -0.7733 -3.4157 -1.1579
 9535TIP3   OH250095   0.581   1.088   3.548 -0.0698 -0.4789 -0.5730
 9535TIP3    H150096   0.499   1.136   3.543  0.7711  1.1099  0.1073
 9535TIP3    H250097   0.627   1.109   3.467  1.3541  1.9856  0.7663
 9536TIP3   OH250098   4.803   0.103  11.863  0.3468 -0.1097  0.5359
 9536TIP3    H150099   4.715   0.101  11.826  0.7085  0.7617 -0.4106
 9536TIP3    H250100   4.791   0.080  11.955 -0.8487 -0.1240  0.3917
 9537TIP3   OH250101   2.328   5.101  14.805  0.1731  0.3052 -0.2614
 9537TIP3    H150102   2.234   5.103  14.789 -0.0331 -0.5361  0.7438
 9537TIP3    H250103   2.351   5.192  14.823 -0.2689  0.6598 -1.3621
 9538TIP3   OH250104   1.216   2.926   0.009 -0.2964 -0.2048  0.2211
 9538TIP3    H150105   1.255   2.871  -0.059  0.0753  0.8200 -0.4264
 9538TIP3    H250106   1.256   2.895   0.090 -0.4930 -1.2243 -0.0611
 9539TIP3   OH250107   0.027   4.125  13.514 -0.5827 -0.0151  0.0463
 9539TIP3    H150108   0.021   4.085  13.428  1.2713 -1.0295  0.3406
 9539TIP3    H250109  -0.032   4.200  13.510  0.2751  0.6105 -2.4680
 9540TIP3   OH250110   4.626   1.794   5.416 -0.3349 -0.4491 -0.7841
 9540TIP3    H150111   4.671   1.875   5.391  1.9951 -1.7495 -1.1442
 9540TIP3    H250112   4.626   1.795   5.512  1.2765 -0.7649 -0.7432
 9541TIP3   OH250113   5.222   3.293  14.596 -0.1261 -0.2178 -0.5613
 9541TIP3    H150114   5.308   3.269  14.632 -0.9435 -0.3043  1.4618
 9541TIP3    H250115   5.185   3.210  14.567  0.3108 -0.2278 -1.1219
 9542TIP3   OH250116   1.934   3.031  15.543  0.7661  0.0218 -0.0095
 9542TIP3    H150117   1.926   3.004  15.451  0.5501  2.6130 -0.8619
 9542TIP3    H250118   1.865   3.097  15.554  0.7192 -0.3035  2.0695
 9543TIP3   OH250119   0.515   4.157  11.533  0.1096 -0.3411 -0.1719
 9543TIP3    H150120   0.441   4.135  11.477  0.1372 -1.2542  0.1239
 9543TIP3    H250121   0.481   4.223  11.593 -0.6346 -1.1245  0.3014
 9544TIP3   OH250122   4.543   3.220  13.736  0.2637  0.2215 -0.1614
 9544TIP3    H150123   4.515   3.302  13.695  2.4768  1.0450 -0.2043
 9544TIP3    H250124   4.524   3.152  13.672  0.9794  1.1023 -1.3388
 9545TIP3   OH250125   1.026   0.161   4.682  0.2225 -0.1383 -0.4805
 9545TIP3    H150126   0.985   0.247   4.689  1.5947  0.6081 -1.0474
 9545TIP3    H250127   1.048   0.137   4.772 -1.0928 -0.3898 -0.2148
 9546TIP3   OH250128   5.496   0.833   5.767  0.5118 -0.2788 -0.3222
 9546TIP3    H150129   5.569   0.894   5.757 -1.2536  2.3528  1.5968
 9546TIP3    H250130   5.532   0.758   5.815  1.8234  1.2833  1.2183
 9547TIP3   OH250131   5.263   1.016  13.736  0.0141 -0.3299  0.3827
 9547TIP3    H150132   5.278   1.023  13.830  0.7745 -0.3550  0.2721
 9547TIP3    H250133   5.337   1.063  13.696 -0.7871  0.4748 -0.1889
 9548TIP3   OH250134   5.783   2.166  16.139 -0.3101  0.1671 -0.1527
 9548TIP3    H150135   5.736   2.244  16.169  0.9065  0.8777 -0.0232
 9548TIP3    H250136   5.781   2.171  16.044  0.0673  0.5331 -0.1388
 9549TIP3   OH250137   5.212   3.895   5.200 -0.2938 -0.3294 -0.0025
 9549TIP3    H150138   5.280   3.952   5.165  0.0935  0.7234  2.2666
 9549TIP3    H250139   5.259   3.820   5.237 -0.4608 -0.1325  0.6140
 9550TIP3   OH250140   1.100   0.113   3.171  0.1852 -0.3435  0.5545
 9550TIP3    H150141   1.090   0.101   3.077 -2.7838  0.6750  0.6278
 9550TIP3    H250142   1.139   0.200   3.181 -2.3388  0.9432  0.1677
 9551TIP3   OH250143   3.383   4.738  11.470  0.3766  0.0329 -0.1526
 9551TIP3    H150144   3.301   4.701  11.437  0.0195 -1.1497  1.9295
 9551TIP3    H250145   3.379   4.830  11.444  0.3465 -0.7989 -3.6929
 9552TIP3   OH250146   1.781   3.175   0.948  0.1225  0.4480  0.4788
 9552TIP3    H150147   1.707   3.124   0.979  0.6198 -1.0257 -0.6182
 9552TIP3    H250148   1.857   3.135   0.990  0.4067  1.1491  0.6403
 9553TIP3   OH250149   1.345   1.033   1.132  0.0333  0.5119 -0.1437
 9553TIP3    H150150   1.397   1.077   1.199 -0.4962 -1.4459  1.6610
 9553TIP3    H250151   1.396   0.956   1.107 -1.2973 -0.6691  0.6192
 9554TIP3   OH250152   2.369   2.789   1.935  0.1736 -0.0198 -0.9328
 9554TIP3    H150153   2.315   2.852   1.888  0.1344  0.0488 -0.7983
 9554TIP3    H250154   2.322   2.774   2.017 -0.1165 -0.6717 -1.2151
 9555TIP3   OH250155   4.807   0.662  13.726 -1.1757  0.0679 -0.2632
 9555TIP3    H150156   4.796   0.655  13.821  0.3909 -1.4942 -0.1639
 9555TIP3    H250157   4.718   0.653  13.691 -1.6423 -0.4648  1.0033
 9556TIP3   OH250158   5.929   5.437   4.755 -0.7595  0.2054  0.0367
 9556TIP3    H150159   5.923   5.459   4.848 -0.1407  0.9259 -0.0830
 9556TIP3    H250160   5.848   5.471   4.717 -1.5370 -1.0835  0.4862
 9557TIP3   OH250161   3.249   5.031  15.696 -0.1738  0.0248 -0.2885
 9557TIP3    H150162   3.212   5.112  15.731  0.5631 -0.0527  0.6934
 9557TIP3    H250163   3.339   5.029  15.728 -0.5586 -1.8220  0.8149
 9558TIP3   OH250164   4.049   4.214  11.661  0.2439  0.0916 -0.5034
 9558TIP3    H150165   4.135   4.255  11.671  0.8141 -1.1508 -0.1255
 9558TIP3    H250166   4.043   4.194  11.568  1.8885 -2.8643 -0.1249
 9559TIP3   OH250167   0.332   2.330  11.667  0.2303 -0.5401 -0.3127
 9559TIP3    H150168   0.382   2.410  11.687  0.4691 -0.4392 -1.2866
 9559TIP3    H250169   0.282   2.352  11.589 -1.9720 -0.3854  1.0699
 9560TIP3   OH250170   5.044   3.969  13.249 -0.4016  0.7026  0.2288
 9560TIP3    H150171   4.978   3.978  13.318  0.1088 -1.5149  1.0958
 9560TIP3    H250172   5.124   3.943  13.296  0.5273  1.1679 -1.0193
 9561TIP3   OH250173   0.339   0.949   2.123  0.0724 -0.4517  0.3044
 9561TIP3    H150174   0.400   1.006   2.169 -1.5675  0.2501  1.7032
 9561TIP3    H250175   0.373   0.945   2.033  2.1142 -0.0712  1.0059
 9562TIP3   OH250176   3.160   1.448   0.813 -0.1832  0.2903 -0.1366
 9562TIP3    H150177   3.178   1.413   0.726  0.8572 -0.9949  0.5562
 9562TIP3    H250178   3.199   1.536   0.811 -1.2596  0.7791 -1.3312
 9563TIP3   OH250179   1.100   1.010   5.143 -0.2362  0.6255 -0.3151
 9563TIP3    H150180   1.052   0.940   5.187  0.9665 -1.3254 -1.9515
 9563TIP3    H250181   1.135   1.064   5.214 -1.0278 -0.5285  0.9994
 9564TIP3   OH250182   6.260   5.845  11.050 -0.0174 -0.2036  0.1560
 9564TIP3    H150183   6.273   5.750  11.053 -0.1119 -0.2251 -0.0311
 9564TIP3    H250184   6.213   5.859  10.967 -0.1898 -0.0164  0.2863
 9565TIP3   OH250185   2.388   2.495   0.319 -0.6330 -0.4916  0.4168
 9565TIP3    H150186   2.353   2.406   0.325  0.2045 -0.7200  2.7166
 9565TIP3    H250187   2.373   2.532   0.406  2.1520  0.4119  0.5921
 9566TIP3   OH250188   6.631   4.116   3.505  0.2329  0.0768  0.4089
 9566TIP3    H150189   6.622   4.150   3.594 -0.9581 -0.8277  0.6657
 9566TIP3    H250190   6.693   4.043   3.514 -1.0097 -0.9789  0.8209
 9567TIP3   OH250191   6.281   0.328   6.145 -0.0706  0.0198 -0.0214
 9567TIP3    H150192   6.203   0.313   6.090  0.4799  0.8444 -1.0734
 9567TIP3    H250193   6.285   0.252   6.203 -1.2647 -0.3738 -0.4249
 9568TIP3   OH250194   4.579   5.691  16.881  0.1460 -0.0808  0.4496
 9568TIP3    H150195   4.554   5.700  16.789  0.8824  2.1589  0.4082
 9568TIP3    H250196   4.560   5.600  16.902  0.3453 -0.7647 -2.0197
 9569TIP3   OH250197   3.212   2.119   4.691 -0.1102  0.7496  0.5351
 9569TIP3    H150198   3.138   2.099   4.633  0.3058 -0.1802  0.3152
 9569TIP3    H250199   3.177   2.106   4.779 -0.3907  0.9443  0.4541
 9570TIP3   OH250200   6.794   1.845   5.232 -0.2031  0.4957 -0.4585
 9570TIP3    H150201   6.822   1.841   5.140  1.5019 -0.9541  0.0595
 9570TIP3    H250202   6.709   1.801   5.233 -1.4202  2.6358 -1.6639
 9571TIP3   OH250203   4.787   0.952   1.242  0.4891  0.2820 -0.4968
 9571TIP3    H150204   4.801   0.994   1.157 -0.4479 -1.8178 -1.7769
 9571TIP3    H250205   4.769   1.024   1.301 -0.2586  1.7439 -2.3949
 9572TIP3   OH250206   5.311   3.090  16.757 -0.0377  0.1109 -0.2726
 9572TIP3    H150207   5.217   3.083  16.769 -0.0675 -0.6370 -0.8501
 9572TIP3    H250208   5.330   3.184  16.762 -0.7358  0.2191  0.3543
 9573TIP3   OH250209   3.954   0.727  12.188  0.4328  0.1800  0.4198
 9573TIP3    H150210   3.875   0.778  12.206  0.0999 -0.3370  0.4090
 9573TIP3    H250211   3.968   0.675  12.267 -0.1709 -0.9540 -0.2101
 9574TIP3   OH250212   4.292   1.013  13.911 -0.4559  0.2377 -0.2226
 9574TIP3    H150213   4.348   0.977  13.842  0.7722  3.4849 -1.1032
 9574TIP3    H250214   4.208   1.028  13.868 -0.2664  0.5202 -0.5007
 9575TIP3   OH250215   6.729   0.387  12.949  0.1551 -0.3647 -0.5735
 9575TIP3    H150216   6.820   0.362  12.934  0.2027 -1.8194  1.6175
 9575TIP3    H250217   6.733   0.473  12.990  0.5276 -0.2866 -0.7790
 9576TIP3   OH250218   6.712   2.212  13.851  0.2784  0.2137 -0.1101
 9576TIP3    H150219   6.765   2.195  13.773  2.4055  0.0075  1.3210
 9576TIP3    H250220   6.691   2.305  13.845 -1.0759 -0.1349 -1.7588
 9577TIP3   OH250221   2.312   0.691   3.911 -0.0030  0.0033 -0.3847
 9577TIP3    H150222   2.317   0.780   3.945 -1.6144  0.1409 -0.4359
 9577TIP3    H250223   2.374   0.641   3.965  3.8751  1.7947 -2.7535
 9578TIP3   OH250224   3.988   6.003  16.060  0.1922 -0.5346 -0.7339
 9578TIP3    H150225   4.070   5.998  16.109  0.4747  2.5561 -0.6893
 9578TIP3    H250226   3.923   6.030  16.125 -0.7766 -2.2519 -0.9211
 9579TIP3   OH250227   4.455   6.799   1.914 -0.2059 -0.7812  0.5475
 9579TIP3    H150228   4.496   6.714   1.926  0.3686 -0.7257 -0.8250
 9579TIP3    H250229   4.466   6.818   1.821 -2.1322 -0.1227  0.4147
 9580TIP3   OH250230   2.913   3.763   2.835  0.2202  0.1348  0.4001
 9580TIP3    H150231   2.855   3.696   2.800  0.7320 -0.8915  1.4432
 9580TIP3    H250232   2.880   3.845   2.798 -0.8478 -0.6015 -0.3510
 9581TIP3   OH250233   2.087   1.662  12.548  0.4641  0.3102  0.0712
 9581TIP3    H150234   2.124   1.723  12.612  0.9723 -0.3316  0.4089
 9581TIP3    H250235   2.068   1.583  12.599  1.5050 -0.4497 -0.6731
 9582TIP3   OH250236   0.422   6.306  12.563 -0.0542 -0.0848  0.1590
 9582TIP3    H150237   0.475   6.375  12.524  1.9024 -1.8285 -0.4790
 9582TIP3    H250238   0.411   6.242  12.493 -1.9576 -0.3624  0.6694
 9583TIP3   OH250239   6.335   2.201  11.187 -0.0329 -0.0620 -0.0397
 9583TIP3    H150240   6.400   2.188  11.117  0.8718 -1.5479  1.0208
 9583TIP3    H250241   6.328   2.296  11.196  1.2749  0.1338 -0.8488
 9584TIP3   OH250242   0.737   5.736  16.313 -0.4419  0.1396  0.2912
 9584TIP3    H150243   0.714   5.643  16.320  1.1997 -0.3422 -0.3431
 9584TIP3    H250244   0.731   5.755  16.220 -0.8107  0.6939  0.4227
 9585TIP3   OH250245   5.099   0.099   5.803 -0.0481  0.0194  0.1610
 9585TIP3    H150246   5.195   0.104   5.800 -0.0894  1.8699  0.5284
 9585TIP3    H250247   5.080   0.063   5.889  0.3117 -1.2581 -0.2731
 9586TIP3   OH250248   0.457   3.692  11.083 -0.4879 -0.4311 -0.2364
 9586TIP3    H150249   0.502   3.774  11.065  0.1570 -0.8243 -0.4353
 9586TIP3    H250250   0.520   3.639  11.130  0.4932 -2.2055 -3.2532
 9587TIP3   OH250251   6.507   2.529   4.624 -0.4302 -0.3849 -0.1070
 9587TIP3    H150252   6.529   2.454   4.681  0.9481  1.0072  1.3007
 9587TIP3    H250253   6.591   2.572   4.608 -1.2598  1.1727 -0.4286
 9588TIP3   OH250254   1.810   2.117   4.903  0.6726  0.4159 -0.0217
 9588TIP3    H150255   1.904   2.119   4.924  0.3677  2.3165  1.4136
 9588TIP3    H250256   1.774   2.053   4.964  0.7861  1.0526  0.7344
 9589TIP3   OH250257   6.150   5.888  15.824  0.2423  0.0331 -0.4800
 9589TIP3    H150258   6.134   5.805  15.778  0.5653 -1.1960  1.4917
 9589TIP3    H250259   6.218   5.867  15.888 -0.5246  1.5002  0.8893
 9590TIP3   OH250260   1.754   6.751   3.042  0.0745 -0.1080 -0.1344
 9590TIP3    H150261   1.823   6.769   3.106 -0.6610  0.7410  0.4409
 9590TIP3    H250262   1.757   6.656   3.030  0.4117 -0.2492  0.9563
 9591TIP3   OH250263   1.273   6.146  10.707  0.1325 -0.1155 -0.3960
 9591TIP3    H150264   1.312   6.112  10.627  1.1427  1.0648 -0.4294
 9591TIP3    H250265   1.347   6.176  10.760 -0.5172 -0.8494  0.9861
 9592TIP3   OH250266   1.695   0.055   4.209 -0.2470 -0.1557 -0.0223
 9592TIP3    H150267   1.756   0.009   4.266 -3.1745 -1.3249  2.3995
 9592TIP3    H250268   1.703   0.011   4.125  2.6724  0.2529 -0.0871
 9593TIP3   OH250269   0.235   5.595  14.348  0.3275  0.5464 -0.2218
 9593TIP3    H150270   0.153   5.638  14.375 -1.0473 -1.0896 -1.5554
 9593TIP3    H250271   0.222   5.575  14.256  1.4623 -1.4069 -0.0033
 9594TIP3   OH250272   1.167   1.858  13.510 -0.1062  0.1223  0.2215
 9594TIP3    H150273   1.251   1.822  13.482  0.7725 -0.5664  3.3057
 9594TIP3    H250274   1.102   1.796  13.477  0.9999 -1.7095  1.2688
 9595TIP3   OH250275   4.034   3.047   6.430 -0.6685 -0.5746 -0.1144
 9595TIP3    H150276   4.070   2.973   6.382  0.9330 -0.4275  0.7939
 9595TIP3    H250277   4.016   3.113   6.363  0.4999 -0.7759 -0.6443
 9596TIP3   OH250278   6.214   2.030  12.280  0.3227 -0.1512  0.2692
 9596TIP3    H150279   6.290   2.030  12.338  0.7127 -1.9581 -0.1559
 9596TIP3    H250280   6.240   1.971  12.209 -0.7084  0.8471 -0.9618
 9597TIP3   OH250281   4.776   0.913   0.657  0.5749  0.4209  0.0003
 9597TIP3    H150282   4.682   0.920   0.677  0.3969  0.4077 -0.8177
 9597TIP3    H250283   4.808   1.003   0.662  0.2865  0.5746 -0.8299
 9598TIP3   OH250284   2.504   2.988   6.178 -0.2113 -0.1298 -0.4104
 9598TIP3    H150285   2.588   2.967   6.137  0.6283  0.6703  0.8265
 9598TIP3    H250286   2.438   2.966   6.111  0.8937 -1.7179 -1.0439
 9599TIP3   OH250287   2.740   2.025   4.637 -0.6126  0.5969  0.0013
 9599TIP3    H150288   2.700   1.972   4.569  0.7922  1.1122 -1.2841
 9599TIP3    H250289   2.668   2.050   4.695 -1.4722 -1.8438  0.0942
 9600TIP3   OH250290   2.126   2.018  10.977  0.3152 -0.3076  0.2218
 9600TIP3    H150291   2.102   2.055  10.892  0.1590  2.1360  1.2454
 9600TIP3    H250292   2.048   1.968  11.004 -0.0489 -0.1909 -0.5691
 9601TIP3   OH250293   6.712   5.624  16.104 -0.2654  0.4475 -0.9108
 9601TIP3    H150294   6.781   5.649  16.043  0.6439 -0.8056 -0.4603
 9601TIP3    H250295   6.668   5.550  16.062  0.4415 -0.4970 -0.0517
 9602TIP3   OH250296   0.706   1.415   5.877 -0.0189  0.1995 -0.0197
 9602TIP3    H150297   0.779   1.476   5.861 -1.3865  1.8034 -0.4456
 9602TIP3    H250298   0.627   1.468   5.866 -1.2835 -1.5006  0.3499
 9603TIP3   OH250299   5.749   3.914  16.071  0.0176  0.1216 -0.1418
 9603TIP3    H150300   5.661   3.925  16.106  0.1165 -1.6045  0.7393
 9603TIP3    H250301   5.807   3.919  16.147  0.3964 -1.7723 -0.2509
 9604TIP3   OH250302   1.534   1.347   2.926 -0.1815  0.3810 -0.5028
 9604TIP3    H150303   1.484   1.265   2.919 -1.3009  1.0080 -0.1276
 9604TIP3    H250304   1.505   1.385   3.009 -0.8022  1.8753 -1.3655
 9605TIP3   OH250305   6.033   4.416  12.718 -0.1411  0.0677 -0.9164
 9605TIP3    H150306   6.015   4.429  12.625  1.3271  0.7019 -1.1336
 9605TIP3    H250307   6.108   4.356  12.720 -0.4252 -0.2782 -0.1217
 9606TIP3   OH250308   5.168   0.396  13.909 -0.0044 -0.2923  0.0194
 9606TIP3    H150309   5.170   0.386  14.004  1.0605  0.0412  0.0470
 9606TIP3    H250310   5.112   0.472  13.894 -1.3591 -1.2197  0.2826
 9607TIP3   OH250311   4.811   1.563  12.788 -0.1740  0.0450  0.0178
 9607TIP3    H150312   4.807   1.638  12.729 -3.9777  0.3732  0.4170
 9607TIP3    H250313   4.729   1.516  12.772 -1.0356 -0.3454  4.3565
 9608TIP3   OH250314   2.039   2.707   2.102 -0.1974 -0.0773  0.4528
 9608TIP3    H150315   2.044   2.671   2.014 -1.2094 -0.0657  0.3808
 9608TIP3    H250316   2.019   2.632   2.159 -0.5512  0.0722  0.5317
 9609TIP3   OH250317   3.824   1.851  14.157  0.2945  1.0699 -0.1761
 9609TIP3    H150318   3.807   1.941  14.184 -0.9905  0.7504  0.1246
 9609TIP3    H250319   3.911   1.832  14.192  0.0685  1.7828  0.8086
 9610TIP3   OH250320   3.420   1.426  12.899 -0.5125  0.0995 -0.3396
 9610TIP3    H150321   3.374   1.347  12.872  0.1195  0.1745 -1.7006
 9610TIP3    H250322   3.354   1.495  12.896 -0.7368 -0.1231 -0.5320
 9611TIP3   OH250323   3.145   4.706  11.660 -0.2386 -0.3235 -0.3006
 9611TIP3    H150324   3.171   4.794  11.632 -0.5509  0.2677  1.2041
 9611TIP3    H250325   3.171   4.701  11.752 -0.4956 -1.7039 -0.2816
 9612TIP3   OH250326   0.445   1.685   0.239  0.0791  0.3178  0.4412
 9612TIP3    H150327   0.507   1.619   0.268  0.0199  0.3746  0.6960
 9612TIP3    H250328   0.451   1.683   0.143 -0.8883 -0.9980  0.3841
 9613TIP3   OH250329   6.325   5.049  11.490  0.0227  0.4704  0.4539
 9613TIP3    H150330   6.316   4.958  11.462 -0.6944  0.8035 -0.4274
 9613TIP3    H250331   6.262   5.059  11.561  0.9047 -0.0112  1.3364
 9614TIP3   OH250332   5.026   4.807   5.206  0.2081  0.1510  0.2778
 9614TIP3    H150333   4.965   4.744   5.169 -0.4989 -0.4721  2.3817
 9614TIP3    H250334   4.979   4.845   5.281  1.1020  2.2399 -0.1471
 9615TIP3   OH250335   0.396   6.733  11.782  0.0209  0.4036 -0.1758
 9615TIP3    H150336   0.433   6.790  11.715 -1.6369  0.1394 -1.3722
 9615TIP3    H250337   0.319   6.694  11.741  0.0650 -1.2912  1.2319
 9616TIP3   OH250338   3.327   0.362   3.400 -0.1637 -0.3404  0.1884
 9616TIP3    H150339   3.419   0.348   3.375  0.0585  0.3706  0.5624
 9616TIP3    H250340   3.320   0.457   3.410 -1.5169 -0.1326 -2.0720
 9617TIP3   OH250341   4.344   2.172   2.955 -0.3335  0.6258 -0.7999
 9617TIP3    H150342   4.271   2.199   2.899  0.7430 -0.3394 -2.7911
 9617TIP3    H250343   4.408   2.242   2.944  0.2532 -0.0080 -1.5829
 9618TIP3   OH250344   1.914   5.254   2.793 -0.1028  0.2672 -0.0443
 9618TIP3    H150345   1.976   5.293   2.732  0.2884  0.4930  0.4856
 9618TIP3    H250346   1.940   5.288   2.879  0.1803 -1.0521  0.4215
 9619TIP3   OH250347   4.476   3.791  15.420  0.1294  0.1119 -0.1813
 9619TIP3    H150348   4.529   3.833  15.351  0.3301  0.5913  0.2620
 9619TIP3    H250349   4.393   3.839  15.418 -0.6052 -1.1266 -1.3911
 9620TIP3   OH250350   5.989   0.152   4.961  0.4845 -0.1654 -0.3943
 9620TIP3    H150351   5.981   0.235   5.008 -0.4497 -0.6591  0.3443
 9620TIP3    H250352   5.901   0.134   4.929  0.4253 -1.4330  0.4226
 9621TIP3   OH250353   3.548   2.392  16.906 -1.0952  0.1384  0.4276
 9621TIP3    H150354   3.545   2.297  16.895 -0.7747 -0.1361  2.2789
 9621TIP3    H250355   3.640   2.411  16.923 -0.9652  0.9548 -1.0798
 9622TIP3   OH250356   3.292   2.606   2.920  0.4421 -0.0982  0.2075
 9622TIP3    H150357   3.305   2.693   2.881  2.0209  0.7530  2.4263
 9622TIP3    H250358   3.197   2.595   2.924  0.1603  2.0648  0.9008
 9623TIP3   OH250359   0.228   3.327  11.920  0.2799 -0.0982  0.1217
 9623TIP3    H150360   0.233   3.380  11.841  0.5826 -0.7487 -0.2981
 9623TIP3    H250361   0.302   3.268  11.915  1.1234  0.7550  1.5703
 9624TIP3   OH250362   2.598   5.977  14.610  0.0250 -0.2781  0.1304
 9624TIP3    H150363   2.505   5.974  14.589 -0.2053  1.3840  0.7737
 9624TIP3    H250364   2.642   5.986  14.525 -0.5131  0.5298 -0.0754
 9625TIP3   OH250365   0.031   2.173   5.036  0.4396 -0.2762 -0.0797
 9625TIP3    H150366   0.016   2.169   4.942 -0.6651 -0.4049  0.0776
 9625TIP3    H250367   0.065   2.261   5.052 -0.2289  0.0663 -0.4978
 9626TIP3   OH250368   5.011   0.905   2.112  0.0116 -0.2582  0.2439
 9626TIP3    H150369   5.002   0.853   2.032 -1.6378  0.5204 -0.1219
 9626TIP3    H250370   5.072   0.975   2.089  0.1721 -0.4958 -0.0610
 9627TIP3   OH250371   6.195   0.926   3.021  0.0483 -0.1882  0.3947
 9627TIP3    H150372   6.231   0.862   2.958 -0.8367  1.4274 -1.9026
 9627TIP3    H250373   6.100   0.922   3.007 -0.1819  0.1903  1.7307
 9628TIP3   OH250374   2.961   0.865   4.669 -0.3863 -0.2242 -0.2010
 9628TIP3    H150375   2.934   0.950   4.703  2.9087  0.8570  0.1371
 9628TIP3    H250376   3.041   0.845   4.718 -0.7847 -3.3059 -0.6550
 9629TIP3   OH250377   5.650   0.877  15.900 -0.4161 -0.1314 -0.2115
 9629TIP3    H150378   5.578   0.822  15.931 -1.8829  2.7670  1.9379
 9629TIP3    H250379   5.721   0.862  15.962 -1.5290  1.7697  1.6266
 9630TIP3   OH250380   0.505   0.707   0.957 -0.4541 -0.3226 -0.1532
 9630TIP3    H150381   0.470   0.783   1.004  0.9156  1.1176 -1.3393
 9630TIP3    H250382   0.443   0.692   0.885 -0.7535 -0.3648  0.1140
 9631TIP3   OH250383   3.144   0.731   1.822 -0.3344  0.0012 -0.1196
 9631TIP3    H150384   3.075   0.742   1.887  1.5437  0.2878  1.9722
 9631TIP3    H250385   3.174   0.820   1.804 -0.8609 -0.0757 -1.4524
 9632TIP3   OH250386   3.515   1.543  16.196  0.1011 -0.1176 -0.0575
 9632TIP3    H150387   3.530   1.491  16.118 -0.2030  1.7598 -1.4391
 9632TIP3    H250388   3.505   1.633  16.164  0.6380  0.8288  2.2020
 9633TIP3   OH250389   0.908   3.320   4.349 -0.5730  0.0121 -0.2645
 9633TIP3    H150390   0.973   3.376   4.304 -0.3881 -0.5907 -0.7687
 9633TIP3    H250391   0.888   3.252   4.285  0.3435 -1.3785  0.8706
 9634TIP3   OH250392   3.851   4.017   0.416 -0.1489 -0.2175 -0.5961
 9634TIP3    H150393   3.870   3.937   0.465 -0.5054 -0.8057 -1.3900
 9634TIP3    H250394   3.756   4.019   0.410 -0.1701  0.5914 -0.0674
 9635TIP3   OH250395   1.380   1.002  13.488  0.3225 -0.1682 -0.2207
 9635TIP3    H150396   1.347   0.922  13.528  0.5948 -0.9961 -1.5977
 9635TIP3    H250397   1.302   1.045  13.452  0.3548 -0.6344 -0.8713
 9636TIP3   OH250398   0.341   0.151   5.484  0.0996  0.2692  0.0489
 9636TIP3    H150399   0.422   0.200   5.475  0.1615  0.4222  1.2567
 9636TIP3    H250400   0.356   0.095   5.560 -0.1692 -1.2382 -0.9683
 9637TIP3   OH250401   0.383   2.257  10.885 -0.3283  0.2890 -0.4528
 9637TIP3    H150402   0.473   2.237  10.912 -0.8926  1.7615  3.0935
 9637TIP3    H250403   0.332   2.180  10.912 -0.4595  0.4705 -0.1770
 9638TIP3   OH250404   1.559   3.998  10.990 -0.5175  0.1815 -0.2414
 9638TIP3    H150405   1.478   3.952  10.971 -0.3223  0.0540 -0.7825
 9638TIP3    H250406   1.542   4.089  10.965 -1.1683  0.6052  1.5645
 9639TIP3   OH250407   6.795   4.443  16.211  0.0434 -0.0408  0.2118
 9639TIP3    H150408   6.707   4.411  16.193  0.1470 -1.2078  1.5569
 9639TIP3    H250409   6.824   4.483  16.129 -1.0726 -1.2222 -0.7978
 9640TIP3   OH250410   3.402   3.072  16.411 -0.1806  0.1966 -0.1745
 9640TIP3    H150411   3.488   3.065  16.452 -1.6861  0.7073  3.4244
 9640TIP3    H250412   3.389   2.987  16.368  1.9941  0.0596 -0.7042
 9641TIP3   OH250413   6.684   3.078  12.650  0.2421 -0.2467 -0.4429
 9641TIP3    H150414   6.747   3.151  12.657 -1.6754  1.4431  0.3242
 9641TIP3    H250415   6.687   3.036  12.736 -2.2543  2.2100  1.0136
 9642TIP3   OH250416   5.573   4.020  16.724  0.3485 -0.2905 -0.0942
 9642TIP3    H150417   5.655   4.028  16.772  1.3937  0.1887 -1.8507
 9642TIP3    H250418   5.506   4.055  16.783  1.1747 -1.8892  1.8705
 9643TIP3   OH250419   5.811   4.752  16.492  0.3482 -0.4677  0.1088
 9643TIP3    H150420   5.801   4.673  16.439 -1.4125  0.2656 -0.7192
 9643TIP3    H250421   5.885   4.798  16.453  0.8694 -1.2884  0.0915
 9644TIP3   OH250422   0.363   3.055   3.433  0.5513  0.6322  0.2499
 9644TIP3    H150423   0.276   3.056   3.473 -0.0683  2.1038 -1.0178
 9644TIP3    H250424   0.372   2.968   3.395  0.1434  0.0647  1.3887
 9645TIP3   OH250425   6.682   3.232   4.567  0.1099 -0.0153  0.0636
 9645TIP3    H150426   6.667   3.172   4.640  0.5365 -0.7462 -0.4383
 9645TIP3    H250427   6.600   3.230   4.518 -0.1687  0.4572  0.5021
 9646TIP3   OH250428   5.380   3.734   4.626 -0.5810 -0.1756 -0.3021
 9646TIP3    H150429   5.463   3.737   4.673 -0.5552  0.5793 -0.3791
 9646TIP3    H250430   5.314   3.741   4.695 -0.5430  0.9101 -0.3545
 9647TIP3   OH250431   5.357   0.950   0.168 -0.1749 -0.2956  0.1050
 9647TIP3    H150432   5.358   1.039   0.202 -0.8651 -0.4250  0.4851
 9647TIP3    H250433   5.284   0.948   0.106  1.2237  0.0132 -1.6509
 9648TIP3   OH250434   3.616   4.626   4.169 -0.7500  0.0625 -0.6525
 9648TIP3    H150435   3.699   4.585   4.144  0.2138  1.9950 -0.7573
 9648TIP3    H250436   3.580   4.661   4.088 -0.1648  1.8485 -0.1699
 9649TIP3   OH250437   2.849   2.505  13.557 -0.7201  0.1981  0.3149
 9649TIP3    H150438   2.822   2.431  13.611 -1.6510  0.1012 -0.2615
 9649TIP3    H250439   2.767   2.544  13.527 -0.2263  0.1031 -1.2391
 9650TIP3   OH250440   5.107   0.415   1.322 -0.3879 -0.1748  0.1231
 9650TIP3    H150441   5.053   0.487   1.355  3.0143  1.6506  2.2773
 9650TIP3    H250442   5.154   0.452   1.248 -0.8593 -1.2386 -0.7421
 9651TIP3   OH250443   2.877   3.850   2.464  0.5322  0.4255  0.3988
 9651TIP3    H150444   2.816   3.856   2.536  0.1862  1.5878  0.0218
 9651TIP3    H250445   2.838   3.787   2.404  0.0359  0.6620  0.4748
 9652TIP3   OH250446   5.776   4.042   3.696  0.1970  0.8060 -0.5865
 9652TIP3    H150447   5.791   4.074   3.607 -1.0963 -0.2605 -1.2166
 9652TIP3    H250448   5.705   4.096   3.729 -1.4383 -0.7733 -1.3619
 9653TIP3   OH250449   0.101   6.730   5.763  0.3608 -0.3932  0.7104
 9653TIP3    H150450   0.109   6.702   5.671  0.1720 -1.3930  0.9830
 9653TIP3    H250451   0.008   6.723   5.782  0.0996  1.6876  0.4397
 9654TIP3   OH250452   3.880   5.135   2.282  0.7894 -0.1850  0.5299
 9654TIP3    H150453   3.885   5.230   2.291  0.9439 -0.2540  1.2408
 9654TIP3    H250454   3.964   5.110   2.244  0.6509 -0.0178  0.1034
 9655TIP3   OH250455   1.284   2.114   0.003  0.2075 -0.1656 -0.1438
 9655TIP3    H150456   1.374   2.132  -0.028  0.9958  1.2753  2.6550
 9655TIP3    H250457   1.272   2.175   0.076 -3.1194 -0.3046 -0.4642
 9656TIP3   OH250458   2.522   0.027   4.305  0.7164  0.6595  0.4548
 9656TIP3    H150459   2.538   0.071   4.388  0.7604  1.7327 -0.0975
 9656TIP3    H250460   2.473  -0.052   4.328  0.6141  1.0076  1.4773
 9657TIP3   OH250461   3.208   2.355  16.815  0.1072 -0.4735  0.4860
 9657TIP3    H150462   3.243   2.423  16.873  1.6869 -0.0846 -0.8574
 9657TIP3    H250463   3.279   2.291  16.807 -0.0192 -0.4586 -1.0773
 9658TIP3   OH250464   2.065   2.906   5.681 -0.7517  0.5233 -0.0754
 9658TIP3    H150465   2.145   2.860   5.706 -1.1688  0.3332  0.9868
 9658TIP3    H250466   2.082   2.998   5.703 -1.3094  0.2821  1.5241
 9659TIP3   OH250467   6.726   3.921  12.019  0.3179 -0.2266 -0.0909
 9659TIP3    H150468   6.763   3.935  12.105  2.1680  1.6275 -1.1018
 9659TIP3    H250469   6.637   3.956  12.024  0.5658  0.2624  0.9318
 9660TIP3   OH250470   5.444   0.954  13.097  0.2696 -0.8593 -0.1353
 9660TIP3    H150471   5.500   0.887  13.136 -0.7894 -1.9877 -0.4887
 9660TIP3    H250472   5.505   1.012  13.050  1.4273 -0.2436  2.0149
 9661TIP3   OH250473   2.484   4.934   4.440 -0.1299 -0.1813 -0.5363
 9661TIP3    H150474   2.490   5.003   4.507 -1.1774  0.4277 -1.0410
 9661TIP3    H250475   2.401   4.890   4.459 -1.1146  0.8444 -2.1680
 9662TIP3   OH250476   4.783   3.102   4.377 -0.0787  0.2069 -0.1466
 9662TIP3    H150477   4.755   3.011   4.386  0.9206 -0.1364 -0.3996
 9662TIP3    H250478   4.878   3.099   4.387 -0.0777  1.2783  0.2321
 9663TIP3   OH250479   1.641   0.284  13.894 -0.0612  0.0902 -0.3430
 9663TIP3    H150480   1.723   0.325  13.922  1.6452 -1.4975 -2.6217
 9663TIP3    H250481   1.603   0.250  13.975 -0.1678  3.5057  1.2401
 9664TIP3   OH250482   5.730   4.566   3.830 -0.0340  0.0660  0.0489
 9664TIP3    H150483   5.802   4.628   3.830  0.8164 -0.8258 -1.6653
 9664TIP3    H250484   5.771   4.482   3.811 -1.3232 -0.7865  0.8814
 9665TIP3   OH250485   0.467   6.530   5.462  0.2383  0.2560  0.1465
 9665TIP3    H150486   0.501   6.544   5.373 -0.1113  1.3451  0.1716
 9665TIP3    H250487   0.508   6.448   5.491  0.1828 -0.2323 -1.0979
 9666TIP3   OH250488   1.712   5.575  13.814 -0.4547 -0.3269  0.8720
 9666TIP3    H150489   1.653   5.546  13.745 -2.3800 -2.5245  3.2103
 9666TIP3    H250490   1.654   5.609  13.883  1.3961  2.3598  1.2829
 9667TIP3   OH250491   6.742   2.945   3.285  0.7666 -0.1700  0.0048
 9667TIP3    H150492   6.681   2.988   3.345  1.9307 -1.1909  2.0536
 9667TIP3    H250493   6.705   2.958   3.198 -2.3969 -0.7686  1.1319
 9668TIP3   OH250494   2.438   4.975   2.939 -0.6657  0.1203  0.3124
 9668TIP3    H150495   2.431   4.940   2.850  0.7518 -0.8048  0.5387
 9668TIP3    H250496   2.452   4.898   2.994 -0.7318  0.7576  1.2364
 9669TIP3   OH250497   4.286   4.021  15.272 -0.1032 -0.0117 -0.5456
 9669TIP3    H150498   4.281   4.060  15.359 -0.2597 -0.1826 -0.4767
 9669TIP3    H250499   4.324   4.090  15.217 -1.3088  0.5937 -0.6422
 9670TIP3   OH250500   5.363   0.659   4.091  0.3424  0.6552  0.0609
 9670TIP3    H150501   5.324   0.590   4.038  1.2450  0.1151  0.0706
 9670TIP3    H250502   5.446   0.679   4.048  1.0315  0.3073  1.1805
 9671TIP3   OH250503   4.418   0.774  11.480  0.4870  0.5502  0.0358
 9671TIP3    H150504   4.385   0.756  11.392  0.0450  0.1991  0.2678
 9671TIP3    H250505   4.342   0.806  11.529  0.5394 -0.0379  0.5122
 9672TIP3   OH250506   4.712   6.628  11.941 -0.1827  0.1979  0.5035
 9672TIP3    H150507   4.774   6.687  11.983  0.8432 -0.5055 -0.0024
 9672TIP3    H250508   4.695   6.560  12.006  0.3624 -0.1558  0.2821
 9673TIP3   OH250509   1.320   1.882  13.990 -0.6534 -0.2073  0.5472
 9673TIP3    H150510   1.274   1.950  13.941 -2.9442 -2.3205 -0.4337
 9673TIP3    H250511   1.327   1.917  14.079 -0.6869  1.7508 -0.1727
 9674TIP3   OH250512   4.072   6.278   1.316 -0.0221  0.3602 -0.5029
 9674TIP3    H150513   4.150   6.291   1.369  0.3793 -0.0367 -0.9849
 9674TIP3    H250514   4.069   6.354   1.258  0.4925 -0.0497 -1.0747
 9675TIP3   OH250515   0.453   1.646   6.212 -0.1501  0.1112 -0.6712
 9675TIP3    H150516   0.524   1.688   6.260 -0.2639  1.5283 -1.7131
 9675TIP3    H250517   0.482   1.555   6.201  1.1548  0.4864 -0.4336
 9676TIP3   OH250518   4.746   6.084  15.226 -0.6071  0.9006 -0.2805
 9676TIP3    H150519   4.722   6.001  15.266  1.6065  1.2000  1.8584
 9676TIP3    H250520   4.690   6.148  15.268 -1.7831  0.6437 -1.3860
 9677TIP3   OH250521   2.515   5.351  13.822  0.0370  0.2574 -0.0003
 9677TIP3    H150522   2.534   5.345  13.728 -0.6148  0.9834 -0.1920
 9677TIP3    H250523   2.422   5.374  13.826  0.1141  0.4589  0.8217
 9678TIP3   OH250524   2.128   6.228   4.652 -0.1467  0.3123  0.4895
 9678TIP3    H150525   2.132   6.308   4.704 -2.1200  0.9195 -0.2011
 9678TIP3    H250526   2.103   6.159   4.714  0.8246  0.3587  0.9441
 9679TIP3   OH250527   2.432   3.140   5.715 -0.2290  0.0032  0.3048
 9679TIP3    H150528   2.524   3.117   5.709  0.1324  1.3500  0.2652
 9679TIP3    H250529   2.420   3.169   5.806 -0.5797 -0.0583  0.2797
 9680TIP3   OH250530   6.257   3.442   2.827 -0.2988  0.0765 -0.1244
 9680TIP3    H150531   6.201   3.464   2.901 -0.5195 -0.4842 -0.1230
 9680TIP3    H250532   6.243   3.512   2.764  0.7326  1.1687  0.8139
 9681TIP3   OH250533   3.791   0.021  12.724  0.3553 -0.0317 -0.6451
 9681TIP3    H150534   3.852   0.087  12.690 -0.7090  0.5503 -1.4830
 9681TIP3    H250535   3.810  -0.058  12.673  0.0979  0.2869 -1.2500
 9682TIP3   OH250536   3.598   3.528  15.594 -0.5037 -0.7714  0.0713
 9682TIP3    H150537   3.569   3.450  15.642 -0.8973 -1.0915 -0.6653
 9682TIP3    H250538   3.518   3.573  15.570 -0.3021 -0.4883 -0.0747
 9683TIP3   OH250539   2.966   2.915  11.023 -0.1091 -0.3288  0.0309
 9683TIP3    H150540   2.876   2.882  11.014  0.5231 -2.0011 -0.7435
 9683TIP3    H250541   2.966   2.997  10.975 -0.9218 -0.9853 -1.1671
 9684TIP3   OH250542   1.915   1.836  14.411  0.6521  0.2049 -0.2866
 9684TIP3    H150543   1.985   1.772  14.408  0.1137 -0.3747 -0.7493
 9684TIP3    H250544   1.924   1.878  14.497  0.6546 -0.9005  0.2619
 9685TIP3   OH250545   5.470   4.145  10.837 -0.3322 -0.1662 -0.0665
 9685TIP3    H150546   5.565   4.133  10.848 -0.1368 -0.0459 -1.3975
 9685TIP3    H250547   5.462   4.231  10.795 -1.0107 -0.2855 -0.1885
 9686TIP3   OH250548   5.745   3.669   0.016  0.2271 -0.1937  0.2520
 9686TIP3    H150549   5.688   3.710  -0.049 -0.4567  1.0042  1.5257
 9686TIP3    H250550   5.809   3.737   0.037  1.9462 -1.4048 -0.9027
 9687TIP3   OH250551   1.521   1.223  12.892  0.3452 -0.1781  0.0660
 9687TIP3    H150552   1.516   1.269  12.809  2.1968  2.2018  1.1566
 9687TIP3    H250553   1.615   1.223  12.914  0.4121 -3.9642  0.5151
 9688TIP3   OH250554   5.793   3.744  11.893  0.4020 -0.2270 -0.2269
 9688TIP3    H150555   5.792   3.837  11.869  0.4935 -0.2262 -0.2272
 9688TIP3    H250556   5.762   3.698  11.815  1.2302 -0.2700 -0.5335
 9689TIP3   OH250557   1.852   0.221  16.743  0.5536  0.2754 -0.3791
 9689TIP3    H150558   1.830   0.203  16.835 -0.1922 -2.2485 -0.9570
 9689TIP3    H250559   1.902   0.145  16.716 -2.2345 -0.8335 -2.9699
 9690TIP3   OH250560   3.060   0.523   5.488 -0.4993 -0.6008  0.0395
 9690TIP3    H150561   3.004   0.482   5.422  0.7586 -2.0005 -0.2138
 9690TIP3    H250562   3.051   0.467   5.565 -1.0039  0.3284  0.6715
 9691TIP3   OH250563   5.609   0.096   3.695  0.2683  0.5057 -0.1215
 9691TIP3    H150564   5.698   0.115   3.667  0.4478  2.8767  1.7695
 9691TIP3    H250565   5.554   0.151   3.639  0.0564 -0.0355 -0.4577
 9692TIP3   OH250566   0.873   6.738  13.547  0.3759  0.5301 -0.0029
 9692TIP3    H150567   0.961   6.722  13.515 -0.2557  0.5932 -1.8932
 9692TIP3    H250568   0.825   6.657  13.528 -0.2058  0.8415  0.0950
 9693TIP3   OH250569   5.491   2.710   0.457 -0.2626  0.0894 -0.0180
 9693TIP3    H150570   5.535   2.638   0.501  0.2617  1.2504  1.4191
 9693TIP3    H250571   5.455   2.763   0.527 -1.7371  0.5722 -1.0892
 9694TIP3   OH250572   2.676   4.031  13.064  0.2641  0.0430 -0.2847
 9694TIP3    H150573   2.699   4.074  12.981 -0.6581  0.1349 -0.5037
 9694TIP3    H250574   2.688   3.938  13.046  1.1289  0.1216 -0.1722
 9695TIP3   OH250575   0.420   3.200   4.089  0.2207 -0.2678 -0.4336
 9695TIP3    H150576   0.465   3.279   4.117 -0.1758 -0.6023  1.2858
 9695TIP3    H250577   0.359   3.229   4.021 -0.0503  0.9314  0.3084
 9696TIP3   OH250578   4.973   1.002   0.858  0.1597 -0.1548  0.0606
 9696TIP3    H150579   4.927   0.946   0.796 -1.3970  1.4880 -0.3543
 9696TIP3    H250580   5.060   0.962   0.867 -0.4417 -1.8629 -1.1787
 9697TIP3   OH250581   5.218   3.830   0.711  0.0102  0.0721 -0.0032
 9697TIP3    H150582   5.269   3.798   0.637  1.2578  0.2507  0.7508
 9697TIP3    H250583   5.170   3.905   0.676 -0.1588 -0.4245 -0.8632
 9698TIP3   OH250584   2.416   6.069  12.899  0.4716  0.2998 -0.6374
 9698TIP3    H150585   2.346   6.106  12.846 -0.5061  0.6789  0.8403
 9698TIP3    H250586   2.429   6.134  12.969  2.1401  0.1225 -0.7517
 9699TIP3   OH250587   4.190   3.677  12.506  0.4169 -0.4843  0.1081
 9699TIP3    H150588   4.156   3.747  12.450  3.1447  1.3098  0.5589
 9699TIP3    H250589   4.176   3.708  12.595  1.7573 -0.4434  0.3117
 9700TIP3   OH250590   0.099   2.168   2.640 -0.1228  0.0067 -0.2658
 9700TIP3    H150591   0.047   2.121   2.705 -1.0080  1.1739 -0.0996
 9700TIP3    H250592   0.052   2.154   2.557 -0.1992  0.3019 -0.2739
 9701TIP3   OH250593   0.989   4.729  12.596  0.3263 -0.3397  0.3574
 9701TIP3    H150594   1.032   4.700  12.516  1.0169  2.0144 -0.1905
 9701TIP3    H250595   1.059   4.727  12.663 -0.3640 -2.7833  1.0972
 9702TIP3   OH250596   2.461   2.288   4.263 -0.1424  0.8796 -0.3209
 9702TIP3    H150597   2.377   2.300   4.306 -0.4496 -1.3238 -0.1939
 9702TIP3    H250598   2.447   2.216   4.201  1.5720  0.6032 -0.4452
 9703TIP3   OH250599   1.462   3.372   5.702 -0.4358 -0.1712  0.1111
 9703TIP3    H150600   1.487   3.311   5.772  0.8286  1.2931  0.9801
 9703TIP3    H250601   1.448   3.455   5.747  2.0132  1.2349 -1.5160
 9704TIP3   OH250602   0.968   5.054   4.713 -0.5017  0.1100  0.3569
 9704TIP3    H150603   1.045   5.074   4.660 -0.6331  2.3031  0.8711
 9704TIP3    H250604   0.999   4.988   4.776  1.5645  2.2398  1.7573
 9705TIP3   OH250605   0.149   4.018   6.299  0.0523 -0.1580 -0.0063
 9705TIP3    H150606   0.144   4.100   6.250 -0.3138 -0.9535 -1.3481
 9705TIP3    H250607   0.237   3.985   6.282  0.1406 -0.1361  0.3937
 9706TIP3   OH250608   5.035   6.669  14.225  0.1738 -0.6438 -0.0555
 9706TIP3    H150609   5.014   6.760  14.248 -0.0599 -0.8370  0.5315
 9706TIP3    H250610   5.047   6.626  14.310  0.9926 -0.9988 -0.3407
 9707TIP3   OH250611   0.960   6.485   1.847  0.1534 -0.2438 -1.1254
 9707TIP3    H150612   0.893   6.553   1.859  0.0382 -0.5515  0.1282
 9707TIP3    H250613   1.032   6.530   1.803 -0.0829  0.5913 -0.6897
 9708TIP3   OH250614   6.531   3.928   2.253 -0.1162 -0.4198 -0.3052
 9708TIP3    H150615   6.438   3.943   2.237 -0.4018 -2.3384 -0.7379
 9708TIP3    H250616   6.575   3.983   2.188 -0.9350  0.3581 -0.2299
 9709TIP3   OH250617   5.306   1.179  13.193 -0.1432 -0.4483 -0.0522
 9709TIP3    H150618   5.369   1.147  13.128 -0.8720 -1.9111 -0.0762
 9709TIP3    H250619   5.244   1.231  13.142  0.0467 -0.4729 -0.3120
 9710TIP3   OH250620   5.678   1.660   2.632 -0.0700  0.3105  0.1091
 9710TIP3    H150621   5.618   1.645   2.705 -0.4841 -0.2133 -0.3267
 9710TIP3    H250622   5.637   1.731   2.582  1.2407  2.1058  1.4707
 9711TIP3   OH250623   3.202   0.635  12.754  0.1604  0.1479 -0.3686
 9711TIP3    H150624   3.155   0.593  12.825 -1.0212  0.9488 -0.6390
 9711TIP3    H250625   3.248   0.708  12.795 -1.0425  1.0053 -0.4892
 9712TIP3   OH250626   1.001   0.329   1.199  0.0607  0.4492 -0.5848
 9712TIP3    H150627   0.916   0.315   1.241 -0.4874  0.9877 -1.4755
 9712TIP3    H250628   1.061   0.343   1.272  0.1489 -3.4286  0.3022
 9713TIP3   OH250629   0.896   1.722  14.653 -0.2704 -0.2637  0.3095
 9713TIP3    H150630   0.893   1.744  14.560 -1.2288  1.4210  0.7059
 9713TIP3    H250631   0.983   1.749  14.682  0.2705 -1.3778 -0.1981
 9714TIP3   OH250632   0.227   5.955  15.311  0.0865  0.0399  0.0925
 9714TIP3    H150633   0.278   5.900  15.370  0.6050  0.9436  0.5104
 9714TIP3    H250634   0.145   5.907  15.298  0.4902 -0.7784  0.5120
 9715TIP3   OH250635   2.476   1.297  14.267 -0.3861 -0.5223 -0.3958
 9715TIP3    H150636   2.446   1.241  14.338 -0.5717 -0.0323 -0.0777
 9715TIP3    H250637   2.395   1.331  14.228 -0.2719 -0.1659 -0.3268
 9716TIP3   OH250638   2.132   6.513   5.108 -0.0443 -0.0395 -0.0576
 9716TIP3    H150639   2.176   6.590   5.145 -2.7127  1.6107 -0.1228
 9716TIP3    H250640   2.203   6.449   5.097  1.8601  1.4323  2.4298
 9717TIP3   OH250641   0.397   4.028  10.390  0.3766  0.3129  0.1935
 9717TIP3    H150642   0.441   4.080  10.323  1.0374  0.2754  0.5913
 9717TIP3    H250643   0.394   4.085  10.466 -0.4623  0.3916  0.1191
 9718TIP3   OH250644   2.456   5.100  12.380 -0.1924  0.2228  0.3107
 9718TIP3    H150645   2.424   5.146  12.457 -0.5463  0.7939 -0.1719
 9718TIP3    H250646   2.468   5.168  12.314  1.5580 -0.0313  0.3103
 9719TIP3   OH250647   1.282   3.102   1.303 -0.2903  0.3665 -0.0254
 9719TIP3    H150648   1.188   3.101   1.323 -0.3382  3.4053  0.4085
 9719TIP3    H250649   1.307   3.194   1.313  2.4235 -0.0942 -1.6480
 9720TIP3   OH250650   0.321   2.635  11.950 -0.2886  0.6617 -0.0702
 9720TIP3    H150651   0.278   2.557  11.985 -0.7291  1.4586  1.2057
 9720TIP3    H250652   0.287   2.708  12.002 -0.0101  1.7436 -1.3418
 9721TIP3   OH250653   2.076   2.885  13.236 -0.3492 -0.2634  0.0626
 9721TIP3    H150654   2.007   2.948  13.216 -0.3027 -0.5137 -0.9534
 9721TIP3    H250655   2.048   2.843  13.317 -0.9562  0.2490  0.1259
 9722TIP3   OH250656   2.106   2.116   2.422  0.3288  0.1289 -0.6413
 9722TIP3    H150657   2.181   2.111   2.362  0.6432  1.2665 -0.3604
 9722TIP3    H250658   2.068   2.202   2.406 -0.1511  0.0669  0.1262
 9723TIP3   OH250659   4.091   4.280  13.659 -0.3776 -0.4741  0.1672
 9723TIP3    H150660   4.027   4.348  13.678  0.7588  1.1316 -1.4428
 9723TIP3    H250661   4.045   4.217  13.603 -0.6203  0.5902 -0.8609
 9724TIP3   OH250662   1.099   4.930   3.944 -0.3990  0.0285  0.1659
 9724TIP3    H150663   1.105   4.904   4.036  0.2781  1.5195  0.5620
 9724TIP3    H250664   1.190   4.937   3.916 -0.5881 -1.5950 -0.9926
 9725TIP3   OH250665   3.538   5.488  13.588  0.5973  0.1104  0.7874
 9725TIP3    H150666   3.522   5.402  13.547 -1.5292  0.3784  0.9373
 9725TIP3    H250667   3.605   5.471  13.653 -2.7743 -2.6038  4.0280
 9726TIP3   OH250668   6.223   4.324   4.166 -0.1872 -0.9028  0.5422
 9726TIP3    H150669   6.219   4.420   4.162 -0.3438 -0.9319 -0.2548
 9726TIP3    H250670   6.154   4.299   4.227 -0.3427 -0.5196  0.5258
 9727TIP3   OH250671   0.606   5.316  13.002  0.1329 -0.5143 -0.0728
 9727TIP3    H150672   0.668   5.340  12.933  1.1434 -0.7116  0.7302
 9727TIP3    H250673   0.658   5.263  13.063 -0.5865  0.1075  1.1204
 9728TIP3   OH250674   3.901   5.563   3.822 -0.0125 -0.5578  0.3632
 9728TIP3    H150675   3.938   5.485   3.781  4.0206  1.3027  0.0106
 9728TIP3    H250676   3.902   5.544   3.916  1.7382 -0.7298  0.3469
 9729TIP3   OH250677   3.384   5.421   3.007  0.1638 -0.4206  0.1040
 9729TIP3    H150678   3.340   5.502   2.981 -0.3980 -0.2443  1.5403
 9729TIP3    H250679   3.477   5.438   2.989 -0.2599 -0.8112 -2.9972
 9730TIP3   OH250680   0.145   2.042  15.319 -0.6471 -0.1060 -0.0842
 9730TIP3    H150681   0.162   1.975  15.253  0.1402  0.2567 -0.2639
 9730TIP3    H250682   0.228   2.052  15.365 -0.6729  0.9386 -0.2419
 9731TIP3   OH250683   2.003   3.495  13.958 -0.1875  0.2112  0.3966
 9731TIP3    H150684   2.008   3.422  14.021  0.0788 -0.1198  0.0001
 9731TIP3    H250685   1.986   3.572  14.012  0.5187  0.0070  0.9223
 9732TIP3   OH250686   4.326   5.269  15.420 -0.3062  0.0892  0.0282
 9732TIP3    H150687   4.330   5.336  15.488 -0.7622  2.0626 -1.8183
 9732TIP3    H250688   4.339   5.316  15.338 -1.5125 -1.9494 -1.4301
 9733TIP3   OH250689   1.370   2.425  13.789 -0.1557  0.1928 -0.0149
 9733TIP3    H150690   1.452   2.474  13.789 -1.8332  3.3264  1.4901
 9733TIP3    H250691   1.316   2.468  13.856 -2.4964 -2.6984  0.1809
 9734TIP3   OH250692   5.013   5.873  11.769 -0.6612  0.0589  0.1987
 9734TIP3    H150693   5.034   5.873  11.862  3.2815  1.1464 -0.4944
 9734TIP3    H250694   4.989   5.963  11.749 -0.1321  0.1517 -0.0447
 9735TIP3   OH250695   6.319   5.146  13.730 -0.1593 -0.0560  0.4102
 9735TIP3    H150696   6.310   5.172  13.822  0.4970 -0.0341  0.4722
 9735TIP3    H250697   6.413   5.146  13.714 -0.2169 -0.9759  0.0014
 9736TIP3   OH250698   1.774   2.272  14.308 -0.3089  0.0145  0.3627
 9736TIP3    H150699   1.688   2.258  14.267 -0.2887  1.3614 -0.1869
 9736TIP3    H250700   1.769   2.223  14.390 -0.1535 -3.2609 -1.4187
 9737TIP3   OH250701   1.059   4.511  13.849  0.8028  0.7219 -0.3563
 9737TIP3    H150702   1.130   4.506  13.786  0.0412 -0.8862 -1.1353
 9737TIP3    H250703   0.981   4.529  13.796 -0.0229 -1.6801 -0.1034
 9738TIP3   OH250704   3.802   6.154   6.558  0.1012  0.3742 -0.0146
 9738TIP3    H150705   3.790   6.068   6.598  2.4189 -0.4023 -0.8269
 9738TIP3    H250706   3.714   6.192   6.554 -0.8351 -1.5499  1.2333
 9739TIP3   OH250707   5.173   0.431  12.325 -0.0105  0.3819  0.3482
 9739TIP3    H150708   5.110   0.430  12.254  0.4536  0.9501 -0.0795
 9739TIP3    H250709   5.132   0.378  12.394 -2.1079  2.7895  1.0869
 9740TIP3   OH250710   4.148   5.030   0.638 -0.1630  0.5779  0.0728
 9740TIP3    H150711   4.119   5.077   0.716  0.2127  0.6851  0.1467
 9740TIP3    H250712   4.191   4.952   0.672  1.2615  1.3127  0.0284
 9741TIP3   OH250713   0.178   6.373   1.782 -0.2603 -0.2940  0.2247
 9741TIP3    H150714   0.107   6.315   1.809 -2.1245  0.5700 -2.4230
 9741TIP3    H250715   0.153   6.459   1.815 -0.6661  0.0783 -1.0128
 9742TIP3   OH250716   6.475   4.585  16.370 -0.0998 -0.0356 -0.4068
 9742TIP3    H150717   6.453   4.678  16.361  0.1792 -0.0740 -1.7289
 9742TIP3    H250718   6.551   4.584  16.427  0.5077  0.6490 -1.1734
 9743TIP3   OH250719   2.132   4.883  16.124 -0.0544 -0.0810 -0.0932
 9743TIP3    H150720   2.131   4.838  16.040 -2.3043 -1.0149  0.3489
 9743TIP3    H250721   2.192   4.956  16.111 -0.0907 -0.3764 -2.4174
 9744TIP3   OH250722   2.277   3.255  12.291 -0.7796  0.1751  0.6528
 9744TIP3    H150723   2.357   3.207  12.266 -0.5547 -0.4938  2.5131
 9744TIP3    H250724   2.247   3.294  12.209  1.4696  0.4756 -0.1141
 9745TIP3   OH250725   0.195   4.990  14.746 -0.3330 -0.1124  0.4324
 9745TIP3    H150726   0.264   5.029  14.693 -0.7160 -0.7888 -0.6085
 9745TIP3    H250727   0.236   4.972  14.830  0.9294 -0.9973 -0.3407
 9746TIP3   OH250728   5.953   6.562   5.126  0.0074 -0.5545 -0.0543
 9746TIP3    H150729   5.892   6.613   5.178  0.2220  1.2762 -1.5033
 9746TIP3    H250730   5.902   6.486   5.096 -1.4868  0.7357 -0.9150
 9747TIP3   OH250731   2.603   6.397  16.406 -0.5009  0.0192 -0.0630
 9747TIP3    H150732   2.659   6.397  16.483 -0.0506 -0.3101 -0.3872
 9747TIP3    H250733   2.542   6.324  16.421 -1.5268  1.0004  0.7642
 9748TIP3   OH250734   1.547   3.641   2.869 -0.2020 -0.4978 -0.2533
 9748TIP3    H150735   1.471   3.589   2.895 -0.1424  0.4083  1.9925
 9748TIP3    H250736   1.510   3.723   2.836 -0.3287  0.8429  2.8431
 9749TIP3   OH250737   4.465   1.925  14.408  0.0609  0.0507  0.2529
 9749TIP3    H150738   4.456   2.002  14.464  0.6608  0.5504 -0.3140
 9749TIP3    H250739   4.394   1.867  14.434  0.0969  0.4390  1.2564
 9750TIP3   OH250740   3.812   2.170  16.825  0.1227  0.3960  0.2247
 9750TIP3    H150741   3.741   2.109  16.807  0.8606 -0.5200  0.3046
 9750TIP3    H250742   3.800   2.241  16.763 -1.0327  0.4140  0.4449
 9751TIP3   OH250743   4.488   4.468   6.554  0.1431 -0.3435 -0.4996
 9751TIP3    H150744   4.435   4.411   6.499 -1.7464  0.8850 -0.0467
 9751TIP3    H250745   4.519   4.413   6.626 -2.1937 -0.6949  0.2995
 9752TIP3   OH250746   3.590   0.268  12.862  0.4215 -0.0220  0.2586
 9752TIP3    H150747   3.499   0.263  12.889  0.2872  1.5276  0.1900
 9752TIP3    H250748   3.614   0.178  12.840 -0.5717 -0.7427  1.9193
 9753TIP3   OH250749   0.068   5.796  16.557 -0.4979 -0.4010  0.1615
 9753TIP3    H150750   0.011   5.833  16.490  0.5216 -1.2592 -1.2474
 9753TIP3    H250751   0.123   5.870  16.585  0.5877 -0.4705 -1.6229
 9754TIP3   OH250752   2.122   2.028   4.440 -0.0939 -0.4729  0.1876
 9754TIP3    H150753   2.190   2.095   4.440 -1.1706  0.6733 -0.6319
 9754TIP3    H250754   2.069   2.048   4.363 -1.6527 -1.0100  1.0740
 9755TIP3   OH250755   3.060   2.493   1.540 -0.3245 -0.2235  0.2868
 9755TIP3    H150756   3.059   2.405   1.501 -0.4374 -0.1147  0.0474
 9755TIP3    H250757   3.099   2.549   1.472  2.3792 -0.5616  1.4161
 9756TIP3   OH250758   5.059   5.247   0.674 -0.0889 -0.0798 -0.4346
 9756TIP3    H150759   5.002   5.302   0.726  0.0875  0.8119 -1.1608
 9756TIP3    H250760   5.070   5.294   0.591 -0.3311 -1.4286 -1.2729
 9757TIP3   OH250761   0.470   3.145  15.677 -0.3159  0.4490 -0.4906
 9757TIP3    H150762   0.485   3.065  15.729 -0.8503  0.7739  0.1761
 9757TIP3    H250763   0.393   3.125  15.624 -0.0977  0.3161 -0.7631
 9758TIP3   OH250764   2.664   3.052   2.158 -0.3720  0.0932  0.2893
 9758TIP3    H150765   2.643   2.968   2.117 -0.5098  0.2563  0.0292
 9758TIP3    H250766   2.696   3.028   2.245 -1.1567 -0.1903  0.5063
 9759TIP3   OH250767   3.235   2.517  14.171  0.4904  0.3069 -0.3740
 9759TIP3    H150768   3.168   2.474  14.225  0.0842  0.3973 -0.8021
 9759TIP3    H250769   3.190   2.591  14.131  1.0649  0.8602 -0.0238
 9760TIP3   OH250770   5.377   3.062   0.967 -0.2046 -0.2832  0.2314
 9760TIP3    H150771   5.457   3.013   0.989 -1.2210 -0.8684  3.0829
 9760TIP3    H250772   5.316   2.995   0.936 -0.5105 -0.2989  0.8621
 9761TIP3   OH250773   1.695   3.614  14.785 -0.1090  0.4617 -0.0691
 9761TIP3    H150774   1.696   3.628  14.690  0.9112 -0.2695 -0.1873
 9761TIP3    H250775   1.652   3.530  14.797 -0.9537  0.9220  0.1886
 9762TIP3   OH250776   1.532   4.708   6.127  0.3147 -0.0415  0.5494
 9762TIP3    H150777   1.559   4.753   6.207 -1.9900 -0.9193  1.9094
 9762TIP3    H250778   1.519   4.617   6.153  1.1876 -0.7174 -1.2533
 9763TIP3   OH250779   3.436   5.135  16.787  0.0422 -0.6424 -0.6107
 9763TIP3    H150780   3.477   5.204  16.736  0.7189 -2.5771 -2.8489
 9763TIP3    H250781   3.504   5.106  16.848  0.3005 -0.4843 -0.8218
 9764TIP3   OH250782   4.319   3.292   5.494  0.1671  0.0598 -0.1893
 9764TIP3    H150783   4.260   3.239   5.441 -0.5820  1.3184 -0.6705
 9764TIP3    H250784   4.401   3.293   5.445 -0.3624  0.7891 -1.0910
 9765TIP3   OH250785   2.189   2.019   4.742 -0.4635 -0.4325  0.5640
 9765TIP3    H150786   2.126   2.075   4.695 -0.0053  0.4561  0.9727
 9765TIP3    H250787   2.159   2.022   4.833  1.4948  2.0351  1.2568
 9766TIP3   OH250788   2.957   5.944   4.289  0.5952 -0.0617  0.2822
 9766TIP3    H150789   2.862   5.940   4.295  0.4468  2.3727  0.5662
 9766TIP3    H250790   2.986   5.855   4.309 -1.6124 -0.9391 -0.1457
 9767TIP3   OH250791   5.618   4.292  14.541  0.0348  0.1868 -0.0225
 9767TIP3    H150792   5.645   4.384  14.542  1.1851 -0.1167 -1.4785
 9767TIP3    H250793   5.637   4.262  14.452  0.2187 -1.6244  0.5961
 9768TIP3   OH250794   1.410   6.501   0.483  0.5133  0.4630  0.0816
 9768TIP3    H150795   1.327   6.464   0.512  0.4117  0.9875  0.4725
 9768TIP3    H250796   1.389   6.544   0.400  0.4987  0.1827 -0.0605
 9769TIP3   OH250797   2.537   6.344   5.296 -0.2659  0.3242 -0.1683
 9769TIP3    H150798   2.576   6.284   5.233 -2.1507 -0.8493 -0.3003
 9769TIP3    H250799   2.471   6.291   5.342 -0.3156  1.6646  1.4237
 9770TIP3   OH250800   0.236   3.845   1.076 -0.9538 -0.4428  0.4870
 9770TIP3    H150801   0.200   3.769   1.030  0.0565  0.1443 -1.3884
 9770TIP3    H250802   0.324   3.856   1.039 -1.2109  1.8631  0.4071
 9771TIP3   OH250803   4.429   0.887   3.447 -0.1259  0.2178 -0.4848
 9771TIP3    H150804   4.498   0.938   3.491 -0.6338  0.2326  0.3165
 9771TIP3    H250805   4.456   0.796   3.457  0.1302  0.2571 -0.7923
 9772TIP3   OH250806   4.331   3.917   3.716 -0.3225 -0.1541 -0.3347
 9772TIP3    H150807   4.343   3.825   3.691 -1.7076  0.2622 -2.9525
 9772TIP3    H250808   4.351   3.966   3.636 -2.4510  1.5852  0.1045
 9773TIP3   OH250809   2.516   0.497   4.401 -0.3502  0.0600  0.3433
 9773TIP3    H150810   2.595   0.541   4.370 -0.8868  0.1583 -0.9523
 9773TIP3    H250811   2.466   0.566   4.446  0.4128 -0.0713  1.4279
 9774TIP3   OH250812   6.560   3.111   4.818 -0.2218  0.2306  0.1976
 9774TIP3    H150813   6.604   3.091   4.900  1.2859  1.5224 -0.2641
 9774TIP3    H250814   6.480   3.157   4.844 -0.2249 -0.1851  0.9494
 9775TIP3   OH250815   5.747   4.114   1.679 -0.4756 -0.3359  0.1555
 9775TIP3    H150816   5.772   4.206   1.671 -0.7771 -0.2394  0.3299
 9775TIP3    H250817   5.696   4.096   1.600  1.3614 -0.9374 -0.9662
 9776TIP3   OH250818   0.208   2.691  13.389  0.6794 -0.2836  0.7103
 9776TIP3    H150819   0.222   2.613  13.335 -0.4565  0.1688 -0.2785
 9776TIP3    H250820   0.204   2.657  13.479 -1.4128 -1.6398  0.1826
 9777TIP3   OH250821   5.861   2.112   1.762 -0.4618 -0.3083  0.5366
 9777TIP3    H150822   5.941   2.063   1.747 -0.2783  0.3030 -0.5608
 9777TIP3    H250823   5.851   2.167   1.684 -0.7324  1.2884  1.6503
 9778TIP3   OH250824   0.486   6.317  12.172  0.1319 -0.1727 -0.2420
 9778TIP3    H150825   0.432   6.383  12.215 -0.6996  0.2584 -1.8672
 9778TIP3    H250826   0.447   6.233  12.199 -0.0277  0.0661  0.2804
 9779TIP3   OH250827   1.421   1.057   0.649  0.4223  0.2718  0.0247
 9779TIP3    H150828   1.473   1.056   0.568  0.2562  3.9990 -0.3029
 9779TIP3    H250829   1.438   0.972   0.689  1.2117 -1.4048 -3.4546
 9780TIP3   OH250830   1.534   3.496   5.035  0.3081 -0.2441  0.0314
 9780TIP3    H150831   1.618   3.521   5.074 -0.6384  0.1044  1.9294
 9780TIP3    H250832   1.535   3.401   5.036  0.4399 -0.2391  0.5896
 9781TIP3   OH250833   0.237   2.394   3.341  0.6924 -0.6053  0.1678
 9781TIP3    H150834   0.308   2.363   3.396 -0.0606 -0.2258  1.4098
 9781TIP3    H250835   0.222   2.484   3.371  0.3454 -0.3486 -0.7522
 9782TIP3   OH250836   2.362   6.495  14.956 -0.0815 -0.2505 -0.0256
 9782TIP3    H150837   2.430   6.446  15.002  0.3601  0.5505  0.1853
 9782TIP3    H250838   2.397   6.507  14.868  0.0762  0.2116  0.0995
 9783TIP3   OH250839   5.371   0.747   2.596  0.1988  0.0929 -0.2083
 9783TIP3    H150840   5.444   0.804   2.618 -0.4278  0.2631  1.5747
 9783TIP3    H250841   5.293   0.802   2.605 -0.3235 -0.7020  0.2640
 9784TIP3   OH250842   5.278   6.156   0.015  0.0679  0.3563  0.0535
 9784TIP3    H150843   5.292   6.075   0.064 -1.0487  0.4217  0.5183
 9784TIP3    H250844   5.267   6.128  -0.076 -0.8217 -0.0845  0.2809
 9785TIP3   OH250845   3.487   6.142  12.640  0.2862  0.0664  0.5054
 9785TIP3    H150846   3.545   6.213  12.613  1.6666 -1.3420 -0.3635
 9785TIP3    H250847   3.434   6.123  12.562  0.5865 -0.4827  0.4307
 9786TIP3   OH250848   6.642   5.583   3.966 -0.5443  0.0917  0.4626
 9786TIP3    H150849   6.650   5.618   4.055 -0.0079  0.9692  0.0861
 9786TIP3    H250850   6.709   5.515   3.961  0.5954  1.1861  0.2219
 9787TIP3   OH250851   1.347   4.294   4.690 -0.3948 -0.3946 -0.1199
 9787TIP3    H150852   1.335   4.383   4.655  2.4578 -0.3161 -1.2288
 9787TIP3    H250853   1.300   4.238   4.628 -1.0095  0.2368 -0.2425
 9788TIP3   OH250854   2.848   0.859  14.501 -0.6540  0.1740 -0.7696
 9788TIP3    H150855   2.856   0.774  14.544 -0.1035  0.7116  0.2253
 9788TIP3    H250856   2.912   0.915  14.545  0.7200  0.4978 -3.0039
 9789TIP3   OH250857   2.531   3.984   5.650  0.0552  0.6514  0.1604
 9789TIP3    H150858   2.489   3.991   5.736  1.3080 -0.8041  0.9253
 9789TIP3    H250859   2.566   4.071   5.633 -1.3761  1.3183  0.4744
 9790TIP3   OH250860   2.108   4.385  14.092 -0.4134  0.5939  0.4727
 9790TIP3    H150861   2.151   4.383  14.178  1.5430  0.6954 -0.4362
 9790TIP3    H250862   2.101   4.293  14.067 -0.0542  0.6015  0.3305
 9791TIP3   OH250863   6.344   5.097   3.150  0.0670 -0.4028 -0.0925
 9791TIP3    H150864   6.378   5.070   3.235 -0.5941 -0.7402  0.0729
 9791TIP3    H250865   6.319   5.189   3.162  0.5912 -0.2543 -0.1178
 9792TIP3   OH250866   2.358   4.450   4.144 -0.2042  0.2795  0.5480
 9792TIP3    H150867   2.341   4.477   4.054 -0.4833  0.5575  0.6818
 9792TIP3    H250868   2.361   4.354   4.141 -1.5361  0.2269  0.4637
 9793TIP3   OH250869   4.090   1.404  11.210 -0.4082 -0.0478  0.2346
 9793TIP3    H150870   4.152   1.373  11.275  1.9290  0.5415 -1.5666
 9793TIP3    H250871   4.143   1.458  11.150 -2.2636 -0.9938 -2.4515
 9794TIP3   OH250872   0.172   0.335   2.494 -0.2369  0.4684 -0.1555
 9794TIP3    H150873   0.227   0.394   2.442  0.1949 -0.2487 -0.5347
 9794TIP3    H250874   0.234   0.277   2.539 -0.6666 -0.4269 -0.6771
 9795TIP3   OH250875   4.362   5.180   3.114  0.2629  0.4622  0.2844
 9795TIP3    H150876   4.454   5.167   3.093  0.1785  0.5340 -0.1498
 9795TIP3    H250877   4.346   5.273   3.095 -0.4554 -0.0527 -1.9112
 9796TIP3   OH250878   6.109   4.116  16.013 -0.8098  0.5980  0.8469
 9796TIP3    H150879   6.162   4.080  16.084  0.2738  0.4896  0.0134
 9796TIP3    H250880   6.023   4.132  16.053 -1.0029 -1.7852  1.5491
 9797TIP3   OH250881   0.730   1.292  12.687 -0.0605  0.0118  0.1261
 9797TIP3    H150882   0.748   1.305  12.594  0.2824  0.4012  0.2435
 9797TIP3    H250883   0.660   1.354  12.707 -0.9061 -0.8457 -0.1152
 9798TIP3   OH250884   1.535   4.368   3.146  0.0202 -0.6695  1.0200
 9798TIP3    H150885   1.606   4.329   3.096 -0.4549 -0.9135  0.5269
 9798TIP3    H250886   1.496   4.295   3.195 -1.0868 -0.9098 -0.1651
 9799TIP3   OH250887   5.568   4.738   1.132  0.6667  0.3186 -0.3243
 9799TIP3    H150888   5.553   4.832   1.141 -0.5466 -0.0487  2.8731
 9799TIP3    H250889   5.656   4.724   1.169  0.0147  0.0411  1.2320
 9800TIP3   OH250890   6.632   0.135   6.364  0.9492  0.8498 -0.4086
 9800TIP3    H150891   6.599   0.125   6.453 -0.8434 -0.2025 -1.1301
 9800TIP3    H250892   6.724   0.112   6.370  0.8982  0.9447  1.1919
 9801TIP3   OH250893   1.547   5.080   5.552  0.1365  0.0004  0.5527
 9801TIP3    H150894   1.599   5.007   5.518 -1.3023 -0.7075 -0.2303
 9801TIP3    H250895   1.459   5.044   5.563 -0.6542  1.6445 -0.0034
 9802TIP3   OH250896   0.850   4.051  16.661  0.5661 -0.0843 -0.3213
 9802TIP3    H150897   0.906   4.127  16.645  2.2832 -1.6551 -2.4716
 9802TIP3    H250898   0.854   4.038  16.756  0.0399  2.5491  0.1451
 9803TIP3   OH250899   0.510   1.462  16.711 -0.0788 -0.0405 -0.0646
 9803TIP3    H150900   0.564   1.423  16.781  0.2855 -0.2283 -0.4437
 9803TIP3    H250901   0.420   1.443  16.737  0.0708 -0.5266  0.1137
 9804TIP3   OH250902   6.105   6.422  10.900 -0.3182  0.6837 -0.7062
 9804TIP3    H150903   6.196   6.450  10.900 -0.2394  0.4494 -1.4433
 9804TIP3    H250904   6.109   6.327  10.890 -0.6515  0.7359 -1.3853
 9805TIP3   OH250905   1.671   3.391   4.767 -0.0161 -0.2036  0.1470
 9805TIP3    H150906   1.765   3.408   4.757  0.4446 -1.4211  1.9291
 9805TIP3    H250907   1.641   3.452   4.834 -1.1715  2.0504 -2.2586
 9806TIP3   OH250908   2.861   6.585   2.767 -0.3406 -0.0388 -0.5075
 9806TIP3    H150909   2.880   6.629   2.850  1.1898 -2.2363  0.4110
 9806TIP3    H250910   2.850   6.656   2.704  1.5507  1.6666  0.9507
 9807TIP3   OH250911   6.066   3.737   5.211 -0.2477  0.2234 -0.3352
 9807TIP3    H150912   6.006   3.714   5.140 -0.7482 -1.3439  0.5351
 9807TIP3    H250913   6.040   3.679   5.283  2.3061 -0.5166  0.0775
 9808TIP3   OH250914   4.304   0.906  12.808  0.4749 -0.3780 -0.4377
 9808TIP3    H150915   4.240   0.893  12.738  1.4004 -3.6105 -0.8660
 9808TIP3    H250916   4.291   0.831  12.866  2.2950  0.1628  0.7554
 9809TIP3   OH250917   5.953   0.378   3.682 -0.6028  0.1852  0.1203
 9809TIP3    H150918   6.013   0.439   3.640 -2.5554  0.8378 -1.9310
 9809TIP3    H250919   5.874   0.381   3.628 -2.1633 -1.3064  2.1492
 9810TIP3   OH250920   0.289   3.773   6.015 -0.0478 -0.1743 -0.2521
 9810TIP3    H150921   0.206   3.790   5.972 -0.1120 -0.0029 -0.0590
 9810TIP3    H250922   0.343   3.850   5.995  0.6843 -1.0616 -1.8824
 9811TIP3   OH250923   6.098   6.153  15.335  0.2510 -0.0735  0.0723
 9811TIP3    H150924   6.139   6.095  15.399  0.6678 -0.0185 -0.1472
 9811TIP3    H250925   6.032   6.201  15.386  0.5822 -0.0307  0.4655
 9812TIP3   OH250926   6.175   5.429   2.509  0.1555  0.2618 -0.0850
 9812TIP3    H150927   6.215   5.427   2.422  0.9675  1.7048  0.2211
 9812TIP3    H250928   6.213   5.353   2.554 -0.1775 -0.4205 -0.9414
 9813TIP3   OH250929   2.904   1.169   2.512  0.1550 -0.1295 -0.0719
 9813TIP3    H150930   2.925   1.119   2.434  1.7043 -0.0121  0.2322
 9813TIP3    H250931   2.919   1.108   2.584  0.8723  0.3881  0.2340
 9814TIP3   OH250932   0.475   6.173   2.327 -0.1361  0.5801 -0.1855
 9814TIP3    H150933   0.507   6.234   2.260 -1.2475  1.1445 -0.2291
 9814TIP3    H250934   0.533   6.187   2.402  1.0397  0.0345 -0.9570
 9815TIP3   OH250935   0.753   1.827  16.607 -0.3233 -0.4653  0.3620
 9815TIP3    H150936   0.679   1.827  16.667 -0.6593  1.5828  0.0230
 9815TIP3    H250937   0.817   1.886  16.647 -0.8104  1.4602 -1.4858
 9816TIP3   OH250938   0.816   1.921  15.131 -0.3398 -0.1042  0.0268
 9816TIP3    H150939   0.868   2.001  15.144 -0.9221  0.1085  1.1255
 9816TIP3    H250940   0.843   1.863  15.202  0.9426 -1.3858 -1.4254
 9817TIP3   OH250941   6.024   6.697  14.913  0.3794  0.9576  0.1036
 9817TIP3    H150942   6.100   6.666  14.962  0.5397  1.1692 -0.0088
 9817TIP3    H250943   6.046   6.679  14.821  0.3665  1.1744  0.0575
 9818TIP3   OH250944   4.272   3.724  10.747  0.1265 -0.2950  0.2378
 9818TIP3    H150945   4.284   3.732  10.842  0.4964  2.0943  0.0557
 9818TIP3    H250946   4.184   3.689  10.737 -0.2781  0.3206  1.4682
 9819TIP3   OH250947   0.168   1.479  13.671 -0.3372  0.1894 -0.1030
 9819TIP3    H150948   0.110   1.403  13.665 -1.0950  0.8101 -0.9396
 9819TIP3    H250949   0.240   1.449  13.726 -1.2533 -0.7274  0.6589
 9820TIP3   OH250950   3.630   6.293  14.152 -0.0339 -0.1448  0.0705
 9820TIP3    H150951   3.572   6.367  14.136  0.2105  0.3378  1.3085
 9820TIP3    H250952   3.710   6.314  14.103  0.6216  1.1919  1.6315
 9821TIP3   OH250953   4.048   3.155   0.218  0.2959 -0.3392 -0.5214
 9821TIP3    H150954   3.968   3.135   0.268 -0.2883 -1.3835 -1.8156
 9821TIP3    H250955   4.043   3.249   0.202 -1.3748 -0.5651 -1.6586
 9822TIP3   OH250956   3.865   4.802   1.048  0.1258 -0.6379  0.3765
 9822TIP3    H150957   3.921   4.754   0.987 -0.0040 -1.1223  0.6280
 9822TIP3    H250958   3.923   4.829   1.119  0.0167 -1.2956  0.7258
 9823TIP3   OH250959   3.504   1.775  17.086  0.1718  0.4541 -0.6605
 9823TIP3    H150960   3.543   1.785  16.999  1.0769 -0.7282 -0.4172
 9823TIP3    H250961   3.575   1.741  17.141 -0.9498 -0.9240  0.0062
 9824TIP3   OH250962   1.548   6.415  16.779  0.3802 -0.1869 -0.1828
 9824TIP3    H150963   1.576   6.503  16.755 -0.1517 -0.2243 -1.0004
 9824TIP3    H250964   1.455   6.413  16.756  0.0758 -0.5543  1.0187
 9825TIP3   OH250965   5.512   5.831   5.122 -0.5333 -0.3399  0.0736
 9825TIP3    H150966   5.483   5.796   5.207 -2.2294  0.7157 -0.0217
 9825TIP3    H250967   5.515   5.925   5.134  0.1850 -0.2445 -0.7697
 9826TIP3   OH250968   0.434   5.343  13.680  0.4773 -0.1491 -0.3843
 9826TIP3    H150969   0.342   5.359  13.704  1.0526  0.3772  1.6346
 9826TIP3    H250970   0.455   5.259  13.718  0.3003 -1.3048 -2.6464
 9827TIP3   OH250971   2.429   2.148  17.179 -0.4512 -0.2307  0.7513
 9827TIP3    H150972   2.378   2.068  17.168  0.7131 -1.0936  1.4246
 9827TIP3    H250973   2.497   2.143  17.112 -0.1929  0.0579  0.9909
 9828TIP3   OH250974   2.813   4.277   6.275  0.2637  0.0401  0.1855
 9828TIP3    H150975   2.775   4.192   6.254 -2.6167  1.1810  0.3009
 9828TIP3    H250976   2.899   4.276   6.233  0.4411 -2.9851  0.4335
 9829TIP3   OH250977   2.440   0.873  16.946 -0.8857  0.1867 -0.5817
 9829TIP3    H150978   2.406   0.941  17.003 -1.8377  0.7951 -1.8242
 9829TIP3    H250979   2.529   0.902  16.925  0.0810 -0.8223  1.7461
 9830TIP3   OH250980   3.262   5.151   5.219  0.1445  0.3022 -0.3684
 9830TIP3    H150981   3.293   5.159   5.309  1.6407  0.9321 -0.9201
 9830TIP3    H250982   3.336   5.117   5.170 -0.9295 -0.9216 -1.2320
 9831TIP3   OH250983   3.442   0.739   1.463  0.1858 -0.0526  0.1609
 9831TIP3    H150984   3.422   0.833   1.456  1.6161  0.2157 -0.7545
 9831TIP3    H250985   3.402   0.701   1.385 -0.4919 -0.2329  0.5912
 9832TIP3   OH250986   3.571   5.918   2.456 -0.1461 -0.8250 -0.1148
 9832TIP3    H150987   3.524   5.944   2.536 -1.0263  1.6665 -1.3407
 9832TIP3    H250988   3.594   6.000   2.414  2.3155 -2.0459 -1.3533
 9833TIP3   OH250989   6.827   5.222  13.529 -0.1958  0.3513  0.8654
 9833TIP3    H150990   6.900   5.174  13.490 -0.1953  1.0237  0.0100
 9833TIP3    H250991   6.865   5.267  13.604  0.8208  2.4071 -0.7696
 9834TIP3   OH250992   5.572   5.391   5.612  0.3701  0.3939  0.4119
 9834TIP3    H150993   5.542   5.472   5.655  0.4814 -0.1366  1.5424
 9834TIP3    H250994   5.568   5.410   5.519 -0.3702  1.4391  0.6379
 9835TIP3   OH250995   5.502   2.576   4.069  0.6251  0.5749  0.2939
 9835TIP3    H150996   5.592   2.586   4.101  0.3818  1.8549  0.6050
 9835TIP3    H250997   5.513   2.541   3.980  1.3752 -0.3889  0.7376
 9836TIP3   OH250998   4.777   4.748  16.168 -0.2458  0.2060  0.4197
 9836TIP3    H150999   4.843   4.817  16.174  0.2903 -0.1970 -0.6754
 9836TIP3    H251000   4.696   4.794  16.146 -0.5381  0.7896  2.4773
 9837TIP3   OH251001   3.164   4.959  17.168  0.2143 -0.1210 -0.3609
 9837TIP3    H151002   3.162   4.893  17.100 -1.2014 -0.4545 -0.0366
 9837TIP3    H251003   3.152   5.042  17.122 -1.3315 -0.3917 -0.5119
 9838TIP3   OH251004   2.503   1.600  12.906  0.3545  0.3620  0.0556
 9838TIP3    H151005   2.477   1.576  12.995 -1.6131  1.5661 -0.1336
 9838TIP3    H251006   2.581   1.655  12.918  0.8538 -0.4924  0.9140
 9839TIP3   OH251007   6.111   0.569  16.088  0.5867 -0.4166 -0.1713
 9839TIP3    H151008   6.204   0.590  16.088  0.8211 -1.3706  0.1146
 9839TIP3    H251009   6.090   0.548  16.179  0.5045 -1.8016 -0.4751
 9840TIP3   OH251010   0.518   1.293  16.106 -0.3450 -0.4333 -0.0707
 9840TIP3    H151011   0.595   1.340  16.074 -0.1777 -1.8150 -1.8703
 9840TIP3    H251012   0.446   1.356  16.095  0.0970 -0.0709 -0.9854
 9841TIP3   OH251013   5.053   0.680   6.483  0.6344  0.8655 -0.3345
 9841TIP3    H151014   4.996   0.697   6.558 -1.5925 -0.5279 -1.6145
 9841TIP3    H251015   5.135   0.648   6.522 -0.4344  0.2300  1.5082
 9842TIP3   OH251016   6.653   0.768  16.448  0.0670  0.1726  0.2883
 9842TIP3    H151017   6.694   0.752  16.363  0.2146  0.4091  0.3123
 9842TIP3    H251018   6.726   0.776  16.509  0.2050  3.1426 -0.0824
 9843TIP3   OH251019   4.739   4.132  10.461  1.0182  0.0681  1.0301
 9843TIP3    H151020   4.661   4.079  10.449  0.7244  0.3373  1.6805
 9843TIP3    H251021   4.812   4.070  10.454  0.7378 -0.2129  0.6054
 9844TIP3   OH251022   0.179   2.577   1.846  0.1655 -0.0654  0.3411
 9844TIP3    H151023   0.182   2.489   1.808 -0.2607  0.0021  0.1497
 9844TIP3    H251024   0.086   2.598   1.851  0.2399  0.1186  0.9909
 9845TIP3   OH251025   6.367   0.037   1.193  0.3031 -0.0176  1.0082
 9845TIP3    H151026   6.355   0.016   1.100  2.3677 -1.1640  0.9446
 9845TIP3    H251027   6.433   0.106   1.193 -0.2597  0.5268  1.6066
 9846TIP3   OH251028   4.863   6.442   1.309  0.4984  0.4143 -0.2905
 9846TIP3    H151029   4.917   6.376   1.354  1.5127  0.0540 -1.9431
 9846TIP3    H251030   4.889   6.525   1.349 -0.0268 -0.0534  1.0859
 9847TIP3   OH251031   1.771   0.939   3.146 -0.2433  0.3359  0.2937
 9847TIP3    H151032   1.703   0.921   3.081  1.0670 -2.9103 -0.3730
 9847TIP3    H251033   1.741   0.895   3.225  1.3097 -1.8602 -0.2355
 9848TIP3   OH251034   2.865   2.605   3.473 -0.1409 -0.4321  0.2355
 9848TIP3    H151035   2.852   2.622   3.380  0.4976 -0.7511  0.0862
 9848TIP3    H251036   2.960   2.609   3.486 -0.1848 -0.9679  0.7606
 9849TIP3   OH251037   2.779   6.731   5.094  0.3192  0.8152 -0.1757
 9849TIP3    H151038   2.831   6.679   5.032 -1.0340 -0.4858 -0.2817
 9849TIP3    H251039   2.727   6.789   5.039  0.4915  0.9905 -0.1544
 9850TIP3   OH251040   5.471   4.253  15.408  0.3036 -0.2313  0.4221
 9850TIP3    H151041   5.473   4.331  15.352  0.8728  1.4491  2.6658
 9850TIP3    H251042   5.395   4.204  15.378  0.6922  0.4629 -1.9272
 9851TIP3   OH251043   3.671   1.520  12.954 -0.0486 -0.2837 -0.4721
 9851TIP3    H151044   3.576   1.525  12.940 -0.1845 -2.4639 -0.5690
 9851TIP3    H251045   3.708   1.520  12.866  0.1330  1.2294 -0.4301
 9852TIP3   OH251046   0.775   1.886   1.484  0.0234 -0.4895 -0.0214
 9852TIP3    H151047   0.803   1.799   1.512 -1.5006 -1.3449 -1.0143
 9852TIP3    H251048   0.833   1.946   1.531  1.0424 -2.0215  0.7687
 9853TIP3   OH251049   1.449   0.460  15.671  0.2084 -0.2045 -0.9343
 9853TIP3    H151050   1.478   0.390  15.613 -0.2908 -0.1073 -1.3105
 9853TIP3    H251051   1.462   0.425  15.759  0.6721 -0.4746 -1.1036
 9854TIP3   OH251052   6.270   4.241   3.906 -0.3030 -0.7540  0.2039
 9854TIP3    H151053   6.327   4.318   3.911  0.3930 -1.2771  0.4944
 9854TIP3    H251054   6.239   4.228   3.995 -1.8598  0.2313 -0.1561
 9855TIP3   OH251055   3.349   4.981  15.436  0.2538 -0.1651 -0.4025
 9855TIP3    H151056   3.312   4.993  15.523  1.5468  0.1014  0.1401
 9855TIP3    H251057   3.416   4.913  15.447  0.9413  0.3864 -1.0153
 9856TIP3   OH251058   0.517   0.951   3.246 -0.4070  0.0035 -0.0309
 9856TIP3    H151059   0.437   0.976   3.200  0.0508  0.0629 -0.8214
 9856TIP3    H251060   0.545   1.030   3.292 -1.0722 -0.1591  0.6803
 9857TIP3   OH251061   5.633   4.899  13.564 -0.1495  0.1886  0.0906
 9857TIP3    H151062   5.711   4.845  13.575  1.2611  2.3938  1.6271
 9857TIP3    H251063   5.653   4.955  13.488  0.4185  1.6875  1.2892
 9858TIP3   OH251064   3.868   0.660   5.350  0.7892 -0.0710 -0.2294
 9858TIP3    H151065   3.848   0.568   5.363 -0.3167 -0.3843 -3.3833
 9858TIP3    H251066   3.944   0.661   5.292  1.0731  1.0200  0.1299
 9859TIP3   OH251067   4.292   1.405   3.577 -0.4385 -0.2210 -0.0246
 9859TIP3    H151068   4.287   1.464   3.502  2.4227 -0.3633 -0.4451
 9859TIP3    H251069   4.312   1.463   3.651 -1.5720 -0.2747  0.3451
 9860TIP3   OH251070   0.546   5.361   2.611  0.3884  0.1622 -0.1119
 9860TIP3    H151071   0.522   5.409   2.691 -0.2732 -0.3459  0.0057
 9860TIP3    H251072   0.559   5.429   2.545 -1.3981  0.4943 -0.1758
 9861TIP3   OH251073   5.202   2.276  15.699  0.3900 -0.1245  0.9103
 9861TIP3    H151074   5.288   2.240  15.679  0.5912  0.8103 -0.0159
 9861TIP3    H251075   5.184   2.249  15.789  0.8680 -1.8196  0.5333
 9862TIP3   OH251076   5.588   0.251   5.725 -0.4205 -0.0561 -0.0383
 9862TIP3    H151077   5.609   0.308   5.651 -2.1101  0.9094  0.1837
 9862TIP3    H251078   5.652   0.276   5.793 -0.4924  0.8787 -0.2949
 9863TIP3   OH251079   4.720   5.726   4.681 -0.1210 -0.3603  0.1143
 9863TIP3    H151080   4.683   5.790   4.741 -1.1293 -0.6337 -0.2031
 9863TIP3    H251081   4.669   5.646   4.696  0.0563 -0.6260 -0.6319
 9864TIP3   OH251082   5.341   1.932   4.700 -0.5133 -0.5887  0.1384
 9864TIP3    H151083   5.336   1.974   4.786  1.6200  0.7551 -0.3049
 9864TIP3    H251084   5.317   2.002   4.639 -0.6584 -1.1310 -0.4214
 9865TIP3   OH251085   0.836   4.456   3.996 -0.0670 -0.1174  0.5105
 9865TIP3    H151086   0.753   4.505   3.993 -0.3197 -0.4224  1.7545
 9865TIP3    H251087   0.894   4.513   4.047 -0.0894 -0.7003  1.2037
 9866TIP3   OH251088   0.241   2.440   3.030 -0.0999  0.4857 -0.0352
 9866TIP3    H151089   0.249   2.419   3.123  1.0888 -0.2395 -0.2839
 9866TIP3    H251090   0.182   2.373   2.996  2.0455 -1.3378 -0.4126
 9867TIP3   OH251091   2.395   2.821   4.661 -0.2290 -0.0887 -0.5351
 9867TIP3    H151092   2.477   2.818   4.612  0.6844 -1.8257  0.9888
 9867TIP3    H251093   2.405   2.754   4.729 -1.7539  1.5880  1.4811
 9868TIP3   OH251094   1.279   2.677  11.690  0.5657  0.0150  0.5777
 9868TIP3    H151095   1.337   2.608  11.657  0.0449 -0.1743  0.0483
 9868TIP3    H251096   1.335   2.754  11.697  0.7165  0.0458 -0.6880
 9869TIP3   OH251097   6.362   0.357  13.937  0.3575  0.2128 -0.6007
 9869TIP3    H151098   6.362   0.450  13.957 -0.3850  0.2234 -0.6215
 9869TIP3    H251099   6.411   0.316  14.008 -0.8821  0.4201  0.3910
 9870TIP3   OH251100   1.716   5.302  14.989  0.0246  0.1976 -0.1080
 9870TIP3    H151101   1.671   5.327  14.908 -0.7261  0.3447  0.3541
 9870TIP3    H251102   1.665   5.342  15.059  1.2602  0.9451  0.3991
 9871TIP3   OH251103   2.678   1.114  16.616  0.4751 -0.1478  0.3931
 9871TIP3    H151104   2.590   1.135  16.583  1.4319  1.6307 -1.2392
 9871TIP3    H251105   2.664   1.087  16.706 -1.8638 -1.1200 -0.1793
 9872TIP3   OH251106   4.957   5.170  12.411  0.9331  0.5989  0.1799
 9872TIP3    H151107   5.019   5.238  12.383 -0.1062  0.5993 -2.3942
 9872TIP3    H251108   4.998   5.088  12.381  0.1664  0.5195 -0.6887
 9873TIP3   OH251109   0.986   6.774  12.705 -0.0422 -0.2917 -0.2660
 9873TIP3    H151110   0.973   6.849  12.762  2.7342 -1.2097  1.8112
 9873TIP3    H251111   0.901   6.759  12.664 -1.7778  1.4392  2.4278
 9874TIP3   OH251112   2.787   4.546   6.338  0.2490  0.0130 -0.0559
 9874TIP3    H151113   2.793   4.450   6.329  3.0814 -0.3039  3.2125
 9874TIP3    H251114   2.829   4.580   6.259 -1.7662 -1.2837 -1.8163
 9875TIP3   OH251115   5.257   6.336   3.744  0.1612  0.7389 -0.1985
 9875TIP3    H151116   5.273   6.415   3.795  0.6767 -0.0060  0.8118
 9875TIP3    H251117   5.231   6.369   3.658  2.3763  2.0144 -0.4528
 9876TIP3   OH251118   1.670   0.185   3.221 -0.2927  0.2927  0.2984
 9876TIP3    H151119   1.657   0.130   3.144  0.6432  1.6503 -0.8794
 9876TIP3    H251120   1.738   0.247   3.195  0.1630  0.6939  2.2843
 9877TIP3   OH251121   4.928   3.363   4.692 -0.1448 -0.4265  0.2354
 9877TIP3    H151122   4.944   3.357   4.598 -1.4401  0.9586 -0.1020
 9877TIP3    H251123   4.986   3.297   4.730 -1.0779 -2.4525 -1.6757
 9878TIP3   OH251124   0.598   6.483  12.483 -0.2998  0.1281  0.3862
 9878TIP3    H151125   0.689   6.491  12.513 -0.1336 -0.0209 -0.0766
 9878TIP3    H251126   0.572   6.573  12.462  0.2801 -0.0161 -1.0387
 9879TIP3   OH251127   1.392   3.918   4.759 -0.5470 -0.0235 -0.0774
 9879TIP3    H151128   1.392   3.959   4.672  0.3944  0.3897  0.1044
 9879TIP3    H251129   1.313   3.865   4.760 -0.3528 -0.3740 -1.3569
 9880TIP3   OH251130   3.004   4.979   5.236  1.0546 -0.3350  0.1764
 9880TIP3    H151131   2.976   5.027   5.314  0.2562 -2.5214  1.3230
 9880TIP3    H251132   3.079   5.029   5.203 -0.5132  2.4028  0.4624
 9881TIP3   OH251133   6.575   2.540   5.567  0.0873  0.2591  0.0251
 9881TIP3    H151134   6.575   2.588   5.483 -0.7251  1.1720  0.5247
 9881TIP3    H251135   6.491   2.561   5.606  0.2079 -0.6648  0.8060
 9882TIP3   OH251136   5.932   5.259  12.252  0.5338 -0.2083  0.4275
 9882TIP3    H151137   6.000   5.265  12.185  1.3274  4.2398  1.3269
 9882TIP3    H251138   5.850   5.264  12.204  0.9466 -0.8914 -0.3811
 9883TIP3   OH251139   2.300   6.131  13.611 -0.3798 -0.3147 -0.2924
 9883TIP3    H151140   2.367   6.094  13.554  0.4693 -0.4296  0.7559
 9883TIP3    H251141   2.272   6.211  13.567  1.3536  0.4038 -0.1510
 9884TIP3   OH251142   3.899   5.298   4.473 -0.0153  0.8709 -0.0669
 9884TIP3    H151143   3.863   5.349   4.546  0.1033  0.1707  0.4829
 9884TIP3    H251144   3.824   5.249   4.439 -0.2126  1.6705 -0.8389
 9885TIP3   OH251145   6.812   3.338  12.647 -0.1606  0.0859 -0.3943
 9885TIP3    H151146   6.860   3.301  12.574  0.8118 -0.4355  0.4864
 9885TIP3    H251147   6.845   3.428  12.655  1.2020 -0.4721  0.6182
 9886TIP3   OH251148   6.343   4.418  15.237  0.0541 -0.2600 -0.0061
 9886TIP3    H151149   6.436   4.436  15.248  0.2151 -1.0519 -0.0321
 9886TIP3    H251150   6.324   4.352  15.304 -0.2967 -0.7200 -0.5546
 9887TIP3   OH251151   3.885   3.378   3.564  0.1300 -0.0764  0.1479
 9887TIP3    H151152   3.792   3.393   3.580  0.0569  1.8577 -1.7651
 9887TIP3    H251153   3.929   3.421   3.637 -0.4168  0.5012  0.1418
 9888TIP3   OH251154   6.634   6.175  12.036 -0.2654 -0.2229 -0.2914
 9888TIP3    H151155   6.674   6.242  11.981 -1.2174  0.2553 -0.4239
 9888TIP3    H251156   6.708   6.127  12.073  0.4160  0.4292 -0.7745
 9889TIP3   OH251157   2.157   6.680   4.534 -0.3480  0.6281  0.0617
 9889TIP3    H151158   2.245   6.685   4.571 -0.7413  2.8598  0.9126
 9889TIP3    H251159   2.150   6.757   4.477 -1.9366  0.9330  0.5912
 9890TIP3   OH251160   3.972   0.734   4.942 -0.3672  0.5074  0.3897
 9890TIP3    H151161   3.941   0.644   4.951  0.6038 -0.0362 -1.3819
 9890TIP3    H251162   3.960   0.756   4.850  0.0344  1.9775  0.6489
 9891TIP3   OH251163   6.487   0.589   2.151 -0.2947  0.2297 -0.3208
 9891TIP3    H151164   6.479   0.505   2.197 -1.4697  0.5628  0.1128
 9891TIP3    H251165   6.571   0.624   2.180 -0.1577 -0.4256  0.1156
 9892TIP3   OH251166   3.741   0.335   2.221  0.5147 -0.3522 -0.8417
 9892TIP3    H151167   3.751   0.430   2.216 -1.5525  0.1319  1.9201
 9892TIP3    H251168   3.682   0.313   2.149 -1.0159  0.8924 -0.0330
 9893TIP3   OH251169   1.416   0.190   3.979  0.0818  0.1760 -0.1927
 9893TIP3    H151170   1.446   0.100   3.969 -0.7808 -0.0835 -0.5323
 9893TIP3    H251171   1.337   0.195   3.926  0.6495  1.4103 -0.9561
 9894TIP3   OH251172   5.519   0.065   2.451 -0.3701  0.6502  0.0086
 9894TIP3    H151173   5.443   0.072   2.393 -1.3491  1.2519  1.2933
 9894TIP3    H251174   5.569   0.145   2.436  1.6515 -0.9596 -2.9037
 9895TIP3   OH251175   1.641   2.405  12.346  0.0507 -0.5369  0.2357
 9895TIP3    H151176   1.688   2.397  12.429  0.6822 -0.2786 -0.0922
 9895TIP3    H251177   1.692   2.353  12.284 -1.5703 -2.5291  0.4578
 9896TIP3   OH251178   1.854   3.932   0.716 -0.1586  0.0191  0.2220
 9896TIP3    H151179   1.798   3.880   0.774  0.8795 -1.9079 -0.4048
 9896TIP3    H251180   1.827   3.908   0.628  2.6610 -2.3450 -0.1587
 9897TIP3   OH251181   5.847   6.517  15.896  0.0357  1.0531 -0.4650
 9897TIP3    H151182   5.796   6.484  15.970 -0.3011  2.8190  0.1519
 9897TIP3    H251183   5.782   6.557  15.838  0.3614  0.1824 -1.4562
 9898TIP3   OH251184   0.763   2.641   1.910 -0.5721 -0.5648  0.3752
 9898TIP3    H151185   0.797   2.573   1.969  1.4520  0.0013 -0.0585
 9898TIP3    H251186   0.759   2.599   1.825 -0.0731 -0.3857  0.2582
 9899TIP3   OH251187   5.235   4.172   2.912  0.2346  0.0374  0.2194
 9899TIP3    H151188   5.266   4.196   3.000  1.4091  0.0171 -0.1716
 9899TIP3    H251189   5.193   4.087   2.924  1.1200 -0.3508  0.6221
 9900TIP3   OH251190   6.487   5.806   1.428 -0.3756  0.0552  0.6319
 9900TIP3    H151191   6.537   5.728   1.405  0.4012  0.3532  1.2236
 9900TIP3    H251192   6.554   5.867   1.460 -0.9428  1.0186  0.0214
 9901TIP3   OH251193   2.094   3.655  12.458  0.4615 -0.4287  0.7686
 9901TIP3    H151194   2.003   3.628  12.474  0.3743 -0.9953 -0.5280
 9901TIP3    H251195   2.091   3.698  12.372  1.8146 -2.7623 -0.5403
 9902TIP3   OH251196   6.789   2.389  15.730 -0.4392  0.0949 -0.2713
 9902TIP3    H151197   6.699   2.390  15.698 -0.2564  0.1480 -0.7883
 9902TIP3    H251198   6.832   2.320  15.680 -0.5472 -0.9109  0.9781
 9903TIP3   OH251199   0.061   5.773  13.421 -0.0026 -0.3917 -0.8160
 9903TIP3    H151200   0.085   5.831  13.349 -0.0776 -1.9149 -2.1262
 9903TIP3    H251201   0.050   5.687  13.380 -0.6614 -1.1847  0.9214
 9904TIP3   OH251202   2.838   3.985   2.139  0.0346 -0.0808 -0.6784
 9904TIP3    H151203   2.861   3.896   2.113  0.2000  0.2463 -1.7039
 9904TIP3    H251204   2.894   4.003   2.215 -0.5370 -1.0969  0.0113
 9905TIP3   OH251205   1.791   1.089  15.004 -0.1868 -0.1163  0.3348
 9905TIP3    H151206   1.829   1.002  14.993 -0.8858 -0.4154  0.2434
 9905TIP3    H251207   1.699   1.073  15.025 -0.4030  0.6085 -0.0094
 9906TIP3   OH251208   4.635   3.923   2.207  0.2796  0.0609 -0.0703
 9906TIP3    H151209   4.701   3.993   2.213  0.6101 -0.1051 -1.4172
 9906TIP3    H251210   4.677   3.856   2.153 -0.7350 -0.3568 -0.3524
 9907TIP3   OH251211   5.908   3.863   2.622 -0.1027 -0.4776 -0.2334
 9907TIP3    H151212   5.992   3.907   2.605  0.0519 -0.8891 -0.5352
 9907TIP3    H251213   5.860   3.925   2.677 -0.1818  0.4164 -1.2635
 9908TIP3   OH251214   4.530   4.170   6.171 -0.5487 -0.0005  0.2571
 9908TIP3    H151215   4.494   4.203   6.088 -1.0856 -1.5658 -0.1725
 9908TIP3    H251216   4.608   4.121   6.146 -0.2814  0.1565  0.7698
 9909TIP3   OH251217   1.401   5.032  14.624  0.1365  0.0076  0.6432
 9909TIP3    H151218   1.399   5.094  14.551 -1.0518 -0.2444  0.4485
 9909TIP3    H251219   1.377   4.948  14.585  2.2152 -0.7273  0.8081
 9910TIP3   OH251220   3.356   5.066   5.487  0.1806  0.4074 -0.3636
 9910TIP3    H151221   3.287   5.049   5.552  0.0354  0.9802 -0.3693
 9910TIP3    H251222   3.420   4.996   5.502  0.6177  1.0643  1.0350
 9911TIP3   OH251223   0.999   6.450   3.057  1.1943  0.0133  0.5915
 9911TIP3    H151224   1.003   6.544   3.073  1.0093  0.2916 -0.8608
 9911TIP3    H251225   0.915   6.423   3.095  0.3367  0.8067 -0.6851
 9912TIP3   OH251226   1.350   4.947   4.293 -0.1535 -0.5147 -0.4718
 9912TIP3    H151227   1.270   4.912   4.253 -0.6390 -0.5939  0.5352
 9912TIP3    H251228   1.357   5.036   4.257 -0.7947 -0.4413 -0.4396
 9913TIP3   OH251229   0.885   0.441  11.415 -0.4028  0.1429 -0.0842
 9913TIP3    H151230   0.963   0.386  11.405 -0.2618  0.1390  0.9426
 9913TIP3    H251231   0.915   0.516  11.466 -1.0366  0.2200  0.1826
 9914TIP3   OH251232   2.255   4.758   3.407 -0.4526  0.4665  0.2179
 9914TIP3    H151233   2.199   4.818   3.456  0.2692  0.5503  0.9667
 9914TIP3    H251234   2.333   4.747   3.462  1.0021  1.6042 -1.4917
 9915TIP3   OH251235   1.438   3.018  11.963 -0.1738  0.2661 -0.0951
 9915TIP3    H151236   1.436   3.107  11.997 -1.3164 -0.0931  0.8567
 9915TIP3    H251237   1.422   3.027  11.869  0.8365  1.1186 -0.2059
 9916TIP3   OH251238   1.638   0.228   3.801 -0.0939  0.7036 -0.1518
 9916TIP3    H151239   1.583   0.271   3.866  0.6027 -0.7006  1.4242
 9916TIP3    H251240   1.590   0.148   3.778 -0.0065  0.8449 -0.8728
 9917TIP3   OH251241   4.905   1.869  13.299 -0.0790 -0.7499  0.7876
 9917TIP3    H151242   4.907   1.945  13.357 -1.7619 -1.5362  1.9772
 9917TIP3    H251243   4.823   1.877  13.251  1.2914 -0.1167 -1.5706
 9918TIP3   OH251244   3.082   0.408   3.238 -1.0148  0.1963 -0.2681
 9918TIP3    H151245   3.139   0.376   3.307  0.9263  0.2232 -1.7720
 9918TIP3    H251246   3.085   0.503   3.245  0.3327  0.2507 -1.2090
 9919TIP3   OH251247   5.499   2.022  10.373  0.0212 -0.6976 -0.6052
 9919TIP3    H151248   5.492   2.095  10.311 -1.1357 -2.2916 -2.4545
 9919TIP3    H251249   5.455   2.054  10.452 -0.6323  0.5363 -1.4266
 9920TIP3   OH251250   4.881   1.398   0.184 -0.2324 -0.2712  0.1662
 9920TIP3    H151251   4.829   1.346   0.245  0.0831  0.2153  0.8535
 9920TIP3    H251252   4.818   1.459   0.145 -0.3232 -0.1820  0.4465
 9921TIP3   OH251253   3.746   3.095   1.626 -0.1276 -0.0823 -0.1595
 9921TIP3    H151254   3.766   3.180   1.667 -1.3071 -0.0732  0.4163
 9921TIP3    H251255   3.664   3.067   1.666 -0.3220 -0.9895 -1.1477
 9922TIP3   OH251256   0.278   6.539  16.876  0.3024 -0.3492 -0.0204
 9922TIP3    H151257   0.297   6.583  16.793  0.7444 -2.0813 -0.8915
 9922TIP3    H251258   0.187   6.510  16.867 -0.9141  2.5340  1.6243
 9923TIP3   OH251259   6.152   6.255  12.077 -0.1083 -0.2888 -0.4671
 9923TIP3    H151260   6.176   6.269  11.986 -0.2819  0.9814 -0.3362
 9923TIP3    H251261   6.234   6.261  12.126 -0.0030 -1.0526 -0.5320
 9924TIP3   OH251262   4.886   0.762  14.917 -0.0338  0.0597 -0.4589
 9924TIP3    H151263   4.920   0.850  14.902  1.3822 -0.2223  0.8945
 9924TIP3    H251264   4.945   0.704  14.869 -0.0286 -0.2786 -0.0438
 9925TIP3   OH251265   5.439   5.456  14.483  0.1591  0.1788 -0.2643
 9925TIP3    H151266   5.404   5.427  14.568 -0.3868 -0.9688 -0.8476
 9925TIP3    H251267   5.421   5.550  14.480 -2.0156 -0.1760 -0.0918
 9926TIP3   OH251268   4.357   4.463   2.616 -0.0006 -0.7861 -0.2340
 9926TIP3    H151269   4.386   4.399   2.681  0.4968 -0.8449 -0.5137
 9926TIP3    H251270   4.390   4.547   2.649  0.9424 -0.9150 -0.8053
 9927TIP3   OH251271   3.367   3.843  16.647 -0.1414  0.3862  0.3248
 9927TIP3    H151272   3.463   3.843  16.644 -0.1574  1.0237 -0.5153
 9927TIP3    H251273   3.346   3.810  16.734  0.8530  0.9382  0.7899
 9928TIP3   OH251274   2.941   0.686   5.644  0.3875  0.0002  0.4053
 9928TIP3    H151275   3.011   0.738   5.685  0.8905 -0.0661 -0.3426
 9928TIP3    H251276   2.984   0.641   5.571 -0.8809  1.7506 -1.5387
 9929TIP3   OH251277   3.394   3.567  15.823 -0.2289  0.2690 -0.6649
 9929TIP3    H151278   3.447   3.492  15.851 -1.1246  0.0932  0.6606
 9929TIP3    H251279   3.448   3.643  15.845 -0.5561  0.1018  0.8734
 9930TIP3   OH251280   6.645   3.048   0.536  0.0459  0.3532  0.1632
 9930TIP3    H151281   6.671   3.032   0.445  0.7636  1.1303  0.2167
 9930TIP3    H251282   6.616   3.140   0.536 -1.1861 -0.0251  0.4512
 9931TIP3   OH251283   5.043   2.336   1.761  0.4434 -0.7539 -0.3012
 9931TIP3    H151284   5.057   2.415   1.812 -1.1228  0.6981 -2.0079
 9931TIP3    H251285   5.088   2.267   1.811  1.4731  1.0896  1.4501
 9932TIP3   OH251286   6.685   4.776   5.838  0.1984 -0.1061 -0.4858
 9932TIP3    H151287   6.740   4.716   5.888 -0.5983 -1.2705 -0.9619
 9932TIP3    H251288   6.656   4.841   5.902  0.6491 -0.5317  0.1620
 9933TIP3   OH251289   4.670   1.818   3.290  0.0233 -0.7620 -0.3856
 9933TIP3    H151290   4.704   1.870   3.363 -0.0409 -0.7354 -0.3741
 9933TIP3    H251291   4.730   1.834   3.218 -0.5196  0.0797 -0.6695
 9934TIP3   OH251292   0.570   2.426   4.817 -0.2690 -0.2656  0.0805
 9934TIP3    H151293   0.506   2.379   4.870  0.7436  1.2324  2.8176
 9934TIP3    H251294   0.521   2.501   4.782 -0.5344 -0.3481  0.2695
 9935TIP3   OH251295   5.697   0.771   6.134 -0.1993 -0.1116  0.1422
 9935TIP3    H151296   5.735   0.686   6.156  0.6751  0.6574  1.7256
 9935TIP3    H251297   5.725   0.829   6.204 -2.3777  1.0615  0.1146
 9936TIP3   OH251298   0.123   6.072   4.449  0.2220  0.6426 -0.4315
 9936TIP3    H151299   0.160   5.989   4.419  0.8960  0.0041  1.9516
 9936TIP3    H251300   0.040   6.048   4.490  1.2127  0.8090  1.8231
 9937TIP3   OH251301   0.651   5.035   4.334  0.0523  0.6724  0.1074
 9937TIP3    H151302   0.577   5.096   4.328 -1.5318 -0.9608  1.8128
 9937TIP3    H251303   0.631   4.980   4.410  1.4859 -1.8793 -1.2322
 9938TIP3   OH251304   5.235   3.703  14.252 -0.2156  0.1718 -0.0098
 9938TIP3    H151305   5.323   3.735  14.235 -0.5553  1.3930  0.3665
 9938TIP3    H251306   5.247   3.623  14.303  0.6945 -0.9542 -1.8776
 9939TIP3   OH251307   4.633   0.686   5.586 -0.2245 -0.2889  0.2525
 9939TIP3    H151308   4.656   0.682   5.679 -2.6822  1.0406  1.0015
 9939TIP3    H251309   4.588   0.769   5.576 -0.7563 -0.7832 -1.9769
 9940TIP3   OH251310   4.403   0.180   6.537  0.4261 -1.6370 -0.6288
 9940TIP3    H151311   4.428   0.272   6.545 -0.5337 -1.4576  0.6104
 9940TIP3    H251312   4.315   0.181   6.499  0.8719 -2.1157 -1.7355
 9941TIP3   OH251313   0.812   4.520   5.592 -0.2145  0.5168 -0.0097
 9941TIP3    H151314   0.897   4.496   5.630 -0.6571 -0.7087  0.2540
 9941TIP3    H251315   0.832   4.592   5.532  1.0037  0.2621  0.0611
 9942TIP3   OH251316   6.364   0.676  16.024 -0.6162 -0.6134 -0.1975
 9942TIP3    H151317   6.415   0.722  16.091 -1.5553 -0.3570  0.3497
 9942TIP3    H251318   6.320   0.745  15.975 -1.6606 -0.8969  0.3290
 9943TIP3   OH251319   2.289   3.188   0.031  0.1534 -0.8997 -0.1692
 9943TIP3    H151320   2.252   3.157  -0.052  0.8917  0.7230 -1.1620
 9943TIP3    H251321   2.218   3.238   0.071  0.2902 -0.3325 -0.6180
 9944TIP3   OH251322   1.440   2.525  11.516  0.2745  0.2091  0.6281
 9944TIP3    H151323   1.527   2.486  11.526 -0.5566 -1.5733  1.2259
 9944TIP3    H251324   1.387   2.456  11.478 -0.7087  1.5595 -0.5761
 9945TIP3   OH251325   2.404   2.214  15.877 -0.4697  0.5484 -0.1632
 9945TIP3    H151326   2.349   2.292  15.879 -2.7566 -0.8923 -2.0346
 9945TIP3    H251327   2.448   2.218  15.792 -0.8927 -0.3735 -0.4298
 9946TIP3   OH251328   6.533   4.748   1.658  0.1237  0.5394  0.7499
 9946TIP3    H151329   6.449   4.769   1.699 -1.4730 -0.5059 -1.7534
 9946TIP3    H251330   6.530   4.654   1.645  1.4803  0.5606  0.1360
 9947TIP3   OH251331   3.233   4.012   6.101 -0.1898  0.6408  0.2196
 9947TIP3    H151332   3.283   3.974   6.174  0.0820 -1.7521 -1.1212
 9947TIP3    H251333   3.145   4.026   6.138  0.0847  0.0071  1.1722
 9948TIP3   OH251334   1.109   0.164  11.033 -0.5797 -0.0606  0.2538
 9948TIP3    H151335   1.140   0.192  10.947  1.2896 -2.0723  0.1918
 9948TIP3    H251336   1.187   0.161  11.088 -1.7027  0.9960  2.0194
 9949TIP3   OH251337   4.025   4.601  11.445 -0.4762  0.4466  0.4123
 9949TIP3    H151338   3.984   4.585  11.360 -0.7249  2.8707 -0.0170
 9949TIP3    H251339   4.080   4.524  11.460  0.4934  0.4248 -2.5139
 9950TIP3   OH251340   1.008   5.484   4.744  0.1624  0.0579  0.0765
 9950TIP3    H151341   0.937   5.441   4.792 -0.8974  0.8352 -0.7583
 9950TIP3    H251342   1.015   5.570   4.784  0.8742 -0.1197  0.3582
 9951TIP3   OH251343   4.538   0.469   6.583  0.0733 -0.4248  0.3404
 9951TIP3    H151344   4.620   0.435   6.546  1.3994  1.9585  0.8783
 9951TIP3    H251345   4.558   0.483   6.675 -1.1156 -0.2411  0.5801
 9952TIP3   OH251346   1.343   1.886   5.804  0.5364  0.4157  0.5437
 9952TIP3    H151347   1.390   1.969   5.797  0.5503  0.3513 -0.1232
 9952TIP3    H251348   1.269   1.905   5.862  1.2801  0.5597  1.4678
 9953TIP3   OH251349   2.051   0.367   2.417  0.1637 -0.7717 -0.5032
 9953TIP3    H151350   2.083   0.439   2.363  2.2769 -1.8897 -0.8596
 9953TIP3    H251351   2.039   0.295   2.355  0.4003 -1.4093  0.1850
 9954TIP3   OH251352   2.367   4.723  16.592 -0.5812 -0.1627 -0.2450
 9954TIP3    H151353   2.289   4.767  16.559 -2.4576 -1.5224  2.0306
 9954TIP3    H251354   2.350   4.630  16.579  1.1584 -0.4730 -0.6304
 9955TIP3   OH251355   5.590   6.569  14.159  1.3823  0.1739  0.0463
 9955TIP3    H151356   5.660   6.570  14.223  3.1797 -2.5562 -1.6522
 9955TIP3    H251357   5.632   6.593  14.076 -0.0301 -0.0475 -0.7792
 9956TIP3   OH251358   0.908   6.360  16.541  0.4810  0.2609 -0.2958
 9956TIP3    H151359   0.826   6.381  16.585 -1.0802 -1.3248 -2.2940
 9956TIP3    H251360   0.931   6.440  16.494  2.1087  1.9487  2.9730
 9957TIP3   OH251361   3.079   5.956  10.836 -0.2784  0.1066  0.0720
 9957TIP3    H151362   3.137   6.029  10.817 -0.7842  0.4462 -0.2128
 9957TIP3    H251363   3.119   5.880  10.793 -0.4315  0.4904 -0.7650
 9958TIP3   OH251364   0.253   5.180  14.356  0.2590  1.4027 -0.1230
 9958TIP3    H151365   0.258   5.107  14.295 -0.3854  0.5581  0.8125
 9958TIP3    H251366   0.180   5.233  14.324  0.1272  1.1375 -0.2629
 9959TIP3   OH251367   4.553   6.493  13.391  0.0483  0.2629 -0.0829
 9959TIP3    H151368   4.474   6.473  13.340  0.7680 -1.9920 -0.3886
 9959TIP3    H251369   4.520   6.522  13.476 -1.1134  0.8794 -0.7181
 9960TIP3   OH251370   0.571   2.591  14.451  0.0897  0.7595 -0.3422
 9960TIP3    H151371   0.477   2.595  14.464  0.1117 -0.8018  0.5326
 9960TIP3    H251372   0.586   2.505  14.411  1.0786  1.3077 -1.2030
 9961TIP3   OH251373   5.695   3.640  13.591  0.2562  0.5001 -0.0872
 9961TIP3    H151374   5.781   3.679  13.579  0.5606 -0.1166  0.0780
 9961TIP3    H251375   5.646   3.666  13.513  1.4579 -1.4607 -1.5623
 9962TIP3   OH251376   5.301   4.522  13.297  0.0905  0.2180  0.0955
 9962TIP3    H151377   5.277   4.591  13.234 -1.0953 -0.0756  0.2023
 9962TIP3    H251378   5.317   4.569  13.379  1.3202  0.5677 -0.3202
 9963TIP3   OH251379   3.891   1.001   1.875 -0.0780  0.5300  0.0316
 9963TIP3    H151380   3.878   1.003   1.780  1.7358 -1.3811 -0.3417
 9963TIP3    H251381   3.825   0.941   1.907  0.4160 -0.1916 -0.2806
 9964TIP3   OH251382   5.683   0.458  11.109  0.1138 -0.2346 -0.0120
 9964TIP3    H151383   5.656   0.391  11.171 -0.5549  1.0134  1.0994
 9964TIP3    H251384   5.611   0.521  11.108  1.2492  1.1300 -0.0412
 9965TIP3   OH251385   4.948   1.452   2.921  0.3238  0.2771 -0.0610
 9965TIP3    H151386   5.035   1.451   2.881  1.3976  1.9555  2.0634
 9965TIP3    H251387   4.915   1.540   2.906 -0.8217 -0.1915 -0.4008
 9966TIP3   OH251388   3.232   3.048  12.767  0.0417 -0.1346 -0.4264
 9966TIP3    H151389   3.315   3.001  12.782  0.6353  1.4691  1.7715
 9966TIP3    H251390   3.167   2.999  12.817  0.2087  0.0725  0.0008
 9967TIP3   OH251391   6.248   1.869   1.350  0.1901 -0.0548 -0.6971
 9967TIP3    H151392   6.317   1.910   1.298  0.1094  1.2304  0.1636
 9967TIP3    H251393   6.206   1.942   1.396 -1.2999 -0.8939 -0.6785
 9968TIP3   OH251394   1.337   0.122   4.820 -0.2858  0.6791  0.9095
 9968TIP3    H151395   1.314   0.210   4.793 -0.1704  0.4139 -0.1293
 9968TIP3    H251396   1.258   0.087   4.860 -0.4362  1.1282  1.0092
 9969TIP3   OH251397   2.470   5.101  11.935  0.0976  0.6424 -0.8518
 9969TIP3    H151398   2.422   5.146  12.005 -0.0381 -0.0046 -0.5217
 9969TIP3    H251399   2.434   5.137  11.854 -0.9169  0.1988 -0.6116
 9970TIP3   OH251400   1.086   4.118  14.466 -0.4492  0.3744  0.2085
 9970TIP3    H151401   1.029   4.073  14.529 -0.3541  0.5310  0.4061
 9970TIP3    H251402   1.147   4.168  14.520 -1.0279  1.3506  0.0015
 9971TIP3   OH251403   4.616   3.371  12.486  0.3061 -0.1313 -0.1240
 9971TIP3    H151404   4.544   3.432  12.502  0.0211 -0.4026 -0.3601
 9971TIP3    H251405   4.689   3.405  12.539  0.0639  0.2500 -0.0326
 9972TIP3   OH251406   6.030   6.825  15.798 -0.3659  0.3995  0.0498
 9972TIP3    H151407   6.096   6.869  15.744 -0.6399 -0.1795 -0.7809
 9972TIP3    H251408   6.043   6.732  15.781 -1.9085  0.2952 -0.7756
 9973TIP3   OH251409   5.387   2.597   1.461  0.2378 -0.6164  0.1010
 9973TIP3    H151410   5.399   2.686   1.496 -0.3471  0.5768 -2.4712
 9973TIP3    H251411   5.341   2.550   1.530  0.6529  1.0492  1.5811
 9974TIP3   OH251412   3.720   1.215  12.899  0.5409 -0.1266  0.2416
 9974TIP3    H151413   3.711   1.310  12.906 -1.2906 -0.1801 -0.7105
 9974TIP3    H251414   3.726   1.185  12.989  1.7155  0.9120  0.5410
 9975TIP3   OH251415   5.319   2.793   0.834  0.3849 -0.1341  0.2858
 9975TIP3    H151416   5.254   2.799   0.764  1.3097 -0.9773 -0.6802
 9975TIP3    H251417   5.274   2.746   0.904 -0.2654 -0.0673 -0.0749
 9976TIP3   OH251418   0.774   5.162  14.822  0.3549  0.1325 -0.5415
 9976TIP3    H151419   0.755   5.248  14.860  0.7046  0.5155 -1.2082
 9976TIP3    H251420   0.742   5.169  14.732 -1.9392 -1.2851  0.0822
 9977TIP3   OH251421   6.102   6.431  16.895 -0.1009 -0.3565  0.7544
 9977TIP3    H151422   6.095   6.477  16.978 -0.7194  0.7942  0.0901
 9977TIP3    H251423   6.024   6.375  16.890 -0.2934 -0.0868  0.7505
 9978TIP3   OH251424   2.021   2.296   0.744  0.1074 -0.6979 -0.5096
 9978TIP3    H151425   2.035   2.211   0.703 -0.1805 -0.2716 -1.5333
 9978TIP3    H251426   1.943   2.331   0.701 -1.0860 -0.8110  1.4157
 9979TIP3   OH251427   2.631   1.177   2.560 -0.4342  0.1507 -0.4094
 9979TIP3    H151428   2.711   1.176   2.508 -0.7874 -2.2834 -1.0569
 9979TIP3    H251429   2.660   1.163   2.650 -0.0975 -1.0881 -0.6868
 9980TIP3   OH251430   6.333   0.154  12.973 -0.6699 -0.0240 -0.0944
 9980TIP3    H151431   6.252   0.126  13.016 -0.7504  1.2021  0.6239
 9980TIP3    H251432   6.380   0.073  12.954 -1.1141 -0.6684  1.4018
 9981TIP3   OH251433   4.335   0.023   4.540  0.0767  0.0863 -0.0087
 9981TIP3    H151434   4.391  -0.052   4.562 -1.3122 -0.2904  2.7189
 9981TIP3    H251435   4.247  -0.013   4.534 -0.1300  0.8528 -3.1730
 9982TIP3   OH251436   6.150   5.856  14.209 -0.5423  0.5510  0.1176
 9982TIP3    H151437   6.198   5.811  14.279 -0.2125  1.5313  0.5468
 9982TIP3    H251438   6.062   5.819  14.212 -0.5097  0.5293  1.0197
 9983TIP3   OH251439   2.797   0.775  15.648  0.0067  0.2217  0.1271
 9983TIP3    H151440   2.759   0.841  15.591  0.1841 -0.7568 -1.1883
 9983TIP3    H251441   2.889   0.797  15.654 -0.0802  0.5292  0.3300
 9984TIP3   OH251442   1.559   1.342  11.692  0.1095  0.3278 -0.5487
 9984TIP3    H151443   1.470   1.351  11.660 -1.4939  0.3077  3.3769
 9984TIP3    H251444   1.569   1.413  11.756  2.0184 -1.0539  0.8213
 9985TIP3   OH251445   3.420   6.575  11.744  0.2609  0.7792 -0.7269
 9985TIP3    H151446   3.388   6.524  11.819  0.3625  0.4776 -0.8888
 9985TIP3    H251447   3.508   6.603  11.770 -0.4724  2.4593  0.1423
 9986TIP3   OH251448   6.321   6.284  13.988 -0.6280 -0.4995 -0.1276
 9986TIP3    H151449   6.345   6.195  14.014  0.9804  0.1188  0.6691
 9986TIP3    H251450   6.404   6.326  13.967 -1.2547  1.0487  0.2874
 9987TIP3   OH251451   4.075   4.157   1.931 -0.2218 -0.2242 -0.4887
 9987TIP3    H151452   4.159   4.196   1.956 -0.2358 -0.8148  0.5442
 9987TIP3    H251453   4.070   4.076   1.982 -1.2075 -0.4354 -0.8973
 9988TIP3   OH251454   0.705   0.861   3.411  0.0852  0.0063  0.0401
 9988TIP3    H151455   0.657   0.889   3.332  1.6224  0.9577 -0.5939
 9988TIP3    H251456   0.684   0.927   3.476  3.3894  2.7203 -1.3378
 9989TIP3   OH251457   6.208   6.145   2.407  0.0519 -0.3391 -0.5703
 9989TIP3    H151458   6.270   6.103   2.347  0.8984 -1.5693  1.0861
 9989TIP3    H251459   6.255   6.222   2.438 -0.2915  0.1624 -1.2632
 9990TIP3   OH251460   4.587   4.251   2.689  0.6696 -0.6747 -1.2266
 9990TIP3    H151461   4.607   4.278   2.599 -1.6188 -0.6434 -1.8011
 9990TIP3    H251462   4.546   4.165   2.680 -0.6467 -0.1654 -0.3578
 9991TIP3   OH251463   4.688   1.479  11.359 -0.4924 -0.0644 -0.0872
 9991TIP3    H151464   4.727   1.429  11.288 -1.6349 -1.4892  0.2420
 9991TIP3    H251465   4.756   1.481  11.427  0.2070  0.3908 -0.7814
 9992TIP3   OH251466   4.647   1.842   1.408 -0.2008 -0.8068  0.5758
 9992TIP3    H151467   4.585   1.795   1.463 -0.9029 -1.1384 -0.4636
 9992TIP3    H251468   4.595   1.909   1.365  1.0223  1.9131  3.0209
 9993TIP3   OH251469   0.958   5.215   0.829 -0.3058  0.6056 -0.0986
 9993TIP3    H151470   1.035   5.173   0.792 -0.3833 -0.1698  0.5738
 9993TIP3    H251471   0.971   5.208   0.924 -1.2223  0.3998  0.0225
 9994TIP3   OH251472   1.935   3.787  16.545 -0.2736  0.3515  0.5302
 9994TIP3    H151473   1.853   3.802  16.497 -0.6077 -2.2847  0.1017
 9994TIP3    H251474   2.001   3.778  16.477 -0.1968 -0.4402  0.6977
 9995TIP3   OH251475   2.788   3.860   1.005 -1.0549  0.8453  0.2319
 9995TIP3    H151476   2.773   3.766   0.994 -1.1616  1.0556 -1.7239
 9995TIP3    H251477   2.729   3.901   0.942  1.2680  2.0686 -1.2689
 9996TIP3   OH251478   0.106   5.269  16.864 -0.2439 -0.2482 -0.5079
 9996TIP3    H151479   0.078   5.185  16.900 -0.6539  0.2005  0.2345
 9996TIP3    H251480   0.026   5.320  16.857  0.1713  0.5196  0.2160
 9997TIP3   OH251481   5.831   5.587  13.864 -0.5313  0.3687  0.2129
 9997TIP3    H151482   5.769   5.639  13.916  0.1034  0.6584  0.6880
 9997TIP3    H251483   5.789   5.502  13.856 -1.1040  0.6311  0.3341
 9998TIP3   OH251484   4.773   3.804  13.535 -0.3211  0.2020  0.0784
 9998TIP3    H151485   4.865   3.795  13.558 -0.2586  1.0823  0.2072
 9998TIP3    H251486   4.754   3.730  13.478  0.2031 -0.5549  0.8632
 9999TIP3   OH251487   5.582   4.829  14.304  0.5521 -0.0002  0.3405
 9999TIP3    H151488   5.656   4.795  14.355  1.1915 -1.7041 -1.5999
 9999TIP3    H251489   5.614   4.911  14.266  1.6915 -0.9806 -0.9101
10000TIP3   OH251490   6.588   5.075   3.745 -0.3970  0.1832  0.0565
10000TIP3    H151491   6.533   4.997   3.737 -0.2533  0.1573 -0.7718
10000TIP3    H251492   6.659   5.061   3.681 -0.0781  0.7481  0.2807
10001TIP3   OH251493   2.818   0.611  16.538 -0.1311 -0.4786  0.0556
10001TIP3    H151494   2.750   0.615  16.606  0.0747 -1.9770  0.3887
10001TIP3    H251495   2.847   0.701  16.528 -0.3440 -0.1749  1.8020
10002TIP3   OH251496   6.446   5.868   4.652  0.0909  0.2997 -0.1746
10002TIP3    H151497   6.476   5.934   4.714 -0.6582 -0.3095  0.8668
10002TIP3    H251498   6.351   5.867   4.661  0.0711 -0.7620 -0.3211
10003TIP3   OH251499   5.001   0.845  13.835  0.2592  0.3226 -0.3268
10003TIP3    H151500   4.922   0.793  13.845  1.6061 -1.6298  0.7136
10003TIP3    H251501   5.068   0.782  13.810  1.1851  2.1859 -2.9189
10004TIP3   OH251502   2.583   4.411   6.083 -0.4913 -0.2377  0.2424
10004TIP3    H151503   2.654   4.472   6.062 -1.0936  0.5490  0.4702
10004TIP3    H251504   2.610   4.329   6.041  0.1340  0.2865 -0.4167
10005TIP3   OH251505   3.772   5.139   1.131  0.0385 -0.6907  0.1412
10005TIP3    H151506   3.810   5.206   1.188  0.9625 -0.5077 -0.6709
10005TIP3    H251507   3.833   5.065   1.137  1.0235 -0.0951 -1.8131
10006TIP3   OH251508   0.907   5.686   2.254  0.0840 -0.1968 -0.5154
10006TIP3    H151509   0.854   5.737   2.315  1.5034  0.9667 -0.1992
10006TIP3    H251510   0.870   5.598   2.259 -1.7020  0.5058 -0.2012
10007TIP3   OH251511   5.441   0.547   6.703  0.3602  0.1033 -0.1955
10007TIP3    H151512   5.354   0.546   6.742  0.4958 -0.8384  0.0895
10007TIP3    H251513   5.424   0.559   6.609  0.0375  2.3344  0.0748
10008TIP3   OH251514   4.854   5.120  16.698 -0.6575 -0.4568 -0.6017
10008TIP3    H151515   4.929   5.082  16.742 -0.5607 -0.3395 -0.6632
10008TIP3    H251516   4.887   5.203  16.661 -1.4824  0.9942  1.7143
10009TIP3   OH251517   0.858   3.732   2.782 -0.8445 -0.0467 -0.7158
10009TIP3    H151518   0.804   3.782   2.843 -0.1013 -0.8911  0.7116
10009TIP3    H251519   0.934   3.788   2.767 -0.5956 -0.2079 -0.1052
10010TIP3   OH251520   0.730   2.062   3.857  0.4232 -0.5291 -0.5006
10010TIP3    H151521   0.773   2.085   3.939  1.0284 -1.8638 -0.4168
10010TIP3    H251522   0.649   2.018   3.884  1.4756 -2.5776 -0.5552
10011TIP3   OH251523   5.078   2.177  13.104  0.5194  0.1383  0.0548
10011TIP3    H151524   5.093   2.228  13.025 -1.0560 -0.1321 -0.4427
10011TIP3    H251525   4.995   2.209  13.138 -1.1648 -2.8504 -0.9324
10012TIP3   OH251526   2.646   0.070   3.079  0.4869 -0.3071  0.1617
10012TIP3    H151527   2.574   0.090   3.020  0.8762 -0.0595 -0.2382
10012TIP3    H251528   2.644   0.141   3.144  1.0577  0.3368 -0.5005
10013TIP3   OH251529   3.882   3.341  16.616 -0.7787  0.2974  0.4283
10013TIP3    H151530   3.965   3.338  16.568 -0.2941 -0.7139  1.2845
10013TIP3    H251531   3.868   3.434  16.633  0.2427  0.4820  0.3630
10014TIP3   OH251532   4.875   5.435  10.890 -0.1893 -0.0614  0.4299
10014TIP3    H151533   4.907   5.348  10.913 -2.4033 -0.6630  1.6085
10014TIP3    H251534   4.940   5.471  10.830  0.7508 -2.5344 -0.1112
10015TIP3   OH251535   4.868   4.229  13.143  0.2422 -0.2572  0.6581
10015TIP3    H151536   4.939   4.293  13.152 -0.5027  0.6942 -0.0216
10015TIP3    H251537   4.807   4.251  13.214 -1.4350  1.7262 -1.2555
10016TIP3   OH251538   4.662   3.661  11.574  0.0642 -0.1336  0.0778
10016TIP3    H151539   4.589   3.639  11.632  0.4429  2.0559  1.5009
10016TIP3    H251540   4.625   3.723  11.512  0.4953  0.2927  0.2439
10017TIP3   OH251541   2.009   4.829  16.930  0.0371 -0.0874  0.5838
10017TIP3    H151542   1.935   4.806  16.874 -0.1045  1.2586  0.1770
10017TIP3    H251543   2.086   4.798  16.882 -0.1557  0.0882  0.1554
10018TIP3   OH251544   1.291   5.445   0.533  0.6141  0.0524  0.2507
10018TIP3    H151545   1.382   5.473   0.545  1.7217 -3.4812  1.3444
10018TIP3    H251546   1.268   5.403   0.615 -0.7852 -2.0787 -1.1215
10019TIP3   OH251547   0.797   0.734  11.846 -0.3387  0.2329  0.1908
10019TIP3    H151548   0.835   0.815  11.883  0.7761 -1.1207  2.2425
10019TIP3    H251549   0.873   0.684  11.816 -0.7193 -1.2531  1.5879
10020TIP3   OH251550   3.392   6.207  11.471 -0.3146  0.2688  0.1417
10020TIP3    H151551   3.398   6.301  11.454 -1.0860  0.6808  1.8361
10020TIP3    H251552   3.448   6.193  11.548  1.2902 -1.0360 -1.2001
10021TIP3   OH251553   6.384   5.679  16.331 -0.2919 -0.2784 -0.0931
10021TIP3    H151554   6.424   5.666  16.417 -0.7382 -1.7373 -0.0850
10021TIP3    H251555   6.289   5.677  16.348 -0.3883  0.3839 -0.5005
10022TIP3   OH251556   3.951   0.025  14.073 -0.0943  0.0897  0.4391
10022TIP3    H151557   3.906  -0.013  13.997 -0.4762 -0.9976  1.1913
10022TIP3    H251558   4.006  -0.047  14.106  0.5502  0.7461  0.8185
10023TIP3   OH251559   4.628   5.417   1.847 -0.5161 -0.1094 -0.7051
10023TIP3    H151560   4.688   5.355   1.890 -0.0391 -0.2034 -1.4760
10023TIP3    H251561   4.580   5.458   1.919  1.0886  0.6041  0.0111
10024TIP3   OH251562   6.745   3.738  11.086 -0.5930  0.0406  0.7356
10024TIP3    H151563   6.666   3.693  11.056  0.3602 -2.0964  1.2499
10024TIP3    H251564   6.790   3.763  11.005 -1.2157  0.2146  0.4359
10025TIP3   OH251565   4.299   2.176  13.066  0.3106 -0.0417 -0.0290
10025TIP3    H151566   4.323   2.203  13.155 -1.1042  0.6289  0.1702
10025TIP3    H251567   4.321   2.251  13.011 -3.8014  1.8358  0.5511
10026TIP3   OH251568   5.660   0.881   6.546  0.3266  0.1537  0.1273
10026TIP3    H151569   5.644   0.973   6.524  1.6732  0.1416 -0.9996
10026TIP3    H251570   5.572   0.842   6.549 -0.1599  1.0563 -1.3146
10027TIP3   OH251571   1.443   5.461   5.544  0.0528  0.4144  0.1743
10027TIP3    H151572   1.529   5.419   5.551  0.8210  1.8883  0.0636
10027TIP3    H251573   1.381   5.396   5.578  1.4658  0.1798  2.5277
10028TIP3   OH251574   6.521   6.444   1.091 -0.0272  0.1808  0.0295
10028TIP3    H151575   6.502   6.415   1.180  1.4798  0.7695  0.5675
10028TIP3    H251576   6.592   6.388   1.061  1.4217  1.8102  0.2770
10029TIP3   OH251577   3.064   5.925   2.363 -0.3606 -0.0853  0.4196
10029TIP3    H151578   3.072   5.949   2.455 -0.7519  0.4246  0.3283
10029TIP3    H251579   3.152   5.897   2.337  0.2013  1.5792  0.4526
10030TIP3   OH251580   3.822   4.046  16.733  0.1918 -0.2509 -0.4842
10030TIP3    H151581   3.874   4.116  16.773  0.8830 -0.6922 -0.5935
10030TIP3    H251582   3.859   3.965  16.768 -0.0090 -0.5969 -1.0559
10031TIP3   OH251583   4.476   5.128   0.412  0.1095 -0.1875 -0.3307
10031TIP3    H151584   4.567   5.160   0.411 -0.2599  1.0421  1.1150
10031TIP3    H251585   4.429   5.189   0.356 -0.4348  1.4360  1.7496
10032TIP3   OH251586   3.867   5.720   5.429  0.0570  1.0983 -0.1354
10032TIP3    H151587   3.907   5.677   5.504 -1.1850 -2.0956 -1.1756
10032TIP3    H251588   3.935   5.780   5.398  0.3236  3.2373  3.8828
10033TIP3   OH251589   1.610   0.642   3.073  0.6267 -0.0752 -0.8231
10033TIP3    H151590   1.681   0.705   3.088  1.0921 -0.7746 -0.0488
10033TIP3    H251591   1.548   0.690   3.018  1.3411  0.7990 -0.8988
10034TIP3   OH251592   2.687   2.050  16.724 -0.0312  0.0312  0.0489
10034TIP3    H151593   2.728   2.114  16.666 -0.0123 -1.4394 -1.6724
10034TIP3    H251594   2.708   1.965  16.683 -0.3980 -1.0461  2.0037
10035TIP3   OH251595   0.390   2.201   4.006  0.5034  0.1877 -0.6650
10035TIP3    H151596   0.436   2.191   3.923  1.8660 -1.4782  0.2486
10035TIP3    H251597   0.374   2.112   4.036  0.9742  0.7354  1.3620
10036TIP3   OH251598   5.773   5.109  11.518  0.1683 -0.0059 -0.0475
10036TIP3    H151599   5.738   5.035  11.469  1.2266 -2.3267  2.4957
10036TIP3    H251600   5.865   5.112  11.494  0.2651  0.1094  0.3387
10037TIP3   OH251601   0.354   1.164  16.405  0.0556  0.3663  0.0312
10037TIP3    H151602   0.436   1.138  16.362  1.6818  1.2533  2.3800
10037TIP3    H251603   0.304   1.209  16.337  1.2115 -0.7478 -1.6365
10038TIP3   OH251604   2.997   0.937  14.159 -0.1263 -0.1839  0.4989
10038TIP3    H151605   2.923   0.981  14.117 -0.2695 -1.2215 -0.3979
10038TIP3    H251606   2.957   0.867  14.210  0.2184 -0.8599 -0.1306
10039TIP3   OH251607   4.734   1.656  12.296 -0.4242 -0.1432  0.1232
10039TIP3    H151608   4.752   1.691  12.209 -2.7199 -2.3697 -1.4105
10039TIP3    H251609   4.696   1.729  12.345  0.4059  1.0023 -0.9005
10040TIP3   OH251610   2.527   2.524   2.770  0.0238 -0.2200  0.3161
10040TIP3    H151611   2.463   2.464   2.731  1.5454  0.0544 -3.0279
10040TIP3    H251612   2.572   2.471   2.836 -1.5247 -1.3694  0.5054
10041TIP3   OH251613   3.921   4.000   6.206  0.3181 -0.3261  0.0350
10041TIP3    H151614   3.834   3.960   6.211 -0.0283  0.3272 -0.5687
10041TIP3    H251615   3.914   4.078   6.260  0.1873  0.3114 -0.8772
10042TIP3   OH251616   4.516   5.069   1.250  0.4574  0.1901 -0.2348
10042TIP3    H151617   4.517   4.997   1.313  3.2902  0.4313  0.1588
10042TIP3    H251618   4.479   5.032   1.170 -0.0110 -1.0998  0.5646
10043TIP3   OH251619   5.129   3.486   2.558 -0.0477  0.1973  0.0202
10043TIP3    H151620   5.050   3.492   2.612 -0.5333 -0.1522 -0.6310
10043TIP3    H251621   5.101   3.434   2.482  1.5683 -2.6408  1.2071
10044TIP3   OH251622   4.842   5.142   0.024 -0.1437  0.1195 -0.4515
10044TIP3    H151623   4.936   5.160   0.021  0.3927 -2.2904 -0.0441
10044TIP3    H251624   4.824   5.126   0.117 -0.0409 -3.3128 -0.8970
10045TIP3   OH251625   6.058   1.636   1.538 -0.1806 -0.3941 -0.1320
10045TIP3    H151626   6.133   1.637   1.597 -0.2450  0.9672 -0.0456
10045TIP3    H251627   6.093   1.608   1.454  0.3374 -0.1418  0.0031
10046TIP3   OH251628   0.936   1.987  10.586  0.0838 -0.0233  0.3248
10046TIP3    H151629   0.982   2.036  10.655 -0.8029  0.0220  0.9104
10046TIP3    H251630   0.919   1.901  10.626 -3.5486  1.0942  1.6081
10047TIP3   OH251631   5.189   4.049   0.110 -0.1370  0.0954 -0.3813
10047TIP3    H151632   5.215   4.133   0.148  0.0130 -0.2973  0.3981
10047TIP3    H251633   5.174   4.069   0.017 -0.5106  1.0629 -0.1248
10048TIP3   OH251634   4.747   5.596   2.902  0.6224  0.0313  1.0215
10048TIP3    H151635   4.839   5.579   2.923  0.5654 -1.6420  0.0642
10048TIP3    H251636   4.707   5.509   2.896 -0.9137  0.7124  0.9244
10049TIP3   OH251637   3.180   0.995   4.443 -0.0260  0.2821  0.0650
10049TIP3    H151638   3.189   0.912   4.490  0.4420 -0.3651 -1.1231
10049TIP3    H251639   3.188   1.062   4.511  0.1555 -0.6305  0.9675
10050TIP3   OH251640   0.610   4.777  15.032 -0.6706  0.4160 -0.3323
10050TIP3    H151641   0.586   4.730  15.112  2.7099 -0.0218  0.5782
10050TIP3    H251642   0.630   4.709  14.968 -1.0520  0.7336 -0.8009
10051TIP3   OH251643   3.805   0.308  11.723 -0.7310  0.0489  0.0857
10051TIP3    H151644   3.768   0.232  11.677  1.4183  0.2726 -2.2267
10051TIP3    H251645   3.803   0.379  11.658 -1.0087  1.4732  1.6008
10052TIP3   OH251646   2.993   5.594  14.685 -0.2898 -0.1261 -0.6967
10052TIP3    H151647   3.072   5.647  14.681  0.0537 -0.5178  0.5381
10052TIP3    H251648   2.964   5.586  14.594  3.4711 -3.5982 -1.8655
10053TIP3   OH251649   6.309   2.000  15.066  0.0338  0.3182  0.1922
10053TIP3    H151650   6.391   1.968  15.027  0.7566 -0.1168  1.9769
10053TIP3    H251651   6.255   1.922  15.075  0.1953  0.2717  0.7975
10054TIP3   OH251652   3.088   5.291   2.267  0.7813 -0.1576 -0.2367
10054TIP3    H151653   3.079   5.386   2.263 -0.7170 -0.1812  1.5273
10054TIP3    H251654   3.002   5.257   2.242  1.5651 -1.1223 -1.7767
10055TIP3   OH251655   0.368   3.800   5.338  0.4856  0.4968  0.3564
10055TIP3    H151656   0.339   3.881   5.298  1.8333  1.6981  1.6652
10055TIP3    H251657   0.357   3.814   5.432 -0.3467 -1.3097  0.5813
10056TIP3   OH251658   5.191   6.830  15.725  0.1029 -0.0244  0.1538
10056TIP3    H151659   5.242   6.844  15.645  0.5008 -0.8411  0.2497
10056TIP3    H251660   5.114   6.886  15.715  1.2406  1.6440  0.2253
10057TIP3   OH251661   6.118   5.338   1.296  0.3726  0.0362  0.3990
10057TIP3    H151662   6.110   5.340   1.392  0.5902  0.5047  0.4104
10057TIP3    H251663   6.037   5.378   1.265  0.7774  0.8922  0.4175
10058TIP3   OH251664   0.024   1.691  13.212 -0.4550  0.2468 -0.2422
10058TIP3    H151665   0.099   1.632  13.209 -1.0998 -0.5424 -1.3810
10058TIP3    H251666  -0.051   1.634  13.227 -0.9754  0.8864 -0.3806
10059TIP3   OH251667   2.576   4.454  13.801 -0.4449  0.4570  0.2683
10059TIP3    H151668   2.515   4.521  13.832 -1.8195 -1.2225  1.3950
10059TIP3    H251669   2.532   4.414  13.726 -0.9975 -1.0281  1.3266
10060TIP3   OH251670   4.066   6.759   0.253 -0.4657 -0.2276  0.2175
10060TIP3    H151671   4.081   6.699   0.326 -0.6591 -0.5799 -0.0309
10060TIP3    H251672   4.110   6.718   0.179  1.3145  1.0297  0.5358
10061TIP3   OH251673   0.491   2.063   3.116 -0.2445 -0.4010  0.3395
10061TIP3    H151674   0.533   1.991   3.069  0.1983  0.4373 -0.6071
10061TIP3    H251675   0.496   2.038   3.208  0.9529 -1.0419  0.1232
10062TIP3   OH251676   4.968   0.751   3.534 -0.4770  0.2867 -0.5889
10062TIP3    H151677   4.944   0.765   3.626 -2.5357  1.0868 -1.1951
10062TIP3    H251678   4.888   0.720   3.493  0.8120 -1.5144 -1.8563
10063TIP3   OH251679   2.604   1.331   3.635 -0.7075 -0.1923 -0.0614
10063TIP3    H151680   2.540   1.312   3.566 -0.1417  0.0298 -0.6610
10063TIP3    H251681   2.551   1.341   3.714 -1.3564 -0.5950 -0.4299
10064TIP3   OH251682   1.586   2.147   3.498  0.4519 -0.4445 -0.0586
10064TIP3    H151683   1.632   2.227   3.525  0.3310  0.2697 -1.7824
10064TIP3    H251684   1.507   2.145   3.552  0.6511  0.3944  0.2900
10065TIP3   OH251685   0.527   0.565  13.011  0.4229 -0.1637 -0.2672
10065TIP3    H151686   0.605   0.565  13.067 -0.2057 -0.1662  0.6197
10065TIP3    H251687   0.490   0.478  13.021  0.0277 -0.0009 -0.2914
10066TIP3   OH251688   2.110   5.717   4.018 -0.6199  0.1672  0.2507
10066TIP3    H151689   2.190   5.729   4.068 -0.0919  1.9610 -0.9111
10066TIP3    H251690   2.059   5.796   4.035 -0.3837  0.9001 -1.9743
10067TIP3   OH251691   1.341   2.684   3.869  0.0344 -0.1406 -0.4573
10067TIP3    H151692   1.366   2.733   3.947  0.3140 -1.1312  0.0886
10067TIP3    H251693   1.265   2.632   3.896  0.4465 -0.8771 -0.6861
10068TIP3   OH251694   4.246   2.700  14.873  0.1510  0.3543  0.1555
10068TIP3    H151695   4.153   2.710  14.853 -0.4821  2.2396  3.2981
10068TIP3    H251696   4.248   2.635  14.944  1.2740  0.2289  0.0236
10069TIP3   OH251697   5.348   0.579  12.188 -0.5183 -0.1280  0.0368
10069TIP3    H151698   5.419   0.625  12.231 -0.5737  0.0092 -0.0178
10069TIP3    H251699   5.319   0.514  12.252 -0.6073  0.0828  0.2102
10070TIP3   OH251700   0.876   2.710  14.880  0.8964  0.4014 -0.3931
10070TIP3    H151701   0.969   2.715  14.860  0.4529  1.3888 -2.4066
10070TIP3    H251702   0.859   2.785  14.937  1.5129 -0.4588  0.9852
10071TIP3   OH251703   1.558   3.548   2.588  0.1406 -0.1215  0.0586
10071TIP3    H151704   1.633   3.491   2.605 -0.5983 -1.0632  0.2550
10071TIP3    H251705   1.561   3.613   2.658  0.0945 -0.8781  0.7861
10072TIP3   OH251706   1.311   4.291   4.073 -0.2197 -0.0480  0.3849
10072TIP3    H151707   1.234   4.300   4.016 -0.0871 -1.8575 -0.1427
10072TIP3    H251708   1.371   4.235   4.023  2.0617  2.3180  0.1968
10073TIP3   OH251709   4.380   0.005  12.691  0.3740  0.0771 -0.0981
10073TIP3    H151710   4.404  -0.035  12.607  1.3491 -0.0315  0.2161
10073TIP3    H251711   4.334   0.085  12.667 -0.2667 -0.4684 -0.7350
10074TIP3   OH251712   2.445   4.566  15.732 -0.0901  0.2009 -0.2462
10074TIP3    H151713   2.531   4.540  15.767 -0.7803 -1.5194  0.2789
10074TIP3    H251714   2.458   4.570  15.637  0.2666 -1.5156 -0.3177
10075TIP3   OH251715   6.003   1.359   5.496 -0.1737  0.3267  0.1608
10075TIP3    H151716   6.042   1.356   5.584  2.5101  0.9419 -0.9088
10075TIP3    H251717   6.057   1.422   5.449 -0.2974 -1.4025 -2.4798
10076TIP3   OH251718   4.317   1.247   4.865  0.4571  0.2019 -0.7784
10076TIP3    H151719   4.400   1.208   4.894  0.0968 -0.6057 -0.8115
10076TIP3    H251720   4.308   1.326   4.918  0.5287 -0.4813  0.2668
10077TIP3   OH251721   2.642   5.290   0.859  0.3916  0.0269 -0.2457
10077TIP3    H151722   2.596   5.293   0.775 -0.6615  0.0860  0.3125
10077TIP3    H251723   2.573   5.307   0.924  0.7852 -2.0396  0.7831
10078TIP3   OH251724   3.513   1.574   6.024 -0.0887 -0.1042  0.3592
10078TIP3    H151725   3.445   1.517   5.987 -1.1367  0.6596  1.0189
10078TIP3    H251726   3.563   1.518   6.083 -0.8884 -0.4317  0.7414
10079TIP3   OH251727   2.882   5.072   3.048  0.1016 -0.4045 -0.2744
10079TIP3    H151728   2.877   4.991   2.997  0.9398 -0.5382 -0.1485
10079TIP3    H251729   2.906   5.045   3.136 -1.7665 -0.2121  0.3444
10080TIP3   OH251730   6.180   2.294   1.761 -0.6048  0.1045 -0.5200
10080TIP3    H151731   6.209   2.279   1.671  0.1773 -0.0383 -0.2552
10080TIP3    H251732   6.257   2.275   1.815 -0.7894  1.0525  0.1205
10081TIP3   OH251733   1.353   6.642  16.834 -0.2144  0.1660  0.3933
10081TIP3    H151734   1.402   6.711  16.880 -0.0684 -0.3723  1.0543
10081TIP3    H251735   1.311   6.688  16.762 -1.9627  1.4406  2.1000
10082TIP3   OH251736   5.419   1.279  13.705  0.1782 -0.4973 -0.1074
10082TIP3    H151737   5.344   1.306  13.652  0.3992  0.0955 -0.1277
10082TIP3    H251738   5.495   1.321  13.664  0.4989 -0.9181  0.0372
10083TIP3   OH251739   2.086   0.016   0.588  0.5196  0.2936 -0.5201
10083TIP3    H151740   2.032  -0.002   0.665  0.4517 -0.0701 -0.6519
10083TIP3    H251741   2.036   0.080   0.537 -0.3950 -0.9729 -1.2782
10084TIP3   OH251742   0.831   5.282  16.934 -0.4854 -0.5730  0.3407
10084TIP3    H151743   0.877   5.324  16.861 -0.3431 -0.6717  0.3717
10084TIP3    H251744   0.742   5.270  16.903 -0.6745  0.2633  0.5336
10085TIP3   OH251745   4.259   2.424   1.359 -0.3153  0.1395  0.0169
10085TIP3    H151746   4.267   2.385   1.446  0.0602  1.1445  0.4449
10085TIP3    H251747   4.342   2.467   1.343 -1.0576  1.6330  0.0019
10086TIP3   OH251748   2.198   6.638   0.781  0.2216 -0.1997 -0.3212
10086TIP3    H151749   2.275   6.589   0.753  1.5642  1.6100  0.0720
10086TIP3    H251750   2.175   6.692   0.705  0.4871  0.6349  0.1820
10087TIP3   OH251751   4.926   2.757   1.356 -0.5337  0.2055 -0.3671
10087TIP3    H151752   4.986   2.689   1.387 -0.4561 -0.1174 -1.1949
10087TIP3    H251753   4.855   2.758   1.420 -2.0139 -2.6673 -1.7384
10088TIP3   OH251754   5.633   4.908  12.550  0.4598 -0.6621  0.2786
10088TIP3    H151755   5.600   4.862  12.627  0.5952  0.0242  0.7641
10088TIP3    H251756   5.570   4.888  12.480 -0.0888 -0.6817  0.7724
10089TIP3   OH251757   1.421   2.979   1.734  0.2276 -0.0526 -0.0933
10089TIP3    H151758   1.419   2.885   1.721  0.1343 -0.1241  0.3960
10089TIP3    H251759   1.459   3.014   1.654  1.0275 -0.5702  0.0400
10090TIP3   OH251760   6.348   0.323   3.784  0.1758 -0.0251 -0.0013
10090TIP3    H151761   6.344   0.244   3.838  0.3015 -0.7493 -1.0228
10090TIP3    H251762   6.267   0.370   3.806  0.4761 -0.0196  1.1993
10091TIP3   OH251763   2.901   5.401   5.106  0.0671 -0.0762 -0.5718
10091TIP3    H151764   2.954   5.360   5.174  3.3279 -0.1426 -2.9669
10091TIP3    H251765   2.820   5.350   5.106 -0.1836  0.0079  3.2245
10092TIP3   OH251766   4.851   4.035   1.411  0.0717 -0.0745  0.2717
10092TIP3    H151767   4.868   4.019   1.318  0.2252 -1.2533  0.4881
10092TIP3    H251768   4.890   3.960   1.456 -1.0143 -0.1144  1.1967
10093TIP3   OH251769   2.431   6.538  14.679  0.3928 -0.2529  0.7050
10093TIP3    H151770   2.453   6.603  14.612 -1.9672 -0.4064 -0.3089
10093TIP3    H251771   2.407   6.460  14.629  2.1847 -1.6347  1.8749
10094TIP3   OH251772   0.498   6.659   2.912 -0.2852  0.2302  0.5886
10094TIP3    H151773   0.428   6.673   2.976 -1.7900 -1.7908 -0.4678
10094TIP3    H251774   0.519   6.566   2.920  1.9274  0.6707  0.4524
10095TIP3   OH251775   2.743   2.209   3.613  0.6066  0.6802  0.2859
10095TIP3    H151776   2.815   2.266   3.641  0.3232  0.5438  1.3270
10095TIP3    H251777   2.785   2.126   3.592  1.0772  1.3431 -1.6237
10096TIP3   OH251778   4.896   2.244   3.377 -0.3472 -0.0908 -0.1558
10096TIP3    H151779   4.875   2.176   3.441  0.1059  0.4250  0.5641
10096TIP3    H251780   4.816   2.297   3.371 -0.2802  0.0582  0.2439
10097TIP3   OH251781   3.407   0.257  14.653  0.0119  0.3885  0.2527
10097TIP3    H151782   3.316   0.286  14.663 -0.0464 -0.1341  1.5225
10097TIP3    H251783   3.404   0.188  14.587 -0.3335  1.1412 -0.5242
10098TIP3   OH251784   3.745   2.882   6.019  0.2570 -0.5144 -0.1502
10098TIP3    H151785   3.674   2.858   5.959  0.3661 -0.6089 -0.2421
10098TIP3    H251786   3.733   2.823   6.094  2.3720 -3.1101 -1.6815
10099TIP3   OH251787   3.901   4.483  15.761 -0.3732 -0.1494 -0.0404
10099TIP3    H151788   3.953   4.537  15.822 -0.9209  0.3029  0.0354
10099TIP3    H251789   3.963   4.460  15.692  0.6835 -1.9114  1.3851
10100TIP3   OH251790   5.095   3.493  10.471  0.0260  0.8653 -0.7002
10100TIP3    H151791   5.052   3.531  10.394 -0.8013 -0.0247 -0.7011
10100TIP3    H251792   5.066   3.401  10.472  3.3275 -0.3380 -1.7363
10101TIP3   OH251793   1.237   4.296   5.035 -0.8843 -0.2000 -0.1243
10101TIP3    H151794   1.175   4.299   4.963 -0.8416 -0.5731 -0.1772
10101TIP3    H251795   1.323   4.301   4.993 -0.8656 -0.0639 -0.0737
10102TIP3   OH251796   0.588   3.738  15.163 -0.4198  0.2570 -0.4564
10102TIP3    H151797   0.639   3.714  15.241  0.7788  2.0458 -0.6135
10102TIP3    H251798   0.508   3.777  15.198 -1.1097 -1.3364 -0.1867
10103TIP3   OH251799   0.210   5.474   0.034 -0.3289 -0.2524 -0.8660
10103TIP3    H151800   0.126   5.472  -0.013 -1.3837 -0.3711  0.9277
10103TIP3    H251801   0.217   5.387   0.073 -0.8172  0.6481  1.3640
10104TIP3   OH251802   0.997   3.727   5.929  0.5051  0.0804  0.1243
10104TIP3    H151803   1.020   3.776   6.007 -1.5070 -0.3392  1.0216
10104TIP3    H251804   0.979   3.639   5.960 -0.0525 -0.1699 -0.8590
10105TIP3   OH251805   2.471   1.659  14.838  0.3489 -0.9240 -0.4134
10105TIP3    H151806   2.385   1.700  14.844  1.0458  0.5394 -0.1282
10105TIP3    H251807   2.479   1.608  14.918  0.0134 -0.5526 -0.1424
10106TIP3   OH251808   1.117   1.841   5.370  0.1334 -0.5310 -0.0575
10106TIP3    H151809   1.165   1.871   5.294  1.4100 -1.8455  0.1766
10106TIP3    H251810   1.138   1.904   5.439  0.2881 -0.2487 -0.3624
10107TIP3   OH251811   0.709   3.667  16.404 -0.2265 -0.7264 -0.5920
10107TIP3    H151812   0.650   3.729  16.360 -1.7254 -0.9112  1.0523
10107TIP3    H251813   0.702   3.587  16.352 -1.4907 -0.7658 -0.3933
10108TIP3   OH251814   6.407   0.607   5.248 -0.3407  0.3888 -0.1378
10108TIP3    H151815   6.469   0.646   5.311 -0.2397 -1.5082  1.0158
10108TIP3    H251816   6.321   0.628   5.284 -0.2920 -0.1999  0.3328
10109TIP3   OH251817   4.624   0.618   4.237 -0.1231  0.2241  0.5481
10109TIP3    H151818   4.589   0.686   4.179 -1.4015 -1.7472 -1.0962
10109TIP3    H251819   4.719   0.634   4.237  0.0870 -0.1785 -2.8565
10110TIP3   OH251820   0.778   4.846  16.772  0.1419  0.5072 -0.8517
10110TIP3    H151821   0.831   4.768  16.757  0.8845  0.7990  0.1006
10110TIP3    H251822   0.755   4.842  16.864  0.9497  1.8436 -0.5638
10111TIP3   OH251823   1.178   1.312   1.870 -0.3184 -0.9780  0.1427
10111TIP3    H151824   1.166   1.257   1.793  0.3617 -1.4495  0.3648
10111TIP3    H251825   1.273   1.322   1.878 -0.4201  0.1608  0.1629
10112TIP3   OH251826   3.683   3.075   4.603 -0.0809  0.2119  0.3794
10112TIP3    H151827   3.725   3.033   4.528 -0.6344  0.8061 -0.2891
10112TIP3    H251828   3.697   3.169   4.588 -1.1928  0.3962  0.3987
10113TIP3   OH251829   1.380   0.087  14.480  0.1899 -0.5373 -0.3512
10113TIP3    H151830   1.442   0.015  14.486  2.3297  1.2458  0.2598
10113TIP3    H251831   1.310   0.064  14.541 -0.1208 -2.8682 -1.4751
10114TIP3   OH251832   1.833   3.357  15.782 -0.1775  0.6071  0.6189
10114TIP3    H151833   1.848   3.304  15.860  0.3237  0.8261  0.6724
10114TIP3    H251834   1.919   3.391  15.759 -0.1046 -0.4117 -0.7252
10115TIP3   OH251835   4.992   6.798   2.798 -0.1131 -0.0189 -0.1007
10115TIP3    H151836   5.024   6.837   2.718 -0.1696  1.0044  0.3657
10115TIP3    H251837   4.917   6.852   2.824  1.5231  1.3524  2.0798
10116TIP3   OH251838   2.796   4.965  15.010 -0.6940 -0.7105 -0.0712
10116TIP3    H151839   2.704   4.981  14.988 -1.0102 -1.5805  0.5392
10116TIP3    H251840   2.798   4.874  15.041 -0.1115  0.0637  2.3934
10117TIP3   OH251841   0.417   4.979   1.134  0.4127 -0.7867  0.6567
10117TIP3    H151842   0.324   4.991   1.154  0.5843  0.9984  0.5089
10117TIP3    H251843   0.422   4.989   1.039  0.9007  0.3603  0.7869
10118TIP3   OH251844   4.684   0.354   5.181 -0.0914  0.3733  0.0784
10118TIP3    H151845   4.639   0.277   5.217  0.0038  0.6648  0.8375
10118TIP3    H251846   4.726   0.395   5.257  1.5803  0.0372 -0.6226
10119TIP3   OH251847   3.745   2.361  15.702  0.0316 -0.2053 -0.1175
10119TIP3    H151848   3.832   2.378  15.738  0.7071 -1.3947 -1.0762
10119TIP3    H251849   3.756   2.280  15.652 -1.3249  0.3037 -1.3093
10120TIP3   OH251850   1.635   1.004  14.091  0.0315  0.4723  0.2023
10120TIP3    H151851   1.691   1.051  14.030  2.8643 -3.5734 -0.7328
10120TIP3    H251852   1.669   1.027  14.178  2.1698 -0.6321 -0.2907
10121TIP3   OH251853   4.923   2.071   1.885  0.8549 -0.0497 -0.1572
10121TIP3    H151854   5.012   2.050   1.857  0.3074 -0.2085 -1.8802
10121TIP3    H251855   4.870   2.063   1.806 -0.2577  2.7445  0.1832
10122TIP3   OH251856   4.632   5.041   3.197  0.0971 -0.0346 -0.1924
10122TIP3    H151857   4.634   4.970   3.134  1.9152  1.0632 -1.4766
10122TIP3    H251858   4.569   5.013   3.264 -1.9294 -1.2586 -2.4521
10123TIP3   OH251859   0.296   0.489  13.177 -0.0182 -0.0016 -0.1303
10123TIP3    H151860   0.324   0.467  13.266 -0.2424 -0.0924 -0.0794
10123TIP3    H251861   0.369   0.537  13.140  0.6013 -1.0810 -0.3423
10124TIP3   OH251862   3.796   4.167   3.788 -0.3424 -0.5445 -0.0281
10124TIP3    H151863   3.703   4.152   3.807 -0.7051  0.6162 -0.7035
10124TIP3    H251864   3.798   4.256   3.752  0.8978 -0.9087 -0.9395
10125TIP3   OH251865   3.682   3.680   5.612 -0.4926 -0.2464  0.6705
10125TIP3    H151866   3.728   3.636   5.684  0.7162  1.5550  1.0549
10125TIP3    H251867   3.602   3.714   5.652 -1.6895 -2.3989  0.2617
10126TIP3   OH251868   2.116   6.738  11.276  0.0241  0.0155  0.1678
10126TIP3    H151869   2.182   6.707  11.339 -0.2808  1.1275  1.0710
10126TIP3    H251870   2.042   6.679  11.288  0.9406 -1.4897 -1.1263
10127TIP3   OH251871   4.441   6.650  10.572  0.1097 -0.2689 -0.1417
10127TIP3    H151872   4.360   6.674  10.615 -0.1034  1.9881 -1.6316
10127TIP3    H251873   4.426   6.561  10.539 -1.1409 -0.4871  0.9763
10128TIP3   OH251874   5.903   5.039  15.865  0.1781  0.3326  0.0103
10128TIP3    H151875   5.925   4.987  15.788 -0.8992  1.3448 -1.0257
10128TIP3    H251876   5.986   5.049  15.912  0.4808 -1.9341  0.0384
10129TIP3   OH251877   0.520   2.564   3.066  0.2120  0.1730  0.2978
10129TIP3    H151878   0.534   2.564   2.971 -1.6816 -2.3784 -0.0794
10129TIP3    H251879   0.571   2.490   3.097 -2.1420 -1.3972  0.6458
10130TIP3   OH251880   3.506   5.465   0.427  0.0169  0.1702  0.3260
10130TIP3    H151881   3.483   5.555   0.403 -0.3888  0.0615  0.2991
10130TIP3    H251882   3.484   5.458   0.519  0.4316  0.2201  0.4300
10131TIP3   OH251883   4.256   2.034  12.751  0.2151 -0.3319 -0.1373
10131TIP3    H151884   4.271   2.087  12.830  0.1497  2.0566 -1.6168
10131TIP3    H251885   4.332   2.052  12.696 -0.1037 -1.3696 -0.9411
10132TIP3   OH251886   0.194   2.223  13.072 -0.0631 -0.3226  0.1295
10132TIP3    H151887   0.268   2.172  13.106 -0.3637 -0.3441  0.7674
10132TIP3    H251888   0.138   2.237  13.148  1.0086  2.7936  0.4758
10133TIP3   OH251889   0.529   5.854  14.162 -0.4088 -0.4574 -0.0664
10133TIP3    H151890   0.509   5.843  14.256  1.0087  0.1406  0.3231
10133TIP3    H251891   0.462   5.915  14.131  0.8935  1.8386  1.3067
10134TIP3   OH251892   2.641   0.936  15.498  0.1208  0.2082  0.3344
10134TIP3    H151893   2.556   0.902  15.468  0.8890 -0.1802 -1.5961
10134TIP3    H251894   2.623   1.027  15.521 -0.8411  0.1318 -0.0487
10135TIP3   OH251895   0.607   2.885  16.846  0.0114  0.3991  0.5609
10135TIP3    H151896   0.621   2.965  16.796  2.8401  0.9632  2.0293
10135TIP3    H251897   0.647   2.816  16.794 -0.1992  0.3668  0.4412
10136TIP3   OH251898   1.593   4.845  11.115  0.2263  0.1290  0.1698
10136TIP3    H151899   1.684   4.833  11.089  0.3487  1.6118 -0.1648
10136TIP3    H251900   1.545   4.846  11.033 -0.2786 -1.8482  0.4010
10137TIP3   OH251901   1.654   0.751   3.738 -0.2786 -0.0729  0.3899
10137TIP3    H151902   1.630   0.837   3.706 -0.1210 -0.6732 -1.4371
10137TIP3    H251903   1.571   0.705   3.749 -0.2623 -0.3526 -0.6218
10138TIP3   OH251904   6.819   2.756  12.900 -0.1043 -0.5754 -0.2404
10138TIP3    H151905   6.861   2.800  12.974  0.5560 -0.3598 -0.7407
10138TIP3    H251906   6.888   2.704  12.860 -0.0447  0.4857 -1.6199
10139TIP3   OH251907   2.385   3.078   0.385 -0.3394 -0.5072  0.0027
10139TIP3    H151908   2.302   3.103   0.344 -0.2379 -0.9059 -0.4492
10139TIP3    H251909   2.377   3.109   0.475 -0.6985  0.0807 -0.2268
10140TIP3   OH251910   6.444   6.530  12.664  0.3097 -0.0204 -0.4215
10140TIP3    H151911   6.359   6.572  12.654  1.4623  2.6213 -0.0101
10140TIP3    H251912   6.447   6.465  12.594 -1.8730  0.0613 -0.6595
10141TIP3   OH251913   5.125   1.686   5.239 -0.0808 -0.4343  0.0988
10141TIP3    H151914   5.203   1.678   5.184 -0.8930 -0.3222 -1.1163
10141TIP3    H251915   5.146   1.635   5.317  1.0067 -0.8414 -0.4312
10142TIP3   OH251916   1.548   0.718   6.200 -0.0821 -0.1432 -0.4341
10142TIP3    H151917   1.532   0.645   6.141 -1.0138 -1.7843  1.6847
10142TIP3    H251918   1.638   0.706   6.230 -0.7987 -1.6394  1.3324
10143TIP3   OH251919   5.240   1.611   2.810 -0.4825 -0.0417  0.4076
10143TIP3    H151920   5.216   1.577   2.724  0.1416 -0.8279  0.5403
10143TIP3    H251921   5.226   1.706   2.803 -0.7199 -0.1343 -0.4609
10144TIP3   OH251922   3.118   5.857   1.465 -0.0840 -0.1550 -0.0854
10144TIP3    H151923   3.031   5.825   1.445 -0.4790 -0.0933  1.4150
10144TIP3    H251924   3.116   5.950   1.441 -0.7789  0.0968  0.8771
10145TIP3   OH251925   4.715   1.831  13.540 -0.5756 -0.2755  0.0606
10145TIP3    H151926   4.676   1.840  13.453 -1.3521 -0.4082  0.3850
10145TIP3    H251927   4.735   1.920  13.567 -3.0942  0.1084  0.9600
10146TIP3   OH251928   3.907   1.513  15.682 -0.2747  0.2453 -0.0253
10146TIP3    H151929   3.818   1.515  15.717 -0.2286 -1.9904  0.3688
10146TIP3    H251930   3.896   1.530  15.588 -0.8763  1.7726  0.2878
10147TIP3   OH251931   6.223   0.278   0.836  0.4525 -0.0569  0.0603
10147TIP3    H151932   6.225   0.260   0.742 -2.0567 -0.0478 -0.0821
10147TIP3    H251933   6.255   0.198   0.877  1.3794 -0.1395 -0.7929
10148TIP3   OH251934   0.879   6.563  12.298 -0.5058  0.1928  0.1438
10148TIP3    H151935   0.842   6.545  12.384 -0.1482 -0.3419  0.1902
10148TIP3    H251936   0.888   6.658  12.296 -0.9697  0.2491  0.5050
10149TIP3   OH251937   1.953   4.022  13.504  0.3736 -0.2659  0.1436
10149TIP3    H151938   2.041   4.046  13.474  0.1099 -0.4088 -0.7751
10149TIP3    H251939   1.899   4.097  13.481  0.0974 -0.5283 -0.0744
10150TIP3   OH251940   1.242   3.903   6.588 -0.0658  0.4194 -0.5847
10150TIP3    H151941   1.229   3.808   6.583  0.4560  0.4044 -2.6808
10150TIP3    H251942   1.155   3.938   6.606 -0.6720 -0.3677 -1.8495
10151TIP3   OH251943   2.953   4.509  16.657 -0.5023 -0.2088  0.2875
10151TIP3    H151944   2.951   4.417  16.684 -0.4524 -0.0798  0.7345
10151TIP3    H251945   2.937   4.558  16.737 -0.0334  0.1869  0.1462
10152TIP3   OH251946   3.511   6.474  16.760 -0.2888 -0.1271  0.2422
10152TIP3    H151947   3.429   6.518  16.741 -0.1278 -0.3790 -1.1413
10152TIP3    H251948   3.495   6.382  16.737 -0.2809 -0.6168  2.0508
10153TIP3   OH251949   4.303   5.785  16.813 -0.0930  0.0083 -0.9355
10153TIP3    H151950   4.346   5.742  16.739 -1.1976 -1.7507 -0.6313
10153TIP3    H251951   4.234   5.838  16.773 -1.9718 -2.4383 -1.2051
10154TIP3   OH251952   3.985   5.950   1.030 -0.6670  0.0912 -0.3588
10154TIP3    H151953   4.025   5.935   1.115 -1.3890 -1.3871 -0.2382
10154TIP3    H251954   3.948   5.865   1.006  0.9723 -0.0095 -2.9192
10155TIP3   OH251955   3.544   0.375  11.672  0.3608 -0.3510  0.2756
10155TIP3    H151956   3.567   0.368  11.580 -0.1359  1.0516  0.0278
10155TIP3    H251957   3.456   0.337  11.678 -0.1940  0.8277 -0.1087
10156TIP3   OH251958   3.363   1.033   0.460  0.1984  0.6263 -0.4609
10156TIP3    H151959   3.375   0.963   0.396  2.0617  0.7717 -0.3493
10156TIP3    H251960   3.386   1.113   0.412  0.5585  0.8575  0.0816
10157TIP3   OH251961   0.873   2.359  14.310 -0.1290  0.4993  0.2664
10157TIP3    H151962   0.798   2.340  14.366  0.5248  0.0428  1.0159
10157TIP3    H251963   0.917   2.432  14.354 -1.0352  1.9022 -1.0640
10158TIP3   OH251964   6.438   2.601   0.628 -0.3958  0.7258 -0.4385
10158TIP3    H151965   6.493   2.676   0.646  1.4898 -0.0318 -2.5503
10158TIP3    H251966   6.430   2.555   0.712 -0.3551  2.4478  0.5394
10159TIP3   OH251967   0.342   4.990   3.653  0.2022  0.1983  0.6352
10159TIP3    H151968   0.419   4.985   3.596 -1.4348 -1.6252 -1.6151
10159TIP3    H251969   0.331   4.901   3.686 -0.9418  0.4241  0.9097
10160TIP3   OH251970   6.299   0.130   4.036 -0.0478 -0.3495  0.3904
10160TIP3    H151971   6.371   0.067   4.030 -0.1827 -0.8591  2.9588
10160TIP3    H251972   6.342   0.215   4.042  0.1549 -0.1831 -2.2973
10161TIP3   OH251973   3.702   3.031   3.414 -0.2020  0.1647  0.5315
10161TIP3    H151974   3.693   3.118   3.454  1.7517  1.0959 -0.9002
10161TIP3    H251975   3.656   3.039   3.330 -1.0335 -0.5794  0.9076
10162TIP3   OH251976   3.088   3.380   3.933  0.8199 -0.1950 -0.1329
10162TIP3    H151977   3.016   3.327   3.898  0.6568  0.2810 -0.5380
10162TIP3    H251978   3.089   3.458   3.877  1.0136  0.2557  0.4925
10163TIP3   OH251979   5.995   2.450  11.198  0.6717 -0.6096 -0.1637
10163TIP3    H151980   6.082   2.429  11.230 -0.5191 -2.1929  2.2828
10163TIP3    H251981   5.949   2.366  11.194 -1.0455  0.2855 -0.4258
10164TIP3   OH251982   5.291   5.253  14.591 -0.0728  0.1311 -0.0394
10164TIP3    H151983   5.218   5.237  14.531  0.0743 -2.1096  0.2791
10164TIP3    H251984   5.251   5.293  14.668 -0.5633  1.1756 -0.8103
10165TIP3   OH251985   0.107   6.562  13.373 -0.6149 -0.4140 -0.3662
10165TIP3    H151986   0.042   6.625  13.341  1.0691  1.2103 -0.8145
10165TIP3    H251987   0.169   6.553  13.301  1.3351  0.5483  1.0865
10166TIP3   OH251988   2.358   6.451   0.651 -0.0062 -0.6180  0.1378
10166TIP3    H151989   2.360   6.369   0.602  0.3785  0.5931 -1.9944
10166TIP3    H251990   2.448   6.463   0.682  0.6951  0.3422 -2.0497
10167TIP3   OH251991   3.691   0.715   3.865  0.1191  0.9670 -0.5194
10167TIP3    H151992   3.698   0.802   3.904  3.6153  0.5232  0.1582
10167TIP3    H251993   3.746   0.659   3.921 -3.5620 -2.2586  0.3088
10168TIP3   OH251994   4.242   1.535  16.665  0.3251 -0.6233 -0.1868
10168TIP3    H151995   4.263   1.509  16.755 -0.1500 -3.6814 -0.8501
10168TIP3    H251996   4.320   1.582  16.635  1.2513 -1.1857  1.2158
10169TIP3   OH251997   0.291   3.743   2.307  0.0558  0.2686  0.5897
10169TIP3    H151998   0.210   3.713   2.348 -0.4583  0.9074  0.0398
10169TIP3    H251999   0.324   3.811   2.366 -0.0531  0.3449  0.5616
10170TIP3   OH252000   1.372   0.259   3.560 -0.2795 -0.8567  0.0496
10170TIP3    H152001   1.320   0.321   3.508  0.4852 -1.6182 -1.6689
10170TIP3    H252002   1.441   0.313   3.599  0.1266 -0.5266 -1.0875
10171TIP3   OH252003   1.740   3.800   5.107  0.0363  0.7477 -0.2440
10171TIP3    H152004   1.724   3.892   5.089  1.1827  1.1742  0.8138
10171TIP3    H252005   1.817   3.799   5.163  0.0642 -0.8615 -0.2566
10172TIP3   OH252006   1.828   3.276   3.670  0.1482  0.3446  0.6856
10172TIP3    H152007   1.794   3.361   3.699  0.1763  0.2022  1.1485
10172TIP3    H252008   1.917   3.295   3.640 -0.4062  0.7634 -0.7642
10173TIP3   OH252009   4.540   3.584  11.272  0.0173  0.2525  0.0742
10173TIP3    H152010   4.608   3.651  11.284 -0.5564  0.8305  0.1610
10173TIP3    H252011   4.561   3.544  11.187 -1.1402  2.3718 -1.2992
10174TIP3   OH252012   6.410   6.001   5.374  1.0847 -0.4183 -0.5617
10174TIP3    H152013   6.376   5.932   5.317  0.2794  0.1529 -0.7757
10174TIP3    H252014   6.490   5.963   5.411 -0.5469 -2.4186  1.1848
10175TIP3   OH252015   0.347   5.806   6.489  0.8316  0.3093 -0.4837
10175TIP3    H152016   0.258   5.836   6.510  0.8774  1.3207 -1.6156
10175TIP3    H252017   0.337   5.755   6.408  1.1484 -0.4742 -0.0411
10176TIP3   OH252018   4.270   2.178  15.564 -0.1150  0.7012 -0.2938
10176TIP3    H152019   4.323   2.125  15.623 -1.1363  0.0579  0.0656
10176TIP3    H252020   4.279   2.135  15.479 -1.0021 -0.1214  0.0127
10177TIP3   OH252021   2.596   4.789  13.256 -0.4464 -0.5584 -0.1056
10177TIP3    H152022   2.655   4.809  13.329  1.8224 -0.8074 -1.7836
10177TIP3    H252023   2.558   4.704  13.280 -0.7426 -0.0498  1.3501
10178TIP3   OH252024   5.570   6.040   1.408 -0.4093  0.1670  0.0410
10178TIP3    H152025   5.623   6.072   1.481 -0.3753  1.0111 -0.3478
10178TIP3    H252026   5.511   5.976   1.448 -0.1396  0.3470  0.7409
10179TIP3   OH252027   1.807   3.937  15.504 -0.4746  0.3637  0.2070
10179TIP3    H152028   1.834   4.023  15.471  0.5056  0.6456  1.6579
10179TIP3    H252029   1.872   3.876  15.470 -0.5416  0.3700  0.0693
10180TIP3   OH252030   0.157   6.083  12.794 -0.0223  0.4644 -0.1383
10180TIP3    H152031   0.094   6.153  12.778 -1.0948 -0.6893 -1.3166
10180TIP3    H252032   0.194   6.103  12.880 -0.4376  2.3345 -0.3503
10181TIP3   OH252033   4.098   2.321  11.248  0.1042  0.1879  0.1269
10181TIP3    H152034   4.112   2.254  11.315 -0.7857  0.3026  0.4424
10181TIP3    H252035   4.099   2.404  11.296 -1.2614  0.2230  0.1250
10182TIP3   OH252036   6.454   1.935  11.139  0.3117  0.0822 -0.2471
10182TIP3    H152037   6.391   1.902  11.074 -3.2580  1.8037  2.0476
10182TIP3    H252038   6.478   2.022  11.106  0.2712  0.0485 -0.3684
10183TIP3   OH252039   5.411   6.183   1.231 -0.4333 -0.1888  0.3848
10183TIP3    H152040   5.443   6.156   1.145  0.0371 -0.4457  0.6310
10183TIP3    H252041   5.473   6.143   1.292  0.1346  1.2409  0.7710
10184TIP3   OH252042   2.297   5.923   0.155 -0.1264 -0.1337  0.2598
10184TIP3    H152043   2.361   5.978   0.200 -0.3066  1.1013 -0.9081
10184TIP3    H252044   2.223   5.918   0.216  1.2041 -1.9751  1.8266
10185TIP3   OH252045   4.947   6.134   4.258 -0.1390  0.0581 -0.0136
10185TIP3    H152046   5.014   6.185   4.303  1.1426 -1.9747  0.4867
10185TIP3    H252047   4.877   6.124   4.322 -1.0674  2.3128 -0.5871
10186TIP3   OH252048   4.479   3.809   3.098  0.5629  0.6760  0.1748
10186TIP3    H152049   4.540   3.734   3.101  1.0905  1.0831 -0.1142
10186TIP3    H252050   4.395   3.772   3.123  1.3530  0.5547  2.9776
10187TIP3   OH252051   1.428   4.163  15.736  0.1776 -0.1467 -0.0289
10187TIP3    H152052   1.380   4.245  15.727  1.6017  0.5100 -2.4717
10187TIP3    H252053   1.366   4.095  15.709 -0.5136  0.2513  0.5135
10188TIP3   OH252054   1.911   6.731  11.772  0.3079 -0.1324 -0.1267
10188TIP3    H152055   1.949   6.783  11.843  0.3829 -0.5114  0.1125
10188TIP3    H252056   1.844   6.787  11.734  0.5017  0.2022  0.0231
10189TIP3   OH252057   2.623   5.130  10.212  0.2790  0.1500 -0.0218
10189TIP3    H152058   2.660   5.126  10.124  0.1104 -0.2534 -0.0753
10189TIP3    H252059   2.593   5.221  10.221 -0.0603  0.0901 -0.5244
10190TIP3   OH252060   1.003   2.162  14.543  0.4551  0.2592  0.3258
10190TIP3    H152061   0.929   2.222  14.540  1.1174  1.1130 -2.6353
10190TIP3    H252062   0.986   2.099  14.473  1.0385 -1.5149  1.6922
10191TIP3   OH252063   1.357   2.712  12.021  0.1308  0.6113 -0.2208
10191TIP3    H152064   1.429   2.649  12.016 -0.7320 -0.4328  0.0619
10191TIP3    H252065   1.397   2.796  12.003  1.4607  0.0787  0.1513
10192TIP3   OH252066   6.473   4.188   4.240 -0.3931  0.1977  0.2074
10192TIP3    H152067   6.387   4.225   4.225 -0.0617  0.5396 -0.9202
10192TIP3    H252068   6.530   4.263   4.255  0.1142  0.1358 -1.2357
10193TIP3   OH252069   2.017   6.556  10.493 -0.3466 -0.4109 -0.2115
10193TIP3    H152070   1.980   6.631  10.539 -1.4906 -0.4612 -1.0134
10193TIP3    H252071   1.953   6.486  10.504 -1.3462 -0.0380 -2.9592
10194TIP3   OH252072   4.180   0.474  16.137 -0.2266 -0.4357 -0.2067
10194TIP3    H152073   4.127   0.474  16.057  0.6379 -1.0326 -0.7983
10194TIP3    H252074   4.270   0.483  16.106  0.2067 -1.5722  0.6368
10195TIP3   OH252075   0.058   5.987  11.054  0.1385 -0.2325 -0.5399
10195TIP3    H152076  -0.035   5.978  11.075  0.6479  0.4495  2.5453
10195TIP3    H252077   0.062   5.975  10.959 -3.2013  0.6816 -0.9581
10196TIP3   OH252078   4.013   5.881   1.784  0.1899  0.0535  0.1794
10196TIP3    H152079   3.920   5.894   1.802 -0.0589  0.1784 -1.0961
10196TIP3    H252080   4.052   5.863   1.869 -0.5994  2.2804  1.0752
10197TIP3   OH252081   6.520   3.579   0.370 -0.1609 -0.6002 -0.2771
10197TIP3    H152082   6.556   3.616   0.450 -1.0022  4.0617 -1.7453
10197TIP3    H252083   6.592   3.527   0.333  1.7678  0.7765  1.3494
10198TIP3   OH252084   0.946   1.225  16.946  0.3376  0.2631  0.2906
10198TIP3    H152085   0.911   1.213  17.033  0.4516  0.8799  0.4295
10198TIP3    H252086   0.882   1.186  16.887 -0.2852  0.8341  0.5788
10199TIP3   OH252087   5.040   1.781  16.416 -0.0045 -0.4832 -0.3004
10199TIP3    H152088   4.986   1.703  16.419  0.7094 -0.9892 -0.4259
10199TIP3    H252089   5.116   1.760  16.470  0.5463 -0.1555 -0.9293
10200TIP3   OH252090   4.983   0.850   2.504 -0.3827  0.2376 -0.3825
10200TIP3    H152091   5.066   0.870   2.459  0.2162  1.2791  1.1093
10200TIP3    H252092   4.979   0.754   2.506  0.8367  0.1713 -0.4077
10201TIP3   OH252093   6.722   3.464   3.879  0.0035  0.0669  0.4666
10201TIP3    H152094   6.721   3.387   3.936  1.8749  1.0936  2.0222
10201TIP3    H252095   6.746   3.536   3.937 -0.7004  1.6669 -1.1354
10202TIP3   OH252096   0.406   1.824   2.059  0.6489 -0.5171  0.1443
10202TIP3    H152097   0.465   1.898   2.044  2.4144 -2.0459 -0.9687
10202TIP3    H252098   0.465   1.749   2.070 -1.0047 -1.5495  2.9302
10203TIP3   OH252099   3.818   5.534  15.124 -0.1534 -0.0587 -0.1520
10203TIP3    H152100   3.838   5.523  15.031 -0.7982 -0.7594 -0.2159
10203TIP3    H252101   3.772   5.454  15.148  0.5813 -0.1734  0.9364
10204TIP3   OH252102   5.242   4.153   0.744  0.7119  0.2983  0.6762
10204TIP3    H152103   5.336   4.142   0.728  1.0336  0.4322  2.2829
10204TIP3    H252104   5.236   4.235   0.792 -0.0949 -0.2819  1.5963
10205TIP3   OH252105   2.851   5.972   0.717 -0.4330 -0.2283 -0.4028
10205TIP3    H152106   2.778   6.033   0.730 -1.4978 -1.4762 -0.2042
10205TIP3    H252107   2.912   6.019   0.660 -0.8523  1.2770  0.3352
10206TIP3   OH252108   1.187   6.390   5.141  0.1571  0.1029  0.6224
10206TIP3    H152109   1.100   6.363   5.170 -0.8351  0.0805 -2.1314
10206TIP3    H252110   1.224   6.312   5.100  0.7824  0.5775  0.2588
10207TIP3   OH252111   5.161   0.093   0.842  0.1862  0.4281 -0.2543
10207TIP3    H152112   5.229   0.141   0.890 -1.3299  1.1081  1.3134
10207TIP3    H252113   5.155   0.009   0.888 -0.8874  0.8675  0.4504
10208TIP3   OH252114   2.711   1.510   2.403  0.0869 -0.6444 -0.0188
10208TIP3    H152115   2.779   1.570   2.435 -1.0724  0.4794  0.4067
10208TIP3    H252116   2.746   1.476   2.320  1.5755 -0.8403  0.6608
10209TIP3   OH252117   1.762   5.236   5.154  0.0644 -0.1322  0.4029
10209TIP3    H152118   1.775   5.330   5.161 -2.3756  0.2873 -0.1090
10209TIP3    H252119   1.775   5.216   5.061  0.9411 -0.3939  0.5691
10210TIP3   OH252120   6.177   5.370  16.602  0.0723 -0.0162  0.1582
10210TIP3    H152121   6.119   5.295  16.611 -0.0424 -0.0518 -0.8021
10210TIP3    H252122   6.244   5.341  16.540  1.2961 -0.0796  1.4609
10211TIP3   OH252123   6.573   1.768  16.594 -0.3674 -0.1468  0.2949
10211TIP3    H152124   6.518   1.711  16.647  0.1235 -0.7547  0.1580
10211TIP3    H252125   6.569   1.853  16.638 -0.2343 -0.5576  1.1154
10212TIP3   OH252126   3.765   4.939   5.436 -0.6013  0.0412 -0.3783
10212TIP3    H152127   3.685   4.941   5.488 -1.5181  0.5225 -1.7568
10212TIP3    H252128   3.735   4.929   5.345  0.8414  1.0067 -1.0033
10213TIP3   OH252129   6.013   5.425   1.002 -0.2572 -0.2786  0.7495
10213TIP3    H152130   6.002   5.357   0.936  0.9599  0.2489 -0.0172
10213TIP3    H252131   5.924   5.445   1.030 -1.0193  0.7584 -2.0433
10214TIP3   OH252132   0.829   6.017  15.179  0.3256  0.2739  0.9059
10214TIP3    H152133   0.849   6.081  15.110  2.0686  0.4170  1.4755
10214TIP3    H252134   0.835   6.068  15.260  2.5653 -0.7207  1.4313
10215TIP3   OH252135   6.238   5.654  12.914  0.0633  0.3035 -0.0313
10215TIP3    H152136   6.250   5.559  12.918  0.1732  0.2987 -0.4777
10215TIP3    H252137   6.326   5.690  12.917  0.1952  0.3032 -2.1886
10216TIP3   OH252138   1.315   0.717  13.627  0.1354  0.0649 -0.6053
10216TIP3    H152139   1.333   0.753  13.714  1.4584 -1.5521 -0.1610
10216TIP3    H252140   1.401   0.693  13.593 -0.5240 -0.9160 -1.6347
10217TIP3   OH252141   2.159   1.469  12.749  0.3598 -0.7098  0.5273
10217TIP3    H152142   2.199   1.556  12.751  1.0377 -0.9754  3.2168
10217TIP3    H252143   2.232   1.409  12.736  0.0276 -0.9447 -0.3131
10218TIP3   OH252144   5.425   4.135   1.256 -0.0568  1.0033 -0.4494
10218TIP3    H152145   5.331   4.148   1.243 -0.7692 -0.0993  2.6448
10218TIP3    H252146   5.450   4.069   1.192 -2.4774 -1.9035  1.3504
10219TIP3   OH252147   1.221   5.999   5.050  0.6078  0.1532 -0.0684
10219TIP3    H152148   1.202   5.927   5.110 -0.5669 -0.0923 -0.6970
10219TIP3    H252149   1.143   6.055   5.054  0.8986  0.6156 -0.6697
10220TIP3   OH252150   4.516   3.878   0.592 -0.5947 -0.0610 -0.6055
10220TIP3    H152151   4.470   3.918   0.666  0.4852 -0.6525  0.4168
10220TIP3    H252152   4.532   3.952   0.532 -0.9635  0.5454  0.0235
10221TIP3   OH252153   6.595   3.650  16.541  0.2366 -0.3282 -0.0774
10221TIP3    H152154   6.555   3.573  16.500  1.3271 -0.0486 -1.7478
10221TIP3    H252155   6.630   3.701  16.468 -1.8350  2.6408  0.8051
10222TIP3   OH252156   2.798   2.641  11.120  0.0592 -0.0652  0.3649
10222TIP3    H152157   2.835   2.554  11.102  0.5647 -0.0471  1.2640
10222TIP3    H252158   2.786   2.680  11.033  1.5602 -0.3215  0.0194
10223TIP3   OH252159   6.201   2.630  12.069 -0.6257 -0.1514 -0.2887
10223TIP3    H152160   6.224   2.681  12.147 -0.3759 -1.3903  0.4863
10223TIP3    H252161   6.247   2.674  11.997  0.4171  0.1245  0.5100
10224TIP3   OH252162   3.502   4.444  14.892  0.4885  0.0534  0.4914
10224TIP3    H152163   3.578   4.484  14.934  0.8684 -0.3078  0.1569
10224TIP3    H252164   3.427   4.489  14.931  0.8918  0.8178  0.4071
10225TIP3   OH252165   0.697   6.024   2.603 -0.4086 -0.0939 -0.1829
10225TIP3    H152166   0.657   6.109   2.583 -0.9320 -0.2208  0.3143
10225TIP3    H252167   0.732   6.035   2.691  1.1006  0.1761 -0.7821
10226TIP3   OH252168   0.437   0.937   5.080 -0.1015  0.1495 -0.0339
10226TIP3    H152169   0.462   0.896   4.997 -1.1110 -2.3971  0.8268
10226TIP3    H252170   0.495   1.013   5.088  0.1181  0.4023 -2.9683
10227TIP3   OH252171   3.387   1.239  15.704 -0.6051 -0.8606 -0.1729
10227TIP3    H152172   3.365   1.244  15.611 -0.1060  0.6932 -0.2340
10227TIP3    H252173   3.334   1.166  15.736 -1.6414 -0.7259 -1.4441
10228TIP3   OH252174   0.708   2.698  16.334  0.2099  0.7069 -0.1038
10228TIP3    H152175   0.802   2.709  16.344  0.0519  1.1546  1.1771
10228TIP3    H252176   0.693   2.604  16.345  0.4262  0.7508  0.6629
10229TIP3   OH252177   4.426   3.670   3.701  0.4586 -0.2388 -0.6671
10229TIP3    H152178   4.422   3.644   3.793  2.4213 -0.0250 -0.4807
10229TIP3    H252179   4.498   3.618   3.664  0.3015  0.3484 -1.8510
10230TIP3   OH252180   2.944   0.502   5.977 -0.4124  0.7565 -0.7052
10230TIP3    H152181   2.858   0.462   5.976 -0.6033  1.1631 -0.8789
10230TIP3    H252182   2.927   0.596   5.986  0.0374  0.7719  0.1055
10231TIP3   OH252183   4.615   0.041  11.417  0.1949 -0.4640  0.2992
10231TIP3    H152184   4.562  -0.031  11.453 -1.4153  0.1823 -0.6968
10231TIP3    H252185   4.665   0.000  11.347 -1.2837 -0.5011 -0.7720
10232TIP3   OH252186   1.120   1.782  16.525 -0.7110  0.7363  0.0068
10232TIP3    H152187   1.170   1.763  16.604  0.2386 -0.2261 -0.7736
10232TIP3    H252188   1.060   1.708  16.516  0.0370  0.1979 -0.7912
10233TIP3   OH252189   1.009   2.461  13.492  0.1585 -0.5326 -0.0515
10233TIP3    H152190   0.987   2.545  13.532 -0.3864 -1.7881  2.4581
10233TIP3    H252191   1.092   2.436  13.532  1.9942  0.1693 -3.1096
10234TIP3   OH252192   5.386   6.530  14.627 -0.2393  0.0056 -0.8063
10234TIP3    H152193   5.437   6.580  14.563  0.7015  0.0716 -0.0348
10234TIP3    H252194   5.394   6.581  14.708 -1.9344  0.2543 -0.7686
10235TIP3   OH252195   6.457   0.978   0.760  0.0127  0.2939 -0.1918
10235TIP3    H152196   6.498   0.929   0.831  0.0179  0.7106  0.0946
10235TIP3    H252197   6.511   0.958   0.683 -0.7983 -1.2628 -0.4017
10236TIP3   OH252198   2.130   5.415   2.965  0.4406 -0.2577  0.9447
10236TIP3    H152199   2.176   5.497   2.985  1.5891  0.4501 -3.4840
10236TIP3    H252200   2.180   5.348   3.012  1.8656  1.2063  1.6352
10237TIP3   OH252201   0.786   6.070   2.271  0.4257  0.0208  0.4375
10237TIP3    H152202   0.710   6.096   2.219  1.1062  0.1913 -0.4993
10237TIP3    H252203   0.787   5.974   2.264  0.4169  0.0318  0.2718
10238TIP3   OH252204   4.741   1.281   2.363 -0.5541  0.6085  0.4277
10238TIP3    H152205   4.776   1.228   2.291 -0.3622 -0.7319  1.4729
10238TIP3    H252206   4.793   1.361   2.361  1.0146 -0.3576  0.4559
10239TIP3   OH252207   6.620   0.333  14.058 -0.1569  0.0793  0.1177
10239TIP3    H152208   6.673   0.277  14.001  1.3563  2.1452 -0.6416
10239TIP3    H252209   6.651   0.421  14.040 -1.4024  1.0592  2.3453
10240TIP3   OH252210   2.757   3.397   5.575  0.1518  0.3180  0.0839
10240TIP3    H152211   2.821   3.330   5.551  0.5315  1.1911 -1.4667
10240TIP3    H252212   2.777   3.471   5.517 -0.5600  1.6057  1.4208
10241TIP3   OH252213   3.165   6.467   1.179  0.1277  0.1648 -0.3289
10241TIP3    H152214   3.102   6.535   1.157  2.6990  2.8138 -0.1933
10241TIP3    H252215   3.189   6.486   1.270  1.4480 -0.4037 -0.5321
10242TIP3   OH252216   4.492   3.985  10.505  0.3826 -0.0744  0.1417
10242TIP3    H152217   4.396   3.986  10.510  0.1273  1.2668 -3.0474
10242TIP3    H252218   4.514   3.892  10.509 -1.3266 -0.6428 -1.8872
10243TIP3   OH252219   1.396   2.856   4.053  0.0800  0.1879  0.4893
10243TIP3    H152220   1.336   2.837   4.125  0.0170  0.3021  0.4666
10243TIP3    H252221   1.452   2.926   4.085  1.6582 -1.3721  1.3331
10244TIP3   OH252222   4.416   4.048  16.663  0.0087  0.6126  0.2866
10244TIP3    H152223   4.329   4.085  16.677  0.3654  1.2081  1.0076
10244TIP3    H252224   4.475   4.124  16.660  0.4143  0.2781 -1.0028
10245TIP3   OH252225   3.419   1.545   1.027 -0.0068 -0.1468 -0.1440
10245TIP3    H152226   3.508   1.560   0.996 -0.1762 -2.3445 -1.9004
10245TIP3    H252227   3.364   1.589   0.962 -0.2713 -1.4632 -0.8240
10246TIP3   OH252228   0.751   2.648  17.016  0.0304  0.2443 -0.0565
10246TIP3    H152229   0.808   2.723  17.002  1.8287 -0.6177  1.9488
10246TIP3    H252230   0.804   2.572  16.993 -0.8866 -0.5274  0.2650
10247TIP3   OH252231   2.210   1.143   2.977 -0.2790 -0.3866 -0.1363
10247TIP3    H152232   2.201   1.060   2.929  0.0369  0.3048 -1.4318
10247TIP3    H252233   2.264   1.198   2.920 -2.6766  1.6655 -0.5902
10248TIP3   OH252234   2.675   6.447  16.667 -0.0113  0.3983 -0.0944
10248TIP3    H152235   2.589   6.462  16.706 -0.6346  1.5850 -1.7863
10248TIP3    H252236   2.737   6.483  16.730 -0.8217  0.4029  0.7130
10249TIP3   OH252237   4.676   1.193   4.127 -0.3081 -0.2905  0.2738
10249TIP3    H152238   4.628   1.163   4.205  1.7069 -1.8059  1.0336
10249TIP3    H252239   4.768   1.184   4.151  0.4417  2.7743 -1.0127
10250TIP3   OH252240   2.317   5.781  15.423  0.1666 -0.2503 -0.4193
10250TIP3    H152241   2.281   5.698  15.389 -0.6243  0.6398 -1.9000
10250TIP3    H252242   2.398   5.756  15.467 -0.0901 -1.8226 -0.7670
10251TIP3   OH252243   2.141   2.776   0.299  0.1700 -0.1860 -0.4188
10251TIP3    H152244   2.108   2.850   0.249  0.5088  0.5364  0.4116
10251TIP3    H252245   2.200   2.731   0.238 -0.9448 -0.4820 -1.3191
10252TIP3   OH252246   5.343   4.382  12.606 -0.3635 -0.1329  0.4355
10252TIP3    H152247   5.306   4.465  12.636  0.9882  0.1526  1.4487
10252TIP3    H252248   5.368   4.336  12.686  0.8557 -0.5720 -0.1572
10253TIP3   OH252249   0.041   4.104  14.628 -0.3433 -0.1764 -1.0747
10253TIP3    H152250   0.005   4.103  14.717 -0.9178  0.9960 -1.2772
10253TIP3    H252251   0.039   4.013  14.600  1.5762 -0.8758  0.7930
10254TIP3   OH252252   1.950   1.622   5.858 -0.2695  0.2044  0.0570
10254TIP3    H152253   1.869   1.593   5.900  0.9391 -0.0721  2.3416
10254TIP3    H252254   1.995   1.674   5.925  1.5701  0.1272 -1.0388
10255TIP3   OH252255   5.277   3.887  13.398  0.5614 -0.0253 -0.7262
10255TIP3    H152256   5.236   3.918  13.479  0.4413  0.6051 -1.0201
10255TIP3    H252257   5.360   3.850  13.427 -0.0040 -0.8996 -0.1781
10256TIP3   OH252258   0.622   2.016  14.560 -0.1957 -0.0530 -0.1925
10256TIP3    H152259   0.611   2.084  14.626  2.5028  0.3146 -0.0293
10256TIP3    H252260   0.613   1.934  14.608 -1.7260  0.1638 -0.0695
10257TIP3   OH252261   5.783   5.660   5.352 -0.0351 -0.0639 -0.1150
10257TIP3    H152262   5.690   5.678   5.367 -0.3155 -0.7036 -1.0012
10257TIP3    H252263   5.804   5.593   5.417  0.1866  1.0792  1.0263
10258TIP3   OH252264   0.894   5.497  12.506  0.4426  0.2183  0.1511
10258TIP3    H152265   0.914   5.428  12.569 -0.9200 -0.8717 -0.5444
10258TIP3    H252266   0.960   5.486  12.437  2.7784  2.2508  1.8837
10259TIP3   OH252267   3.953   2.204  10.924 -0.2989 -0.3976 -0.0326
10259TIP3    H152268   4.010   2.277  10.951 -0.9218  0.6082 -1.3239
10259TIP3    H252269   4.002   2.125  10.949  0.3455  0.4450  1.4925
10260TIP3   OH252270   4.613   4.723  11.527 -0.4265 -0.6233  0.1411
10260TIP3    H152271   4.556   4.747  11.599 -0.9462 -0.8740 -0.1799
10260TIP3    H252272   4.560   4.665  11.473 -0.4923  0.5381 -1.1099
10261TIP3   OH252273   1.734   1.819  15.196 -0.0588  0.2140 -0.4266
10261TIP3    H152274   1.706   1.805  15.106  1.0196  0.6893 -0.8499
10261TIP3    H252275   1.666   1.778  15.249 -1.5251  1.2815 -1.4015
10262TIP3   OH252276   0.475   2.624   1.750  0.4241  0.0081 -0.1917
10262TIP3    H152277   0.477   2.546   1.805  0.7108  0.2859  0.2065
10262TIP3    H252278   0.545   2.610   1.686  1.0499  0.3047  0.4101
10263TIP3   OH252279   0.167   0.788  13.415  0.0261 -0.4839  0.3460
10263TIP3    H152280   0.141   0.708  13.368 -0.0965  0.3049 -0.9820
10263TIP3    H252281   0.261   0.777  13.430 -0.1118 -1.1646  0.7671
10264TIP3   OH252282   0.285   5.208   2.124 -0.7450  0.1639  0.4881
10264TIP3    H152283   0.330   5.194   2.040  0.2086  1.6357  0.7033
10264TIP3    H252284   0.194   5.184   2.107 -0.2378 -1.1740 -0.4859
10265TIP3   OH252285   5.622   2.842  12.624  0.4562  0.4343  0.5134
10265TIP3    H152286   5.627   2.822  12.718 -1.5114 -0.9175  0.4077
10265TIP3    H252287   5.560   2.777  12.590 -0.3743  2.1103 -1.3625
10266TIP3   OH252288   1.353   1.616   1.915  0.6476 -0.3650 -0.5477
10266TIP3    H152289   1.434   1.649   1.955  1.6403 -1.0998 -1.8775
10266TIP3    H252290   1.354   1.522   1.932 -0.7516 -0.1551  0.7967
10267TIP3   OH252291   3.622   5.016   2.932  0.0475  0.1702  0.2805
10267TIP3    H152292   3.688   4.960   2.891 -0.7127 -1.2163  0.8796
10267TIP3    H252293   3.635   5.002   3.026 -2.4282 -1.8353  0.4230
10268TIP3   OH252294   2.536   0.113   4.590  0.1866 -0.4738  0.8228
10268TIP3    H152295   2.624   0.138   4.619  0.5027 -0.5090 -0.0808
10268TIP3    H252296   2.482   0.190   4.608  0.6113 -0.0928  0.4923
10269TIP3   OH252297   5.539   3.955  13.674  0.2938  0.4183 -0.3625
10269TIP3    H152298   5.456   3.968  13.720  0.2567 -0.8130 -0.0390
10269TIP3    H252299   5.606   3.988  13.735  0.0609  1.4794 -0.6541
10270TIP3   OH252300   6.141   1.557  13.112  0.5571 -0.1108  0.7624
10270TIP3    H152301   6.076   1.599  13.056  0.1745 -0.2304  1.1121
10270TIP3    H252302   6.225   1.573  13.068  0.2312 -0.4933 -0.0221
10271TIP3   OH252303   4.086   4.143   6.487  0.0484  0.4593 -0.2039
10271TIP3    H152304   4.064   4.196   6.410 -0.1109 -1.2284 -1.3651
10271TIP3    H252305   4.007   4.092   6.503  0.2745  0.4053  0.7635
10272TIP3   OH252306   3.567   6.761   2.284  0.1579 -0.3522  0.9807
10272TIP3    H152307   3.595   6.695   2.348 -0.7614  0.5127  2.3307
10272TIP3    H252308   3.629   6.833   2.294 -1.0079  0.5257  2.2082
10273TIP3   OH252309   4.688   4.180  16.043  0.0367 -0.3531  0.7972
10273TIP3    H152310   4.770   4.228  16.030 -0.3832  0.0499 -0.5059
10273TIP3    H252311   4.620   4.247  16.034 -0.4680 -0.8287  1.0590
10274TIP3   OH252312   3.763   2.369  14.878  0.0642  0.0223 -0.3671
10274TIP3    H152313   3.715   2.287  14.867  0.8619 -0.9670  2.5565
10274TIP3    H252314   3.708   2.421  14.936  0.8941  0.3027  0.1949
10275TIP3   OH252315   3.054   0.297   0.327  0.0586 -0.2436 -0.5086
10275TIP3    H152316   2.964   0.276   0.303  0.0001  0.2253 -0.7244
10275TIP3    H252317   3.047   0.381   0.374  0.4665  0.2041 -1.2382
10276TIP3   OH252318   0.852   2.275  11.843  0.0975 -0.0047 -0.1370
10276TIP3    H152319   0.778   2.274  11.782  0.1867 -1.8516 -0.2946
10276TIP3    H252320   0.898   2.357  11.826 -1.9199  1.2128 -0.0015
10277TIP3   OH252321   5.603   0.615  16.093  0.0334  0.2697  0.1675
10277TIP3    H152322   5.687   0.592  16.132  0.6336  1.5315 -0.3377
10277TIP3    H252323   5.540   0.604  16.165  0.7746  0.2733  0.8341
10278TIP3   OH252324   5.396   0.868   5.033  0.3545 -0.7019 -0.5128
10278TIP3    H152325   5.344   0.803   5.080  1.7432 -0.4079  1.5696
10278TIP3    H252326   5.412   0.937   5.097  0.2658  0.9482 -2.2025
10279TIP3   OH252327   2.624   0.690  13.125  0.8529 -0.2588 -0.3006
10279TIP3    H152328   2.688   0.761  13.112  1.3119 -0.7488 -0.7900
10279TIP3    H252329   2.574   0.688  13.043 -0.1085  0.4235  0.2544
10280TIP3   OH252330   4.386   6.380   0.180  0.1112 -0.0505  0.2703
10280TIP3    H152331   4.477   6.390   0.154 -0.1250 -0.3594 -0.7285
10280TIP3    H252332   4.342   6.455   0.140 -0.1441 -0.1356  0.3894
10281TIP3   OH252333   3.087   6.208  16.320  0.4131 -0.3424  0.1556
10281TIP3    H152334   3.120   6.130  16.365  0.6262  0.0048  0.6048
10281TIP3    H252335   2.993   6.210  16.341  0.4247 -0.4305  0.2150
10282TIP3   OH252336   4.078   6.467   5.206 -0.5571 -0.2670 -0.3200
10282TIP3    H152337   4.096   6.553   5.168 -1.0346  0.5777  1.2786
10282TIP3    H252338   4.147   6.411   5.171 -0.6588  0.5662 -1.9636
10283TIP3   OH252339   0.962   4.339   5.279 -0.0851  0.1289 -0.1131
10283TIP3    H152340   1.024   4.280   5.238  0.3606  0.1350  0.5478
10283TIP3    H252341   0.958   4.414   5.220  1.6840  0.8034  0.5736
10284TIP3   OH252342   2.072   2.004   5.300  0.2010 -0.0304 -0.0879
10284TIP3    H152343   2.139   2.072   5.292  0.8651 -0.5739  0.7151
10284TIP3    H252344   1.998   2.048   5.342 -0.6492  1.0160 -2.4871
10285TIP3   OH252345   5.030   1.652  15.057  0.1281  0.0850 -0.0597
10285TIP3    H152346   5.017   1.605  14.975  0.1903  1.7155 -1.0435
10285TIP3    H252347   4.943   1.652  15.098 -0.1975  0.3778 -0.7398
10286TIP3   OH252348   2.191   4.882   0.554 -0.0530 -0.5095  0.4487
10286TIP3    H152349   2.126   4.951   0.567  1.2303  0.7682  0.3843
10286TIP3    H252350   2.221   4.861   0.643 -0.3837 -0.9292  0.4621
10287TIP3   OH252351   2.662   1.383   6.336 -0.2943  0.5516  0.8058
10287TIP3    H152352   2.635   1.357   6.424  0.7111  0.6340  1.1503
10287TIP3    H252353   2.749   1.421   6.347  0.0525  0.1295 -0.2928
10288TIP3   OH252354   3.006   2.024   5.194 -0.5318 -0.7566 -0.0721
10288TIP3    H152355   3.040   2.113   5.206 -2.9167  0.3670 -1.1434
10288TIP3    H252356   2.947   2.011   5.268 -0.8647 -1.1118 -0.3959
10289TIP3   OH252357   6.603   5.773   2.169 -0.6090 -0.7284  0.2899
10289TIP3    H152358   6.643   5.692   2.137  0.5761  0.3066 -0.9348
10289TIP3    H252359   6.609   5.834   2.096 -0.3518  0.8668  1.5899
10290TIP3   OH252360   5.934   4.711  14.709 -0.3718  0.7786  0.0790
10290TIP3    H152361   5.849   4.752  14.694  0.2090  1.5737 -1.1767
10290TIP3    H252362   5.998   4.781  14.698  0.4710  0.2151  1.0923
10291TIP3   OH252363   0.479   1.962  15.127  1.0482  0.2458 -0.1727
10291TIP3    H152364   0.530   1.922  15.057  0.6166 -0.7407  0.0576
10291TIP3    H252365   0.534   2.033  15.160  2.3816 -0.9098  0.2110
10292TIP3   OH252366   2.036   1.789   4.923  0.5021  0.3833  0.7557
10292TIP3    H152367   2.064   1.704   4.887 -0.7466  0.0683  0.4800
10292TIP3    H252368   1.947   1.773   4.955  0.1543  1.6565  0.4785
10293TIP3   OH252369   5.755   1.248   0.020  0.3540 -0.1205 -0.1485
10293TIP3    H152370   5.737   1.202   0.102  0.1070 -1.0757 -0.7183
10293TIP3    H252371   5.669   1.271  -0.014  0.4716  0.5766  0.0230
10294TIP3   OH252372   5.834   5.824   5.883 -0.0780 -0.2938 -0.5113
10294TIP3    H152373   5.826   5.919   5.878  3.1640  0.0313 -1.8650
10294TIP3    H252374   5.829   5.804   5.976  0.4073  1.3550 -0.1017
10295TIP3   OH252375   5.156   5.790  16.292 -0.2469  0.2776  0.2116
10295TIP3    H152376   5.122   5.879  16.307 -0.1891  0.1186  1.3954
10295TIP3    H252377   5.249   5.803  16.270 -0.4603  0.5559 -0.5677
10296TIP3   OH252378   5.898   0.832  16.102 -0.2564 -0.2742  0.0639
10296TIP3    H152379   5.899   0.830  16.198  1.4816 -3.6334  0.1307
10296TIP3    H252380   5.985   0.862  16.078  0.1339 -1.7240 -0.3903
10297TIP3   OH252381   0.031   3.342  13.327  0.3913 -0.5035 -0.3842
10297TIP3    H152382  -0.005   3.310  13.244 -0.2726  0.1245 -0.3528
10297TIP3    H252383   0.014   3.272  13.389 -1.0701 -0.1042 -0.3045
10298TIP3   OH252384   0.324   5.855  13.283 -0.2609  0.0566  0.2670
10298TIP3    H152385   0.390   5.919  13.258 -1.4591  1.3380  0.2547
10298TIP3    H252386   0.327   5.789  13.214 -0.9544  1.6030 -1.3189
10299TIP3   OH252387   2.808   1.017   1.459 -0.0050  0.2850  0.4666
10299TIP3    H152388   2.836   0.932   1.427 -0.6551  0.0270  0.5684
10299TIP3    H252389   2.717   1.026   1.429  0.1507  1.0702  0.1991
10300TIP3   OH252390   1.233   1.234   4.805  0.1238 -0.2589 -0.5579
10300TIP3    H152391   1.156   1.226   4.860 -0.7780 -0.5246 -1.8232
10300TIP3    H252392   1.211   1.303   4.742  0.6776 -0.7533 -1.3139
10301TIP3   OH252393   2.582   4.087  15.932  0.3549 -0.1465  0.1347
10301TIP3    H152394   2.542   4.048  15.855 -0.9140 -2.7625  1.9910
10301TIP3    H252395   2.671   4.110  15.904  0.3476 -2.1717 -1.7638
10302TIP3   OH252396   2.073   4.078  13.867  0.7224  0.6390 -0.2363
10302TIP3    H152397   1.989   4.062  13.909  0.3366  0.9735 -0.8597
10302TIP3    H252398   2.058   4.154  13.810  0.3693 -1.4962 -3.2164
10303TIP3   OH252399   0.190   6.516   3.019 -0.3211 -0.2406 -0.3148
10303TIP3    H152400   0.261   6.471   3.065 -0.5856 -1.0290 -0.6683
10303TIP3    H252401   0.192   6.606   3.054  1.7621  0.1610 -1.3453
10304TIP3   OH252402   3.117   3.369   3.427 -0.1030 -0.0146 -0.4880
10304TIP3    H152403   3.121   3.281   3.390 -1.3846  0.1204 -1.0240
10304TIP3    H252404   3.180   3.368   3.499 -1.3405 -1.9358  0.6696
10305TIP3   OH252405   6.072   4.165  13.572 -0.4365 -0.4859 -0.1397
10305TIP3    H152406   6.106   4.092  13.624  1.4938 -0.0019 -0.6568
10305TIP3    H252407   6.117   4.159  13.488  0.6836  1.9081  0.1737
10306TIP3   OH252408   3.952   2.001   0.583  0.0836 -0.2277  0.0834
10306TIP3    H152409   3.953   2.096   0.572 -1.0961 -0.1027  0.8869
10306TIP3    H252410   3.885   1.970   0.522 -0.7707 -0.3406  1.0427
10307TIP3   OH252411   3.849   5.819   2.062  0.0116 -0.2285 -0.3184
10307TIP3    H152412   3.887   5.758   2.124 -2.0404 -1.1189  0.1595
10307TIP3    H252413   3.902   5.899   2.070  0.1338 -0.4994  2.2040
10308TIP3   OH252414   4.714   4.402  14.697  0.8044 -0.3787 -0.2217
10308TIP3    H152415   4.715   4.375  14.788  1.8678 -0.6010 -0.2931
10308TIP3    H252416   4.788   4.357  14.657  1.2135  0.8128 -0.8715
10309TIP3   OH252417   0.548   6.740  17.132  0.2989  0.5546  0.2411
10309TIP3    H152418   0.513   6.782  17.210  0.0361  0.8341 -0.0271
10309TIP3    H252419   0.471   6.718  17.080  0.2732 -1.7923  1.1152
10310TIP3   OH252420   4.326   4.825   5.002 -0.6404  0.2046 -0.2229
10310TIP3    H152421   4.411   4.797   4.967 -0.3807  0.1121  0.4514
10310TIP3    H252422   4.285   4.874   4.931  1.1073  2.5924  0.2547
10311TIP3   OH252423   2.460   4.481   3.337  0.3198 -0.4679  0.2480
10311TIP3    H152424   2.445   4.568   3.301 -0.8797 -0.5589  0.4733
10311TIP3    H252425   2.546   4.455   3.305 -0.9270 -0.8470 -3.1688
10312TIP3   OH252426   5.520   1.699   0.371 -0.3002  0.2424 -0.1615
10312TIP3    H152427   5.498   1.681   0.463 -0.5745  1.6707  0.0774
10312TIP3    H252428   5.602   1.747   0.375  0.7924 -1.4627 -0.8236
10313TIP3   OH252429   5.522   4.157   3.796 -0.0279 -0.0644  0.4986
10313TIP3    H152430   5.527   4.222   3.866 -2.3917  1.1640 -0.3566
10313TIP3    H252431   5.438   4.113   3.809 -0.2025 -0.2964 -1.1279
10314TIP3   OH252432   4.695   1.712   3.696  0.6061  0.1311 -0.2568
10314TIP3    H152433   4.711   1.717   3.790  1.8683  1.0862 -0.4875
10314TIP3    H252434   4.775   1.672   3.661  0.6659  0.9044 -1.0332
10315TIP3   OH252435   4.901   0.349   1.648  0.4167  0.3601 -0.6691
10315TIP3    H152436   4.860   0.353   1.734  1.0709 -1.4328 -0.2349
10315TIP3    H252437   4.855   0.415   1.596 -1.3451  0.0941  0.4820
10316TIP3   OH252438   5.644   1.098   4.697  0.4020  0.1514  0.3345
10316TIP3    H152439   5.641   1.030   4.764  0.3510 -0.3600 -0.1749
10316TIP3    H252440   5.613   1.055   4.617  1.6635  0.3860 -0.3186
10317TIP3   OH252441   1.101   6.147  15.654 -0.0532 -0.1738  0.2079
10317TIP3    H152442   1.059   6.156  15.739 -1.0414  0.5475 -0.3356
10317TIP3    H252443   1.158   6.223  15.647 -0.4295  0.0881 -0.0225
10318TIP3   OH252444   3.146   1.406  14.609  0.1272 -0.1094  0.8505
10318TIP3    H152445   3.091   1.475  14.648  1.2240  2.2578 -1.4863
10318TIP3    H252446   3.086   1.356  14.554 -0.1516  0.9292  0.1939
10319TIP3   OH252447   1.351   4.153  11.493 -0.1346 -0.5540 -0.3742
10319TIP3    H152448   1.440   4.118  11.501 -0.1373 -0.2479  1.5502
10319TIP3    H252449   1.357   4.217  11.422  1.3617 -0.0553  0.1560
10320TIP3   OH252450   2.507   6.495  17.114  0.4590  0.2720  0.3505
10320TIP3    H152451   2.523   6.529  17.026 -0.0567 -0.9902 -0.2501
10320TIP3    H252452   2.518   6.400  17.106 -3.6284 -0.4260  0.6375
10321TIP3   OH252453   0.301   5.078  12.426  0.7762 -0.0790 -0.3271
10321TIP3    H152454   0.291   5.158  12.477  1.0748 -0.0249 -0.3562
10321TIP3    H252455   0.310   5.008  12.491 -1.5079 -0.3791 -0.2380
10322TIP3   OH252456   5.923   5.428   3.725 -0.7223  0.0401 -0.2447
10322TIP3    H152457   6.019   5.423   3.735 -0.8536 -0.3848  1.0042
10322TIP3    H252458   5.897   5.338   3.704 -0.9565 -0.1060  0.6373
10323TIP3   OH252459   3.218   0.112  12.262  0.0899 -0.3935 -0.1212
10323TIP3    H152460   3.305   0.150  12.251 -0.6166  1.9283  1.3479
10323TIP3    H252461   3.216   0.082  12.353 -1.1663  1.3434  0.4962
10324TIP3   OH252462   4.799   0.153  12.547 -0.1821 -0.0314  0.5342
10324TIP3    H152463   4.785   0.218  12.616 -0.4602 -0.4054  0.8346
10324TIP3    H252464   4.769   0.195  12.467 -1.6594 -0.2805  0.9354
10325TIP3   OH252465   3.936   6.727   5.283 -0.0756  0.6571  0.1131
10325TIP3    H152466   4.013   6.704   5.231  1.1206 -0.0279  2.0959
10325TIP3    H252467   3.879   6.774   5.222  0.8630 -0.8263 -2.0114
10326TIP3   OH252468   4.684   3.531   4.388  0.1610 -0.2409  0.0903
10326TIP3    H152469   4.605   3.558   4.435 -0.2460 -1.0817 -0.0942
10326TIP3    H252470   4.726   3.468   4.446 -0.8389 -2.0167 -1.0403
10327TIP3   OH252471   1.839   3.142   5.526  0.0396  0.2833  0.2629
10327TIP3    H152472   1.861   3.145   5.432 -0.5384 -1.6179  0.0311
10327TIP3    H252473   1.918   3.108   5.568  0.4481  1.5280  0.5603
10328TIP3   OH252474   0.726   3.651  15.979  0.2024  0.2266  0.2544
10328TIP3    H152475   0.755   3.594  15.908  0.4528 -0.4381  0.8768
10328TIP3    H252476   0.807   3.681  16.020  0.0981 -1.3858  1.7985
10329TIP3   OH252477   1.727   4.123  13.890 -0.2285  0.6475 -0.3505
10329TIP3    H152478   1.705   4.182  13.963  0.4831 -0.0578  0.4617
10329TIP3    H252479   1.773   4.178  13.827 -0.6447  1.2197 -0.1615
10330TIP3   OH252480   5.351   5.148  15.878  0.5715  0.0936  0.4284
10330TIP3    H152481   5.439   5.112  15.890  0.7733  0.4528  0.0496
10330TIP3    H252482   5.366   5.240  15.855  0.2029 -0.4083 -2.0287
10331TIP3   OH252483   5.024   0.865  16.057  0.2087 -0.7423 -0.6975
10331TIP3    H152484   5.090   0.834  15.995  0.4361 -1.0216 -0.3255
10331TIP3    H252485   5.054   0.953  16.081 -0.3490 -0.2912 -1.6326
10332TIP3   OH252486   4.178   1.933   3.232  0.3135 -0.5866  0.5274
10332TIP3    H152487   4.263   1.965   3.205 -0.0114 -0.4960 -0.4216
10332TIP3    H252488   4.193   1.895   3.319  1.4427 -1.1167  0.1250
10333TIP3   OH252489   6.303   2.768   2.238  0.2779 -0.4161 -0.7480
10333TIP3    H152490   6.280   2.676   2.249  0.9358 -0.6088 -0.9608
10333TIP3    H252491   6.219   2.814   2.244 -0.1338 -1.0809 -1.2022
10334TIP3   OH252492   4.163   6.087  13.151 -0.2866 -0.8904 -0.0070
10334TIP3    H152493   4.130   6.121  13.234 -0.4977 -0.8862 -0.0899
10334TIP3    H252494   4.233   6.027  13.175  0.3036 -0.1562  0.1279
10335TIP3   OH252495   5.206   3.538   4.535 -0.4784  0.1682 -0.3539
10335TIP3    H152496   5.209   3.453   4.580  0.4548 -0.0132 -0.7438
10335TIP3    H252497   5.284   3.584   4.565  0.2946 -0.0395 -1.9044
10336TIP3   OH252498   0.359   5.279  16.962  0.0149  0.1243 -0.3268
10336TIP3    H152499   0.337   5.214  17.028  1.6074  0.9352  1.0689
10336TIP3    H252500   0.274   5.302  16.922 -1.0383 -0.1731  1.6318
10337TIP3   OH252501   6.100   5.096  13.075 -0.1437 -0.1422 -0.2095
10337TIP3    H152502   6.097   5.004  13.047 -1.1823  0.0133 -0.6563
10337TIP3    H252503   6.187   5.126  13.049  0.2430 -1.0246  0.0223
10338TIP3   OH252504   6.040   4.831   5.236 -0.4157  0.6378 -0.3774
10338TIP3    H152505   6.022   4.925   5.241  0.8809  1.0032 -1.7869
10338TIP3    H252506   6.123   4.825   5.188  0.2943 -1.1706  0.9692
10339TIP3   OH252507   1.200   0.033   4.521 -0.0522  0.4551  0.0509
10339TIP3    H152508   1.124   0.068   4.569 -0.4015  1.2929 -1.0598
10339TIP3    H252509   1.257   0.109   4.510  0.4866  0.0439  0.0245
10340TIP3   OH252510   3.914   0.725   2.902  0.5040  0.2779  0.9037
10340TIP3    H152511   3.843   0.711   2.838 -0.1013  0.2020  1.5809
10340TIP3    H252512   3.960   0.641   2.904  1.7271  0.8550 -0.8381
10341TIP3   OH252513   2.248   4.759   0.164  0.3510  0.3462  0.2527
10341TIP3    H152514   2.338   4.774   0.191  0.0655 -0.0424  1.5007
10341TIP3    H252515   2.228   4.830   0.103  1.6344  0.1774 -0.3918
10342TIP3   OH252516   2.355   6.234   4.985 -0.0181  0.2539  0.3642
10342TIP3    H152517   2.301   6.283   4.923 -0.2459 -0.8792 -0.3497
10342TIP3    H252518   2.313   6.148   4.990  1.0559 -0.2601  0.6938
10343TIP3   OH252519   2.962   6.769  13.999  0.2223  0.2212 -0.3279
10343TIP3    H152520   3.034   6.730  14.050  0.1387 -0.6627 -0.8566
10343TIP3    H252521   2.982   6.745  13.908 -0.8721 -0.2501 -0.4570
10344TIP3   OH252522   4.544   4.559   1.582 -0.3527 -0.0255  0.2092
10344TIP3    H152523   4.460   4.538   1.624  0.5021  0.5117  2.3287
10344TIP3    H252524   4.600   4.586   1.655  1.0709  1.5327 -1.4039
10345TIP3   OH252525   6.737   6.657   3.920 -0.4596  0.3933  0.2726
10345TIP3    H152526   6.753   6.639   3.828 -2.6270  0.8408 -0.2637
10345TIP3    H252527   6.760   6.576   3.965  0.0757 -0.0291 -0.7301
10346TIP3   OH252528   6.161   0.293   2.104  0.0409  0.0856  0.1007
10346TIP3    H152529   6.108   0.232   2.053  1.7658 -0.5612 -1.0003
10346TIP3    H252530   6.111   0.375   2.104 -0.7977 -0.3971 -1.1646
10347TIP3   OH252531   1.000   0.847   2.126  0.8407 -0.4616 -0.0484
10347TIP3    H152532   1.064   0.890   2.183  1.5455 -0.1793 -1.0165
10347TIP3    H252533   1.044   0.841   2.041 -0.2419 -0.7053 -0.6156
10348TIP3   OH252534   1.730   0.499  15.316  0.3281  0.3222 -0.0482
10348TIP3    H152535   1.656   0.484  15.258 -0.1259 -0.9952  0.8289
10348TIP3    H252536   1.692   0.542  15.393  0.7895  1.2783 -0.3332
10349TIP3   OH252537   3.009   5.444  12.620  0.3183  0.2510  0.3525
10349TIP3    H152538   2.971   5.434  12.706 -0.7350  0.7624 -0.0380
10349TIP3    H252539   3.076   5.511  12.631  1.8649 -1.3401  1.2495
10350TIP3   OH252540   3.603   2.536  15.003  0.2141  0.2741 -0.2404
10350TIP3    H152541   3.509   2.521  15.008  0.1113  0.8822 -0.3049
10350TIP3    H252542   3.612   2.615  14.950  0.7670  0.1630 -0.3164
10351TIP3   OH252543   4.240   5.767   1.960  0.3519  0.6958 -0.8007
10351TIP3    H152544   4.323   5.779   2.007  0.1876  0.5396 -0.4665
10351TIP3    H252545   4.266   5.742   1.871  0.6612  0.2114 -0.5777
10352TIP3   OH252546   5.609   3.927  10.665  0.9753 -0.1146  0.1582
10352TIP3    H152547   5.595   4.012  10.622  1.1667 -0.7222 -1.1442
10352TIP3    H252548   5.645   3.950  10.751 -1.2148  1.1887  0.8017
10353TIP3   OH252549   2.588   5.772  14.303  0.3019  0.0305 -0.0322
10353TIP3    H152550   2.541   5.730  14.231  0.2971  0.1075 -0.0737
10353TIP3    H252551   2.527   5.767  14.377  0.2414  0.1016 -0.0782
10354TIP3   OH252552   4.714   2.116   5.965  0.3065  0.4549 -0.3090
10354TIP3    H152553   4.722   2.138   6.058  0.9516 -1.6393  0.1971
10354TIP3    H252554   4.797   2.144   5.927 -0.4619  2.5129 -0.5736
10355TIP3   OH252555   5.004   2.339   4.345 -0.1436  0.4633 -0.7254
10355TIP3    H152556   5.037   2.304   4.262  1.9089 -0.3664  0.3427
10355TIP3    H252557   4.962   2.264   4.387  0.1793  0.4773 -0.3749
10356TIP3   OH252558   4.998   4.071   0.659 -0.3528  0.4440  0.4263
10356TIP3    H152559   5.087   4.105   0.669 -0.3995  0.2148  1.7345
10356TIP3    H252560   4.949   4.114   0.728 -0.8284 -0.9012  0.9387
10357TIP3   OH252561   5.108   1.236   5.911 -0.4473 -0.4016 -0.0328
10357TIP3    H152562   5.035   1.296   5.896  0.4543  0.3838 -1.4930
10357TIP3    H252563   5.170   1.256   5.841  0.8327 -1.5774  0.7235
10358TIP3   OH252564   3.411   0.429  12.405 -0.0521 -0.2474  0.0237
10358TIP3    H152565   3.482   0.437  12.468  1.1978  0.9141 -1.4577
10358TIP3    H252566   3.428   0.348  12.358 -0.0010 -0.2242  0.0028
10359TIP3   OH252567   3.906   1.542  12.405  0.2618 -0.0419  0.3450
10359TIP3    H152568   3.824   1.591  12.395 -0.4386 -1.5229 -2.2482
10359TIP3    H252569   3.971   1.608  12.430 -0.8259  2.0711 -1.9482
10360TIP3   OH252570   4.927   5.984   3.702 -0.1799  0.0793 -0.0155
10360TIP3    H152571   4.903   5.928   3.776  0.0115 -0.9227 -0.6861
10360TIP3    H252572   4.987   6.049   3.739  2.2194 -2.1054  0.2357
10361TIP3   OH252573   6.158   2.222  14.877 -0.2653  0.3620  0.2646
10361TIP3    H152574   6.126   2.194  14.963  1.9578  0.3226  1.1425
10361TIP3    H252575   6.179   2.140  14.831  0.7732  0.4260  0.6081
10362TIP3   OH252576   1.182   3.874   4.133 -0.6597  0.0017  0.3085
10362TIP3    H152577   1.267   3.871   4.089 -0.5675  0.8040  0.4261
10362TIP3    H252578   1.123   3.915   4.069 -0.2775  2.2359  1.2852
10363TIP3   OH252579   3.446   6.638   1.037 -0.6826 -0.2090  0.2143
10363TIP3    H152580   3.441   6.543   1.028 -0.9201 -0.1721 -0.0474
10363TIP3    H252581   3.451   6.653   1.131  0.1477 -0.5198  0.2300
10364TIP3   OH252582   6.186   6.429  11.836  0.0542  0.2345 -0.5029
10364TIP3    H152583   6.235   6.403  11.758 -0.1430  0.1179 -0.5897
10364TIP3    H252584   6.252   6.463  11.896  0.7475 -2.8759  0.7074
10365TIP3   OH252585   6.019   4.640   3.113  0.1481 -0.4511  0.8126
10365TIP3    H152586   6.106   4.602   3.121  0.0467 -0.9601 -0.3779
10365TIP3    H252587   6.030   4.731   3.142  0.4431 -1.2464  3.4018
10366TIP3   OH252588   4.507   1.326   2.497 -0.4453  0.3023  0.0602
10366TIP3    H152589   4.464   1.241   2.501 -0.8561  0.5424  1.8149
10366TIP3    H252590   4.592   1.309   2.457 -0.9611 -0.7209 -0.6323
10367TIP3   OH252591   5.053   0.298   0.717 -0.7622  0.2568 -0.4276
10367TIP3    H152592   5.101   0.217   0.732  0.2217  0.4185 -2.4637
10367TIP3    H252593   5.059   0.345   0.801  3.7025  0.8179 -0.8266
10368TIP3   OH252594   3.183   4.407   2.263 -0.4088  0.5122 -0.5533
10368TIP3    H152595   3.249   4.370   2.322  0.5078  2.4713 -0.2875
10368TIP3    H252596   3.157   4.333   2.208  0.9014 -0.6683  0.3235
10369TIP3   OH252597   0.342   5.794   0.001 -0.4222  0.1871  0.3170
10369TIP3    H152598   0.289   5.742  -0.059 -0.3209  0.4806 -0.0305
10369TIP3    H252599   0.331   5.884  -0.029 -2.0584  0.6157  2.0251
10370TIP3   OH252600   6.603   3.047   3.063  0.2805 -0.4114  0.0057
10370TIP3    H152601   6.584   2.971   3.008  0.3144 -0.4627  0.0652
10370TIP3    H252602   6.546   3.116   3.028  0.3640 -0.4197 -0.1482
10371TIP3   OH252603   5.888   0.246   2.333 -0.0795  0.0396  0.4217
10371TIP3    H152604   5.907   0.302   2.258  0.6098 -0.4711  0.2067
10371TIP3    H252605   5.795   0.262   2.352  0.2724  1.7838  0.8180
10372TIP3   OH252606   1.121   3.767  17.162  0.3250  0.2057  0.3629
10372TIP3    H152607   1.156   3.799  17.079 -0.9185  1.3280  0.2272
10372TIP3    H252608   1.050   3.709  17.136  0.5443 -0.1829  0.6360
10373TIP3   OH252609   0.222   6.149  14.643  0.1961  0.3092 -0.2689
10373TIP3    H152610   0.158   6.083  14.615  1.5200 -0.9829 -0.4101
10373TIP3    H252611   0.193   6.175  14.731 -0.6073 -0.1304 -0.3949
10374TIP3   OH252612   6.257   1.903  12.950  0.5279 -0.3033  0.0289
10374TIP3    H152613   6.179   1.957  12.944 -1.4618 -2.9725 -0.4156
10374TIP3    H252614   6.293   1.903  12.861  1.4418  1.3622  0.3519
10375TIP3   OH252615   6.342   4.809  11.364 -0.4319  0.0353  0.1530
10375TIP3    H152616   6.353   4.891  11.315 -0.1229  0.0748  0.2841
10375TIP3    H252617   6.331   4.742  11.297 -3.1586  0.4975  0.0499
10376TIP3   OH252618   0.135   6.529   4.453 -0.1957  0.1262 -0.2244
10376TIP3    H152619   0.202   6.596   4.460 -0.0696 -0.1025  0.9242
10376TIP3    H252620   0.072   6.564   4.390  1.1677  0.1815 -1.6211
10377TIP3   OH252621   6.251   2.811   3.513 -0.1084  0.2279  0.3671
10377TIP3    H152622   6.280   2.826   3.603  1.3211  1.4126 -0.2402
10377TIP3    H252623   6.293   2.881   3.463 -0.4696 -0.7059 -1.3066
10378TIP3   OH252624   0.560   3.035   0.402 -0.4348  0.4026  0.2459
10378TIP3    H152625   0.628   2.982   0.360 -0.0716  1.5841 -0.7038
10378TIP3    H252626   0.480   2.985   0.390  0.0654 -0.4288  0.3016
10379TIP3   OH252627   1.561   3.842  11.875 -0.2998  0.1219 -0.2772
10379TIP3    H152628   1.570   3.775  11.943 -0.4354  0.8237  0.4461
10379TIP3    H252629   1.500   3.804  11.812  2.6035 -2.1061 -2.0191
10380TIP3   OH252630   0.562   5.138  11.323 -0.2393 -0.3852 -0.5392
10380TIP3    H152631   0.583   5.223  11.285  0.3707  0.1894  1.0019
10380TIP3    H252632   0.483   5.110  11.277  1.1987 -0.4139 -3.1968
10381TIP3   OH252633   3.719   3.770  13.719  0.3543  0.6381  0.5557
10381TIP3    H152634   3.655   3.758  13.649  2.1229  2.9070 -1.6440
10381TIP3    H252635   3.668   3.805  13.792 -1.0759  1.6015 -0.8362
10382TIP3   OH252636   6.363   1.077  13.962 -0.2509  0.0933 -0.2591
10382TIP3    H152637   6.323   0.999  14.000 -0.1859  0.1104 -0.1554
10382TIP3    H252638   6.296   1.113  13.903 -0.5243  0.3292  0.1941
10383TIP3   OH252639   5.816   5.143   6.693  0.2859  0.0798 -0.5849
10383TIP3    H152640   5.794   5.221   6.744 -0.3949  0.2703 -1.1541
10383TIP3    H252641   5.898   5.165   6.650  1.3110 -0.3798  1.0257
10384TIP3   OH252642   2.565   0.705   5.502  0.0812  0.4829 -0.4173
10384TIP3    H152643   2.601   0.726   5.588  0.3165  0.7425 -0.5750
10384TIP3    H252644   2.529   0.617   5.511  0.7843  0.1994 -0.2599
10385TIP3   OH252645   3.797   3.771   3.256  0.6454 -0.3017 -0.5969
10385TIP3    H152646   3.892   3.780   3.263  0.7178 -0.6416 -1.0801
10385TIP3    H252647   3.766   3.858   3.231  0.6070  0.3532  1.5373
10386TIP3   OH252648   0.415   2.959   3.889 -0.0649  0.9753 -0.0387
10386TIP3    H152649   0.406   2.951   3.984  1.7968 -0.5357  0.0756
10386TIP3    H252650   0.509   2.956   3.874 -0.3543 -1.2504 -2.0665
10387TIP3   OH252651   1.535   5.206   2.849  0.1123  0.3851  0.3283
10387TIP3    H152652   1.591   5.190   2.773  0.3614 -1.3723  0.8425
10387TIP3    H252653   1.446   5.198   2.815  0.1902  1.1620 -0.0800
10388TIP3   OH252654   2.558   3.425  13.526  0.3545  0.2650 -0.4011
10388TIP3    H152655   2.496   3.458  13.461 -0.0015 -2.5643 -1.6529
10388TIP3    H252656   2.644   3.449  13.491  0.0967  0.4084 -0.9559
10389TIP3   OH252657   1.351   6.294  14.453  0.5920 -0.2439  0.1209
10389TIP3    H152658   1.369   6.216  14.400  0.8774 -0.8265  1.0392
10389TIP3    H252659   1.436   6.316  14.492  0.3082 -0.0640  0.6451
10390TIP3   OH252660   3.860   3.318  16.046  0.7262 -0.2389 -0.1544
10390TIP3    H152661   3.940   3.318  16.099 -0.0329  1.7010  1.0853
10390TIP3    H252662   3.789   3.308  16.110 -0.1343  0.6957 -0.9281
10391TIP3   OH252663   6.640   0.254   0.537 -0.2937 -0.1155  0.2389
10391TIP3    H152664   6.650   0.275   0.445  0.6598 -0.4152  0.2610
10391TIP3    H252665   6.696   0.318   0.582 -0.1082 -0.4901  0.5451
10392TIP3   OH252666   2.043   0.112  14.834  0.3542  0.4379 -0.5996
10392TIP3    H152667   2.047   0.125  14.929  1.5043 -0.7928 -0.4524
10392TIP3    H252668   2.111   0.170  14.799  0.8211 -0.0701 -0.5457
10393TIP3   OH252669   5.654   2.967   1.742 -0.0545  0.0616  0.1778
10393TIP3    H152670   5.714   2.907   1.697  1.0035  0.8706  0.4610
10393TIP3    H252671   5.673   3.052   1.703  0.0848  0.5882  1.3552
10394TIP3   OH252672   5.213   6.299  11.158  0.6193  0.0077  0.1715
10394TIP3    H152673   5.290   6.265  11.205  1.2038 -0.6985 -1.2143
10394TIP3    H252674   5.192   6.230  11.095 -2.1948 -0.5488  1.5565
10395TIP3   OH252675   1.681   1.618  13.716 -0.0154  0.2634  0.3021
10395TIP3    H152676   1.626   1.591  13.789 -0.2095  1.1031  0.4787
10395TIP3    H252677   1.629   1.683  13.669 -0.6612 -1.5551 -1.6743
10396TIP3   OH252678   1.520   6.070  14.991  0.1433  0.6233 -0.4212
10396TIP3    H152679   1.559   6.130  15.054 -0.7152  1.0268 -0.2615
10396TIP3    H252680   1.432   6.053  15.025  0.1070 -0.1200 -0.8682
10397TIP3   OH252681   2.789   1.950   1.557 -0.1744 -0.8220 -0.8332
10397TIP3    H152682   2.879   1.925   1.579  0.3779  1.3648 -0.3647
10397TIP3    H252683   2.736   1.911   1.627  0.7270 -0.0478  0.3191
10398TIP3   OH252684   1.830   3.698  12.782 -0.1664 -0.3969 -0.6235
10398TIP3    H152685   1.864   3.632  12.722 -0.6259 -0.6978 -0.5642
10398TIP3    H252686   1.735   3.694  12.770 -0.1435  1.5245 -1.9783
10399TIP3   OH252687   4.459   0.373   4.599 -0.0834 -0.1351 -0.4463
10399TIP3    H152688   4.378   0.365   4.650 -0.6836  1.7929 -1.0035
10399TIP3    H252689   4.520   0.314   4.642 -1.4266 -0.7272  0.7396
10400TIP3   OH252690   1.144   4.526  16.524 -0.3154  0.3743 -0.0340
10400TIP3    H152691   1.183   4.584  16.588  0.8265 -1.2080  0.7815
10400TIP3    H252692   1.214   4.463  16.504 -1.4992 -0.7207 -0.8483
10401TIP3   OH252693   0.688   5.651  11.244 -0.2256 -0.0267 -0.1361
10401TIP3    H152694   0.689   5.738  11.285 -1.5541  1.1843 -2.5107
10401TIP3    H252695   0.770   5.647  11.194  0.1849 -0.4828  0.5483
10402TIP3   OH252696   1.971   0.478  13.148  0.3398 -0.6850  0.3973
10402TIP3    H152697   1.925   0.407  13.104 -2.1536  1.2106 -0.2760
10402TIP3    H252698   1.925   0.558  13.122  2.8866  1.2327  1.2359
10403TIP3   OH252699   3.783   5.716  14.846  0.0316 -0.0105  0.3919
10403TIP3    H152700   3.714   5.759  14.797 -1.3484 -4.5710 -2.2078
10403TIP3    H252701   3.863   5.732  14.796 -0.0386  1.0738  0.6033
10404TIP3   OH252702   2.968   3.080  15.509  0.0454 -0.2273  0.2829
10404TIP3    H152703   2.953   3.082  15.415 -0.3322  1.7153  0.3349
10404TIP3    H252704   2.884   3.053  15.546 -0.8171  2.0743  0.1625
10405TIP3   OH252705   0.431   1.180  15.313  0.2063 -0.1851 -0.0155
10405TIP3    H152706   0.503   1.118  15.300 -1.6229 -2.0034 -2.9015
10405TIP3    H252707   0.413   1.214  15.225 -1.7753  0.9835  0.7698
10406TIP3   OH252708   6.686   1.287  15.625 -0.2860  0.7272  0.0084
10406TIP3    H152709   6.745   1.295  15.700 -1.0022 -1.0696  0.8107
10406TIP3    H252710   6.670   1.193  15.617 -0.0427  0.8375 -2.5686
10407TIP3   OH252711   1.839   0.443  13.987  0.2358  0.3281  0.1665
10407TIP3    H152712   1.831   0.536  13.966  0.0218  0.0789 -0.8931
10407TIP3    H252713   1.907   0.439  14.054 -0.8235  1.3998  1.3555
10408TIP3   OH252714   4.131   6.138  12.061 -0.5811  0.0600 -0.0649
10408TIP3    H152715   4.087   6.055  12.045  1.7897 -1.4020  0.5175
10408TIP3    H252716   4.148   6.138  12.155  1.3842  0.1386 -0.3917
10409TIP3   OH252717   0.196   5.779   4.526  0.0833  0.2315 -0.7582
10409TIP3    H152718   0.167   5.697   4.566  0.4026  0.6997  0.4525
10409TIP3    H252719   0.260   5.752   4.460 -0.3041 -0.5381 -0.8295
10410TIP3   OH252720   2.656   5.660   5.091 -0.1016 -0.4599  0.0602
10410TIP3    H152721   2.680   5.752   5.094  0.5086 -0.6222  0.2833
10410TIP3    H252722   2.717   5.622   5.027 -1.1378 -0.4845 -0.9436
10411TIP3   OH252723   3.777   1.326   3.215  0.1203  0.1943 -0.0617
10411TIP3    H152724   3.771   1.386   3.141  1.3388  0.5681  0.1060
10411TIP3    H252725   3.867   1.292   3.211  0.0496 -0.1620  0.9468
10412TIP3   OH252726   6.533   6.348   4.755  0.1887 -0.2532  0.3698
10412TIP3    H152727   6.475   6.424   4.749 -1.1548 -1.0100  2.6789
10412TIP3    H252728   6.609   6.372   4.702 -1.4615  1.4643 -1.3874
10413TIP3   OH252729   5.471   2.150  13.757 -0.2266  0.2251  0.3856
10413TIP3    H152730   5.430   2.067  13.735  2.5897 -1.7482  1.8828
10413TIP3    H252731   5.444   2.166  13.848  0.3425  0.1730  0.5692
10414TIP3   OH252732   3.986   6.256  17.022  0.3476 -0.8392 -0.5906
10414TIP3    H152733   3.923   6.255  16.950  0.7401 -1.0747 -0.9368
10414TIP3    H252734   3.938   6.293  17.096  0.4506  1.1138 -1.4350
10415TIP3   OH252735   4.325   2.949  13.739 -0.4294 -0.7528  0.1633
10415TIP3    H152736   4.277   3.031  13.754  0.8571 -0.2589  1.9257
10415TIP3    H252737   4.369   2.962  13.655  0.7743  0.9457  0.9834
10416TIP3   OH252738   0.848   4.949   1.514 -0.1665  0.5700  0.2704
10416TIP3    H152739   0.896   4.993   1.584  0.7072  0.1551 -0.0566
10416TIP3    H252740   0.913   4.894   1.471 -0.9918 -0.2081 -0.0247
10417TIP3   OH252741   6.761   1.286   2.242 -0.0177  0.2601 -0.0058
10417TIP3    H152742   6.743   1.255   2.330 -0.2893  1.2034  0.2808
10417TIP3    H252743   6.831   1.229   2.210  1.6678  1.2927  1.6421
10418TIP3   OH252744   4.360   6.519  14.961  0.0814 -0.4402  0.1956
10418TIP3    H152745   4.362   6.433  15.002 -0.5575 -1.1847 -1.2708
10418TIP3    H252746   4.278   6.559  14.991  0.7929  0.0477  1.5741
10419TIP3   OH252747   5.230   5.051   3.574 -0.5568  0.3503  0.3237
10419TIP3    H152748   5.266   5.081   3.491 -1.6059 -0.7040 -0.5529
10419TIP3    H252749   5.301   5.061   3.637  0.4079  0.7180 -0.7956
10420TIP3   OH252750   3.530   1.149   0.141 -0.5073  0.1670  0.2201
10420TIP3    H152751   3.467   1.216   0.112 -0.3755  0.4950  0.6738
10420TIP3    H252752   3.609   1.199   0.162 -0.2135 -0.2045 -0.0153
10421TIP3   OH252753   5.186   4.706  14.264 -0.0169 -0.0962  0.1930
10421TIP3    H152754   5.205   4.613  14.250 -1.4210 -0.3970  0.0904
10421TIP3    H252755   5.132   4.707  14.343  0.8636  0.7505  0.7936
10422TIP3   OH252756   0.728   4.701   3.784 -0.0170  0.1148 -0.1587
10422TIP3    H152757   0.678   4.664   3.857  0.7152 -0.0171  0.2960
10422TIP3    H252758   0.818   4.670   3.799  0.6100  1.9563  0.1758
10423TIP3   OH252759   4.761   2.630   4.755 -0.3104 -0.1728  0.2213
10423TIP3    H152760   4.751   2.578   4.834 -0.0500 -0.8612 -0.1950
10423TIP3    H252761   4.838   2.684   4.771 -0.4474 -0.0761  0.5597
10424TIP3   OH252762   5.095   6.036   4.589  0.3848  0.2063 -0.3895
10424TIP3    H152763   5.099   5.946   4.556 -0.0922 -0.0360  0.1952
10424TIP3    H252764   5.135   6.088   4.520  2.6737 -0.6835  0.1829
10425TIP3   OH252765   5.197   1.616   1.128 -0.3009 -0.1722 -0.2902
10425TIP3    H152766   5.213   1.707   1.102  1.6227 -0.7073 -1.2156
10425TIP3    H252767   5.171   1.621   1.220 -0.9838  1.3637 -0.5419
10426TIP3   OH252768   3.644   4.336   5.798  0.0630 -0.4212 -0.3521
10426TIP3    H152769   3.700   4.272   5.841  1.7638  1.6168  0.6782
10426TIP3    H252770   3.588   4.370   5.868 -0.4824 -0.4123 -0.7831
10427TIP3   OH252771   2.195   1.506   2.464 -0.0644 -0.0520 -0.4182
10427TIP3    H152772   2.194   1.420   2.506  0.4737  0.3858  0.5261
10427TIP3    H252773   2.240   1.491   2.380 -0.9330 -0.8885 -0.7485
10428TIP3   OH252774   2.224   6.225   1.672 -0.4323 -0.1071  0.4104
10428TIP3    H152775   2.319   6.220   1.683 -0.5033  0.0760  1.1205
10428TIP3    H252776   2.205   6.318   1.675 -1.0073 -0.2260  3.6887
10429TIP3   OH252777   2.081   0.871   0.169 -0.0800  0.1751 -0.0272
10429TIP3    H152778   2.031   0.840   0.093  0.4552 -1.9575  0.4173
10429TIP3    H252779   2.138   0.797   0.192  1.6499  1.7112  0.8728
10430TIP3   OH252780   2.818   6.521  16.931 -0.2093  0.3991 -0.7189
10430TIP3    H152781   2.802   6.448  16.990  1.5120 -0.8089 -1.6664
10430TIP3    H252782   2.870   6.583  16.982  3.8815 -1.9441 -1.6146
10431TIP3   OH252783   2.624   4.405   6.578 -0.1207  0.0475  0.7120
10431TIP3    H152784   2.683   4.469   6.539 -0.4144 -0.4027 -0.5174
10431TIP3    H252785   2.537   4.443   6.568 -0.2665 -0.3954  0.2699
10432TIP3   OH252786   0.817   1.398  16.105  0.6227  0.1732 -0.1998
10432TIP3    H152787   0.852   1.319  16.064 -0.0213 -0.2784  0.1063
10432TIP3    H252788   0.777   1.447  16.033  0.4068 -0.1174 -0.2772
10433TIP3   OH252789   0.746   0.498  12.030  0.0894  0.0006 -0.0163
10433TIP3    H152790   0.760   0.572  11.971 -1.6082  0.3722 -0.0219
10433TIP3    H252791   0.834   0.472  12.059  0.7760  1.3812 -0.7821
10434TIP3   OH252792   4.444   3.624  10.308 -0.0009  0.4461  0.2312
10434TIP3    H152793   4.443   3.538  10.266  0.1719  0.2329  0.6547
10434TIP3    H252794   4.491   3.610  10.390  1.2081  1.2281 -0.2986
10435TIP3   OH252795   2.006   1.543  14.992 -0.3131  0.4851 -0.4920
10435TIP3    H152796   1.960   1.549  15.075 -0.3063 -2.4942 -0.1524
10435TIP3    H252797   1.937   1.543  14.926 -0.7304 -1.5279 -0.1341
10436TIP3   OH252798   0.659   1.736   5.984 -0.0927 -0.0163  0.0027
10436TIP3    H152799   0.586   1.674   5.984  0.8824 -1.3045  2.3491
10436TIP3    H252800   0.630   1.806   6.043 -0.0734  0.3292 -0.3940
10437TIP3   OH252801   0.577   1.422   6.381  0.1505 -0.3503 -0.0842
10437TIP3    H152802   0.623   1.506   6.386  0.7082 -0.6442 -0.1914
10437TIP3    H252803   0.497   1.435   6.432 -0.0014  0.3947 -0.4983
10438TIP3   OH252804   3.603   3.496   2.827 -0.1402  0.0545 -0.1112
10438TIP3    H152805   3.620   3.513   2.735 -1.4732  0.5377 -0.2835
10438TIP3    H252806   3.512   3.466   2.830 -0.0757 -0.0738  1.0273
10439TIP3   OH252807   1.366   2.964   5.454 -0.1031 -0.1736 -0.2768
10439TIP3    H152808   1.347   2.871   5.465 -0.4600  0.0973  1.7700
10439TIP3    H252809   1.306   3.008   5.514  0.3852  1.3623 -0.8575
10440TIP3   OH252810   2.576   5.854  10.849  0.2479 -0.8333  0.0226
10440TIP3    H152811   2.628   5.867  10.770  0.3468 -0.0772  0.1989
10440TIP3    H252812   2.640   5.833  10.917  0.9339  3.6328  1.1137
10441TIP3   OH252813   4.180   2.018  11.466 -0.0462  0.5494 -0.8718
10441TIP3    H152814   4.227   2.083  11.518  1.3978  0.6317 -2.1927
10441TIP3    H252815   4.088   2.045  11.471  0.0113  0.5175  1.6041
10442TIP3   OH252816   0.944   5.168  16.399 -0.1550 -0.5453 -0.3586
10442TIP3    H152817   0.899   5.133  16.476  0.2825  0.5316  0.4069
10442TIP3    H252818   0.993   5.243  16.432  0.5313 -0.4339 -1.5803
10443TIP3   OH252819   6.569   6.144   3.707 -0.2892 -0.1942  0.0150
10443TIP3    H152820   6.474   6.156   3.708 -0.7894 -2.8921 -1.9081
10443TIP3    H252821   6.592   6.133   3.799 -2.3298 -2.0708  0.4034
10444TIP3   OH252822   0.972   6.466   6.193  0.0514  0.5479  0.3251
10444TIP3    H152823   1.001   6.381   6.226 -2.2897 -0.5759 -0.2602
10444TIP3    H252824   0.880   6.471   6.217 -0.7709  1.3839 -2.5409
10445TIP3   OH252825   1.423   2.218   1.878 -0.3777  0.5400  0.1611
10445TIP3    H152826   1.493   2.283   1.886 -1.2791  1.7113 -0.9515
10445TIP3    H252827   1.395   2.202   1.968  2.0016 -0.7939  0.7464
10446TIP3   OH252828   5.957   1.280  13.161 -0.2262 -0.2488 -0.1771
10446TIP3    H152829   6.051   1.275  13.142  0.6424  0.9987  3.0110
10446TIP3    H252830   5.919   1.319  13.082  2.0492 -0.1190 -1.3054
10447TIP3   OH252831   3.896   3.803   0.614  0.2347 -0.0387  0.1664
10447TIP3    H152832   3.806   3.776   0.629  0.5626 -0.5185  1.3231
10447TIP3    H252833   3.929   3.831   0.699  1.8906 -2.0558  0.2779
10448TIP3   OH252834   5.017   6.125  15.842  0.1215  0.1856 -0.6210
10448TIP3    H152835   5.068   6.191  15.889  0.5648 -1.9932  2.1979
10448TIP3    H252836   4.926   6.143  15.868  0.0149  0.8616 -1.4385
10449TIP3   OH252837   6.201   1.867   3.305  0.1087  0.4261  0.2910
10449TIP3    H152838   6.119   1.819   3.293  0.2552  0.3527 -0.4370
10449TIP3    H252839   6.240   1.872   3.218  1.2643 -0.2241  0.7385
10450TIP3   OH252840   2.527   2.010   3.251  0.5500 -0.6147 -0.0418
10450TIP3    H152841   2.507   1.922   3.217 -1.7300  0.6757 -2.3411
10450TIP3    H252842   2.442   2.054   3.256  1.4418  1.0472  2.5220
10451TIP3   OH252843   4.692   4.680  16.454 -0.2828  0.9792 -0.1394
10451TIP3    H152844   4.741   4.762  16.449 -0.7210  1.3146  0.8005
10451TIP3    H252845   4.624   4.688  16.388 -0.4306  1.4474  0.0704
10452TIP3   OH252846   4.116   2.726  14.606  0.4476  0.4405  0.0261
10452TIP3    H152847   4.075   2.787  14.668  1.0989  1.1610 -0.2341
10452TIP3    H252848   4.058   2.728  14.530  2.3813  3.8665 -1.6382
10453TIP3   OH252849   2.959   6.444  14.235 -0.5121  0.2418 -0.0643
10453TIP3    H152850   2.915   6.360  14.253  0.0526  0.0416  0.4299
10453TIP3    H252851   2.973   6.443  14.140 -0.6836 -0.1396 -0.0912
10454TIP3   OH252852   1.551   0.299  15.910 -0.1910  0.1358  0.2832
10454TIP3    H152853   1.585   0.210  15.901  2.4626  1.0837  0.0312
10454TIP3    H252854   1.511   0.300  15.997 -0.7705 -1.4183  0.0703
10455TIP3   OH252855   1.704   1.296  11.336  0.3619 -0.7304  0.2776
10455TIP3    H152856   1.617   1.304  11.298 -0.9778 -2.5809  2.6134
10455TIP3    H252857   1.763   1.335  11.272 -2.3863  2.9282 -0.3173
10456TIP3   OH252858   5.821   2.990  15.814  0.4773  0.4254 -0.1328
10456TIP3    H152859   5.738   2.965  15.854  0.5769 -0.0846 -0.2463
10456TIP3    H252860   5.830   3.083  15.835 -0.6165  0.7470 -0.9834
10457TIP3   OH252861   5.766   2.857   1.093  0.2861  0.7010  0.3733
10457TIP3    H152862   5.710   2.848   1.016 -0.4861  2.9924  0.5927
10457TIP3    H252863   5.854   2.838   1.061 -0.1560  0.6309 -0.8505
10458TIP3   OH252864   0.262   5.566  12.676  0.2674 -0.9737  0.7920
10458TIP3    H152865   0.312   5.646  12.687 -0.9272  0.1193 -1.2344
10458TIP3    H252866   0.271   5.544  12.583  0.1568 -2.9398  1.1913
10459TIP3   OH252867   3.840   0.520  16.958  0.2153  0.0089 -0.0953
10459TIP3    H152868   3.899   0.594  16.977  0.1344 -0.0950  0.5860
10459TIP3    H252869   3.809   0.537  16.869 -2.2286  2.5119  1.0674
10460TIP3   OH252870   0.923   5.448   2.853 -0.4080  0.2476  0.2897
10460TIP3    H152871   1.011   5.478   2.832 -0.7673  1.6132  0.6360
10460TIP3    H252872   0.903   5.488   2.938 -1.0744 -0.6704  0.5889
10461TIP3   OH252873   1.969   1.236  13.544  0.9499  0.0724  0.0044
10461TIP3    H152874   1.883   1.203  13.573 -0.5215  2.8565 -0.8464
10461TIP3    H252875   2.019   1.156  13.523 -1.2188 -1.6707  1.0209
10462TIP3   OH252876   6.683   4.508   1.386  0.4300  0.4292  0.2051
10462TIP3    H152877   6.733   4.449   1.329  0.5705 -1.0402  1.7320
10462TIP3    H252878   6.680   4.591   1.339  1.6013 -0.3501 -1.3463
10463TIP3   OH252879   0.364   0.597  15.755  0.1423 -0.7711  0.7105
10463TIP3    H152880   0.414   0.672  15.720  0.0171 -0.4038  1.3090
10463TIP3    H252881   0.288   0.590  15.697 -0.5483  0.4160  1.4227
10464TIP3   OH252882   1.063   6.137   3.467  0.7515  0.3043  0.2571
10464TIP3    H152883   0.993   6.072   3.473 -1.1717  2.3010  0.4193
10464TIP3    H252884   1.064   6.163   3.375  1.5714  0.0269  0.1780
10465TIP3   OH252885   2.579   6.363  15.064 -0.2295  0.2971  0.3887
10465TIP3    H152886   2.612   6.273  15.068 -1.6335 -0.2962 -0.3996
10465TIP3    H252887   2.556   6.385  15.154 -0.8105 -0.5098  0.4415
10466TIP3   OH252888   6.182   0.694  11.869  0.3975  0.8418 -0.0550
10466TIP3    H152889   6.244   0.641  11.920  0.1856 -0.8233 -1.4436
10466TIP3    H252890   6.096   0.661  11.894  0.2717  0.3294 -1.1241
10467TIP3   OH252891   4.439   2.422   4.869  0.2678  0.4205  0.1503
10467TIP3    H152892   4.356   2.427   4.916  0.1414  1.4665 -0.1564
10467TIP3    H252893   4.426   2.479   4.793  1.9716  2.4145  1.2354
10468TIP3   OH252894   2.273   3.307   3.368  0.5875  0.4393 -0.2194
10468TIP3    H152895   2.206   3.240   3.360  0.4499  0.6729 -1.1714
10468TIP3    H252896   2.293   3.332   3.277 -0.3560  2.6772  0.1293
10469TIP3   OH252897   3.166   4.658  13.984  0.1029 -0.0411 -0.0264
10469TIP3    H152898   3.077   4.681  13.957 -0.6317  0.0772  2.2782
10469TIP3    H252899   3.222   4.719  13.935 -0.9665 -0.6739 -2.1590
10470TIP3   OH252900   4.271   5.601  16.510  0.2631 -0.2670  0.0046
10470TIP3    H152901   4.236   5.676  16.460  0.5188 -0.2832 -0.1971
10470TIP3    H252902   4.199   5.538  16.512 -1.1640  1.2387  2.9081
10471TIP3   OH252903   3.609   3.184  16.813 -0.5447  0.1338 -0.1385
10471TIP3    H152904   3.617   3.265  16.763 -2.8994 -0.6814 -2.0159
10471TIP3    H252905   3.529   3.195  16.864 -0.5119 -0.7671  0.1225
10472TIP3   OH252906   4.816   5.200   3.084 -0.5069  0.1294  0.0708
10472TIP3    H152907   4.753   5.263   3.049 -1.9794 -0.6234  1.2467
10472TIP3    H252908   4.763   5.142   3.139  1.3173 -0.1414  1.6421
10473TIP3   OH252909   2.016   0.408  12.401 -0.5966 -0.3882  0.4139
10473TIP3    H152910   2.000   0.491  12.355 -0.6945 -1.3904 -1.4538
10473TIP3    H252911   2.091   0.426  12.458 -1.2863  1.2599  0.8680
10474TIP3   OH252912   2.384   5.131   0.356  0.0540 -0.1361  0.2791
10474TIP3    H152913   2.415   5.152   0.268  0.7145 -0.7242  0.3597
10474TIP3    H252914   2.424   5.046   0.376 -1.3043 -0.7560  0.5467
10475TIP3   OH252915   3.326   6.643  16.646 -0.0829 -0.2067  0.0608
10475TIP3    H152916   3.250   6.701  16.636 -0.3407 -0.3663  0.9359
10475TIP3    H252917   3.400   6.703  16.653 -0.4774  0.1189  2.1097
10476TIP3   OH252918   0.253   4.401  13.559  0.0799 -0.5345 -0.0821
10476TIP3    H152919   0.304   4.397  13.640  1.0695 -0.6898 -0.6893
10476TIP3    H252920   0.255   4.311  13.526 -1.3611 -0.7441  0.3199
10477TIP3   OH252921   1.073   2.229   0.555  0.4066  0.0797  0.3528
10477TIP3    H152922   1.042   2.273   0.475 -1.5936  0.6033  1.3587
10477TIP3    H252923   1.146   2.175   0.525  0.5467  1.2431 -1.6017
10478TIP3   OH252924   4.407   6.278   3.342 -0.6325 -0.3575  0.1413
10478TIP3    H152925   4.334   6.217   3.346  0.9048 -2.4066 -1.0050
10478TIP3    H252926   4.425   6.289   3.249  1.0976 -0.7113  0.3957
10479TIP3   OH252927   3.091   5.500   4.517 -0.4698 -0.2822  0.5527
10479TIP3    H152928   3.133   5.491   4.602  0.0886  2.1261  0.6244
10479TIP3    H252929   3.115   5.420   4.470 -0.0467 -1.2535  2.3317
10480TIP3   OH252930   3.676   0.609   2.189  0.3661 -0.4496 -0.0794
10480TIP3    H152931   3.591   0.602   2.147  0.9772 -1.3811 -1.2203
10480TIP3    H252932   3.730   0.658   2.127  0.7864 -0.2547  0.4291
10481TIP3   OH252933   5.116   6.627   4.174 -0.0208  0.5984 -0.2033
10481TIP3    H152934   5.175   6.587   4.237  0.8223 -0.1272 -1.4119
10481TIP3    H252935   5.030   6.593   4.197  0.5276 -1.1516 -0.5694
10482TIP3   OH252936   6.786   0.737  12.704  0.1306 -0.2368  0.3864
10482TIP3    H152937   6.847   0.719  12.633 -0.7190 -1.7037 -0.0197
10482TIP3    H252938   6.825   0.810  12.751 -0.0051  1.8682 -2.4704
10483TIP3   OH252939   5.263   3.104  12.082 -0.0129 -0.2337  0.0619
10483TIP3    H152940   5.260   3.196  12.108 -2.1304 -0.2999  0.2889
10483TIP3    H252941   5.326   3.064  12.141 -0.1163  0.8037  0.9164
10484TIP3   OH252942   1.148   4.854   4.810 -0.2446 -0.3835  0.1828
10484TIP3    H152943   1.201   4.921   4.854  1.9301 -1.2662 -0.9545
10484TIP3    H252944   1.183   4.771   4.843 -0.2353 -1.0102 -1.3329
10485TIP3   OH252945   4.325   4.746   2.743 -0.0406 -0.2864  0.3524
10485TIP3    H152946   4.262   4.741   2.671  0.9335  0.7847 -0.6160
10485TIP3    H252947   4.321   4.837   2.773  0.9726 -0.2192  0.3278
10486TIP3   OH252948   4.528   3.631  15.075 -0.1830  0.7859 -0.2347
10486TIP3    H152949   4.601   3.661  15.021 -0.5277  1.2688 -0.4351
10486TIP3    H252950   4.450   3.654  15.025 -0.4932 -3.0705 -1.8786
10487TIP3   OH252951   2.298   1.120   2.214 -0.5511 -0.5070  0.4530
10487TIP3    H152952   2.256   1.194   2.170  0.3478  0.4955  1.2086
10487TIP3    H252953   2.363   1.089   2.152  1.6866  1.7900  1.4601
10488TIP3   OH252954   1.958   3.793  13.305 -0.1001  0.3000 -0.3593
10488TIP3    H152955   1.911   3.860  13.255  0.3538  2.4783  1.9450
10488TIP3    H252956   2.025   3.841  13.353  0.4991 -1.8682  1.1569
10489TIP3   OH252957   2.461   0.673  17.142  0.3066  0.5515  0.4062
10489TIP3    H152958   2.503   0.613  17.080 -0.1121  0.2019  0.4492
10489TIP3    H252959   2.413   0.734  17.087 -0.1139  0.2046  0.3752
10490TIP3   OH252960   4.727   6.079  14.581 -0.2038 -0.5542 -0.2413
10490TIP3    H152961   4.771   5.995  14.597  1.4166  0.1408 -0.8528
10490TIP3    H252962   4.749   6.100  14.490 -0.0570  0.8259  0.0934
10491TIP3   OH252963   6.138   1.557  12.487  0.1930 -0.0288 -0.1848
10491TIP3    H152964   6.224   1.586  12.457  0.7383  0.5393  1.7706
10491TIP3    H252965   6.093   1.528  12.407  3.0031 -2.5748 -1.0074
10492TIP3   OH252966   4.510   2.048   3.467  0.2058  0.0133 -0.9212
10492TIP3    H152967   4.504   1.988   3.541 -2.4230  0.2908 -0.8089
10492TIP3    H252968   4.479   1.997   3.392  1.1171  0.2696 -1.4873
10493TIP3   OH252969   2.108   1.371   1.888  0.0459 -0.1048  0.6310
10493TIP3    H152970   2.179   1.404   1.833  1.9410  0.6158  3.3032
10493TIP3    H252971   2.039   1.438   1.880  0.3080  0.0444 -0.6826
10494TIP3   OH252972   3.849   4.524   1.842  0.0026  0.2908  0.1343
10494TIP3    H152973   3.802   4.513   1.925  0.3631  1.7972  0.5636
10494TIP3    H252974   3.790   4.577   1.788  0.8389  1.5191  0.3875
10495TIP3   OH252975   0.597   2.036   2.011 -0.3746  0.0469 -0.1042
10495TIP3    H152976   0.625   2.014   1.923 -0.2019 -1.7124  0.3500
10495TIP3    H252977   0.605   2.131   2.016 -1.8491  0.3555 -2.4536
10496TIP3   OH252978   4.908   6.808   1.110  0.2026 -0.8319  0.1401
10496TIP3    H152979   4.891   6.851   1.194  0.3198  0.1414 -0.3159
10496TIP3    H252980   4.831   6.828   1.057  0.7349 -0.2559 -0.4309
10497TIP3   OH252981   1.335   0.266  14.036 -0.2195 -0.4826  0.4997
10497TIP3    H152982   1.393   0.342  14.032 -0.0780 -0.6319 -2.3378
10497TIP3    H252983   1.263   0.293  14.092  0.0090  1.6221 -0.1498
10498TIP3   OH252984   6.313   6.033  16.757 -0.2999  0.0706 -0.1744
10498TIP3    H152985   6.324   6.073  16.844  2.1326 -0.4584 -0.1557
10498TIP3    H252986   6.229   5.987  16.762  0.4876 -1.2796  2.4931
10499TIP3   OH252987   3.428   6.343   5.340 -0.0342 -0.4524  0.2658
10499TIP3    H152988   3.405   6.250   5.335  2.2425 -1.2676  2.6011
10499TIP3    H252989   3.497   6.354   5.275  0.4044 -0.6805  0.6840
10500TIP3   OH252990   5.170   4.195   1.196  0.0779  0.2162 -0.1784
10500TIP3    H152991   5.118   4.272   1.217  0.2050  0.0074  0.9694
10500TIP3    H252992   5.176   4.195   1.101 -2.4837 -0.0490 -0.4209
10501TIP3   OH252993   6.547   0.020   0.702  0.3685  0.1682  0.3112
10501TIP3    H152994   6.515   0.108   0.721  0.5031  0.8928 -2.3507
10501TIP3    H252995   6.628   0.035   0.653  0.8782 -1.4774  0.6072
10502TIP3   OH252996   2.428   4.377   4.652  0.0490  0.3499 -0.5541
10502TIP3    H152997   2.384   4.296   4.678  0.5539 -0.1053 -1.1107
10502TIP3    H252998   2.366   4.420   4.593 -0.3923  0.5775  0.0601
10503TIP3   OH252999   1.740   2.815   2.334 -0.1304  0.2656 -0.1257
10503TIP3    H153000   1.696   2.813   2.249 -1.7672 -0.2614  0.6935
10503TIP3    H253001   1.821   2.767   2.321 -1.0999 -1.1936 -1.0157
10504TIP3   OH253002   3.848   1.161  11.751  0.0475  0.1714  0.1171
10504TIP3    H153003   3.815   1.229  11.692  1.9406  0.7416 -0.3741
10504TIP3    H253004   3.933   1.194  11.780 -0.0844 -0.8792  1.8499
10505TIP3   OH253005   6.541   3.611  10.965  0.2431  0.5438  0.1028
10505TIP3    H153006   6.599   3.536  10.957  2.7208  2.1093  2.0446
10505TIP3    H253007   6.494   3.614  10.881  0.2174 -2.9148 -0.1420
10506TIP3   OH253008   4.952   3.367   3.466  0.1587 -0.6868  0.5242
10506TIP3    H153009   4.891   3.360   3.394  1.3038 -0.0735 -0.5513
10506TIP3    H253010   4.995   3.281   3.471  0.0236 -0.7535  0.5353
10507TIP3   OH253011   2.053   3.497   5.043 -0.1676 -0.0383 -0.2725
10507TIP3    H153012   2.122   3.443   5.082 -0.4558 -0.5222 -0.4175
10507TIP3    H253013   2.098   3.554   4.981  0.0062 -0.9511 -1.0058
10508TIP3   OH253014   1.843   3.555  15.046  0.4066  0.1179 -0.0388
10508TIP3    H153015   1.837   3.550  14.951  3.4289  0.3154 -0.3302
10508TIP3    H253016   1.821   3.646  15.067  1.9489  0.6985 -0.8230
10509TIP3   OH253017   4.056   0.830   3.193  1.1352 -0.7239  0.4154
10509TIP3    H153018   4.144   0.792   3.194  1.2138 -0.5776 -0.3591
10509TIP3    H253019   4.047   0.866   3.105  0.6459  0.0749  0.7860
10510TIP3   OH253020   4.141   4.052  13.839 -0.4468  0.5764 -0.1596
10510TIP3    H153021   4.140   4.083  13.749  0.7416 -0.2444 -0.4821
10510TIP3    H253022   4.053   4.017  13.854 -0.4396  0.0443 -1.2543
10511TIP3   OH253023   0.883   3.712   5.688  0.2883 -0.0387  0.6736
10511TIP3    H153024   0.827   3.787   5.672  0.8446  0.0074 -1.3809
10511TIP3    H253025   0.920   3.727   5.775  0.0541  1.8501  0.4813
10512TIP3   OH253026   0.845   2.350   4.809  0.5541  0.0272  0.3078
10512TIP3    H153027   0.768   2.406   4.814  0.5384  0.0124  0.2267
10512TIP3    H253028   0.844   2.301   4.891  0.0154 -0.5714 -0.0424
10513TIP3   OH253029   5.493   4.534   2.084 -0.6407 -0.2208  0.1761
10513TIP3    H153030   5.518   4.523   1.993 -1.1326 -1.7462  0.2013
10513TIP3    H253031   5.569   4.576   2.125 -1.3767  3.0008 -1.4095
10514TIP3   OH253032   6.802   0.981  13.228  0.0874 -0.0442 -0.3367
10514TIP3    H153033   6.813   0.938  13.313  0.1861  0.9291  0.1558
10514TIP3    H253034   6.856   0.929  13.168  0.8098 -0.1633  0.3895
10515TIP3   OH253035   2.263   3.330   1.468  0.3713 -0.0467  0.5689
10515TIP3    H153036   2.347   3.311   1.427  0.0806  0.1235 -0.1146
10515TIP3    H253037   2.278   3.313   1.562  1.1986  0.1232  0.4761
10516TIP3   OH253038   1.065   5.883  15.602  0.0011  0.5762  0.1846
10516TIP3    H153039   1.112   5.966  15.592  2.5980 -0.9321 -1.4310
10516TIP3    H253040   1.079   5.858  15.693 -1.4367  2.1689  0.8994
10517TIP3   OH253041   1.131   2.456   2.959 -0.0541  0.6219 -0.2498
10517TIP3    H153042   1.137   2.498   2.873 -0.1631  1.2505  0.0429
10517TIP3    H253043   1.222   2.443   2.987 -0.0196  0.4471 -0.4454
10518TIP3   OH253044   1.164   3.718  13.338 -0.3353 -0.6403 -0.2724
10518TIP3    H153045   1.128   3.630  13.354 -0.4721 -0.8632 -1.6989
10518TIP3    H253046   1.179   3.721  13.244 -0.0999  0.7939 -0.2094
10519TIP3   OH253047   4.344   2.982  13.269  0.2362 -0.2160 -0.2409
10519TIP3    H153048   4.315   3.065  13.230  0.1874 -0.7526 -1.3868
10519TIP3    H253049   4.269   2.952  13.320 -0.7315 -0.8591 -1.9821
10520TIP3   OH253050   6.716   1.013   4.597  0.4650  0.4425  0.1228
10520TIP3    H153051   6.720   1.102   4.563 -0.3388  0.2455 -0.5017
10520TIP3    H253052   6.787   0.966   4.552  0.4725  0.5961 -0.0230
10521TIP3   OH253053   1.314   4.364   2.365 -0.2278 -0.2330  0.0076
10521TIP3    H153054   1.286   4.368   2.456 -1.6363  0.1254 -0.4060
10521TIP3    H253055   1.316   4.271   2.344  2.4045 -0.4921  1.0175
10522TIP3   OH253056   0.808   1.208  15.743  0.3850 -0.8308 -0.4167
10522TIP3    H153057   0.781   1.117  15.731 -3.2971 -0.0682  0.7825
10522TIP3    H253058   0.779   1.253  15.663 -2.1440  0.0119  0.8821
10523TIP3   OH253059   4.139   0.290  16.621  0.0149  0.1321  0.4140
10523TIP3    H153060   4.174   0.292  16.532  0.4403  1.3888  0.5857
10523TIP3    H253061   4.157   0.377  16.655 -0.5377 -0.1965  1.5875
10524TIP3   OH253062   5.357   0.511   3.516 -0.1023 -0.1081  0.0754
10524TIP3    H153063   5.336   0.526   3.608 -2.3899 -1.7810 -0.0956
10524TIP3    H253064   5.425   0.576   3.496 -1.7206  2.4177  2.1008
10525TIP3   OH253065   1.295   6.241   0.261 -0.5160  0.3226 -0.2335
10525TIP3    H153066   1.283   6.147   0.270  2.5492  0.0125  2.1115
10525TIP3    H253067   1.230   6.280   0.320 -1.0888 -0.3131 -0.4310
10526TIP3   OH253068   4.529   3.746   1.811  0.9157 -0.6706  0.7160
10526TIP3    H153069   4.583   3.728   1.734 -0.7228  0.5327 -0.8136
10526TIP3    H253070   4.485   3.663   1.828 -0.6225 -0.3635 -1.3189
10527TIP3   OH253071   1.815   5.196   4.885  0.1912 -0.4443 -0.1384
10527TIP3    H153072   1.782   5.248   4.812 -1.8344  1.2291  1.7964
10527TIP3    H253073   1.910   5.198   4.876  0.0014 -0.3753 -2.7176
10528TIP3   OH253074   6.193   0.342  14.517 -0.4442  0.2249 -0.2643
10528TIP3    H153075   6.180   0.311  14.428 -0.7113  0.3129 -0.2585
10528TIP3    H253076   6.107   0.332  14.559 -0.4173  0.5294 -0.1266
10529TIP3   OH253077   4.049   4.138  15.953  0.3771  0.8481  0.4047
10529TIP3    H153078   4.072   4.171  15.867 -0.1338 -0.6229 -0.3269
10529TIP3    H253079   4.068   4.211  16.013 -0.2155  2.2533 -1.0506
10530TIP3   OH253080   5.449   1.745   5.196  0.1361  0.4954 -0.1057
10530TIP3    H153081   5.369   1.787   5.165 -0.3952  1.1027  1.9048
10530TIP3    H253082   5.507   1.818   5.217  0.7914  0.0876 -0.4770
10531TIP3   OH253083   2.263   6.338  16.353  0.0811 -0.5685 -0.7174
10531TIP3    H153084   2.316   6.271  16.395 -0.7131 -1.6847 -1.4346
10531TIP3    H253085   2.181   6.294  16.331 -0.2284  0.4574 -1.7836
10532TIP3   OH253086   2.422   2.842   4.967 -0.3192 -0.7835 -0.2029
10532TIP3    H153087   2.490   2.778   4.986 -0.9422 -1.4678 -0.2682
10532TIP3    H253088   2.339   2.796   4.981 -0.7819  0.1773  0.3622
10533TIP3   OH253089   5.909   1.620   1.098 -0.3636 -0.1990 -0.1034
10533TIP3    H153090   5.990   1.650   1.140 -0.7508 -0.7381  1.0460
10533TIP3    H253091   5.936   1.543   1.047 -0.2069 -0.5844  0.5503
10534TIP3   OH253092   1.484   1.301  11.172  0.2221 -0.0805 -0.3765
10534TIP3    H153093   1.413   1.237  11.182  0.7806 -0.6892 -0.2405
10534TIP3    H253094   1.534   1.269  11.097  0.7568 -0.0419 -0.0374
10535TIP3   OH253095   1.190   5.240  15.870 -0.5637 -0.6156  0.1501
10535TIP3    H153096   1.192   5.305  15.940 -0.4088 -0.6777  0.2024
10535TIP3    H253097   1.247   5.276  15.802 -0.9120 -0.4348 -0.0486
10536TIP3   OH253098   5.564   1.917  11.803  0.4151 -0.1719 -0.0627
10536TIP3    H153099   5.537   1.909  11.711  2.5788  0.9490 -0.8839
10536TIP3    H253100   5.541   1.833  11.842  1.4721 -1.5656 -2.2373
10537TIP3   OH253101   5.488   2.886  11.620 -0.0940  0.1552 -0.4994
10537TIP3    H153102   5.496   2.962  11.678 -1.6313  0.6356 -0.8562
10537TIP3    H253103   5.578   2.862  11.599  0.4725  0.6694  1.1731
10538TIP3   OH253104   6.752   0.389   1.501  0.3119  0.1825  0.0566
10538TIP3    H153105   6.785   0.300   1.489 -0.2138 -0.3879  2.3320
10538TIP3    H253106   6.664   0.378   1.537  0.2573  1.6252  0.4419
10539TIP3   OH253107   0.312   2.578  14.384  0.5033  0.4445 -0.0988
10539TIP3    H153108   0.238   2.542  14.432  0.0133  1.3736 -0.1232
10539TIP3    H253109   0.354   2.502  14.343  0.2124 -0.2133  0.7934
10540TIP3   OH253110   0.477   1.582  14.838 -0.1055 -0.5940  0.4235
10540TIP3    H153111   0.500   1.638  14.763  0.1149 -1.2149  0.0140
10540TIP3    H253112   0.383   1.593  14.848 -0.1496 -0.5521  0.0035
10541TIP3   OH253113   6.610   5.818   0.142  0.1164 -0.2025  0.0039
10541TIP3    H153114   6.566   5.899   0.168  3.1037  1.7647 -0.5067
10541TIP3    H253115   6.652   5.787   0.223  0.4632 -0.2070 -0.1751
10542TIP3   OH253116   1.033   1.467   2.328  0.0229 -0.0512  0.4059
10542TIP3    H153117   1.088   1.419   2.390 -0.1896 -0.6485  0.1416
10542TIP3    H253118   0.951   1.416   2.325  0.1576 -0.2307 -0.6211
10543TIP3   OH253119   6.046   0.854   2.093  0.1257 -0.1706  0.4932
10543TIP3    H153120   6.084   0.767   2.083 -0.6725 -0.4212 -0.5793
10543TIP3    H253121   6.096   0.909   2.034  0.6824  0.1320  1.2313
10544TIP3   OH253122   0.281   1.580  11.844  0.3617  0.2739  0.4796
10544TIP3    H153123   0.197   1.555  11.806 -0.8009  1.9165  1.7817
10544TIP3    H253124   0.310   1.654  11.791  1.3553 -0.7043 -0.3769
10545TIP3   OH253125   4.890   1.335   6.481  0.3743 -0.0899 -0.6153
10545TIP3    H153126   4.974   1.292   6.495  0.3164 -0.0633 -0.1515
10545TIP3    H253127   4.910   1.429   6.487  0.5685 -0.0291 -2.0124
10546TIP3   OH253128   1.488   5.469   4.774  0.1959 -0.2773 -1.1346
10546TIP3    H153129   1.550   5.402   4.749  0.3723 -0.6409  0.1756
10546TIP3    H253130   1.540   5.534   4.821 -0.2992 -0.2660 -0.5853
10547TIP3   OH253131   4.832   3.377   1.251 -0.2404 -0.3979 -0.2636
10547TIP3    H153132   4.792   3.402   1.168  1.0822  2.1933 -0.2408
10547TIP3    H253133   4.926   3.377   1.234  0.0071 -1.0288  0.9461
10548TIP3   OH253134   3.822   3.296  16.977 -0.1579  0.5088 -0.2265
10548TIP3    H153135   3.776   3.370  17.018 -0.5848 -0.3705  0.9312
10548TIP3    H253136   3.755   3.252  16.925 -0.3039  0.0220  0.3642
10549TIP3   OH253137   2.767   5.406   0.124 -0.1483  0.3407 -0.2319
10549TIP3    H153138   2.862   5.398   0.121 -0.2382 -1.2739  0.2206
10549TIP3    H253139   2.748   5.434   0.214 -0.1670 -1.0122  0.2078
10550TIP3   OH253140   5.087   3.789  13.882  0.3911  0.2995 -0.7127
10550TIP3    H153141   5.103   3.720  13.947 -0.3609  0.5446 -0.2610
10550TIP3    H253142   5.159   3.850  13.893  0.9185 -0.2692 -0.9320
10551TIP3   OH253143   1.409   6.636   1.612 -0.2599  0.1149 -0.7039
10551TIP3    H153144   1.488   6.599   1.652  0.2587  1.4604 -0.4477
10551TIP3    H253145   1.365   6.560   1.573  2.3169 -0.3975 -2.9205
10552TIP3   OH253146   1.552   4.132  13.109 -0.0457  0.0986  0.6937
10552TIP3    H153147   1.584   4.221  13.094  0.7100 -0.0796  1.1932
10552TIP3    H253148   1.522   4.133  13.200 -1.2586  0.1913  0.3113
10553TIP3   OH253149   3.382   2.936   0.109 -0.1483  0.0322  0.3972
10553TIP3    H153150   3.436   2.885   0.169 -0.6119 -1.2767 -0.2545
10553TIP3    H253151   3.417   2.916   0.022 -0.8282  0.2049  0.0724
10554TIP3   OH253152   0.629   5.886  12.370  0.0639  0.2051  0.2238
10554TIP3    H153153   0.693   5.834  12.323  0.2703 -0.4059  1.1560
10554TIP3    H253154   0.678   5.927  12.441 -0.2717  0.9806  0.0166
10555TIP3   OH253155   1.106   3.205   4.961 -0.0997 -0.3582  0.6885
10555TIP3    H153156   1.057   3.125   4.940  1.0216 -0.7473 -0.5861
10555TIP3    H253157   1.193   3.175   4.985  0.8493  0.5137 -1.4059
10556TIP3   OH253158   3.462   5.559   0.092 -0.1203  0.3958 -0.0572
10556TIP3    H153159   3.421   5.524   0.013  1.4390 -1.2891 -0.1841
10556TIP3    H253160   3.538   5.608   0.061  0.5360 -0.3252  0.3672
10557TIP3   OH253161   4.761   4.160   0.544  0.1544 -0.1628  0.1563
10557TIP3    H153162   4.772   4.254   0.556 -0.7450 -0.0615  0.3126
10557TIP3    H253163   4.793   4.121   0.625  0.0986  0.0498  0.2795
10558TIP3   OH253164   5.357   6.126  16.081 -0.6939  0.5988  0.7140
10558TIP3    H153165   5.440   6.084  16.105 -0.4595  0.6442 -0.0021
10558TIP3    H253166   5.312   6.061  16.027 -0.4110  1.1831 -0.2502
10559TIP3   OH253167   5.899   2.925  12.585 -0.1907 -0.0917  0.5601
10559TIP3    H153168   5.819   2.878  12.612 -0.0476 -0.0564  1.0533
10559TIP3    H253169   5.869   2.983  12.515 -0.9743  1.1896  1.8913
10560TIP3   OH253170   6.618   0.900   2.065 -0.1249 -0.6496  0.6266
10560TIP3    H153171   6.644   0.896   2.157  0.5115 -1.3547  0.4226
10560TIP3    H253172   6.700   0.893   2.017 -0.4033  0.1560 -0.0014
10561TIP3   OH253173   4.324   2.063   6.638 -0.2598  0.0602 -0.1463
10561TIP3    H153174   4.317   1.982   6.689  0.1899 -0.1796 -0.4537
10561TIP3    H253175   4.245   2.064   6.584 -0.0019 -0.4625 -0.5444
10562TIP3   OH253176   5.325   2.819  15.119 -0.1578 -0.2624  0.6230
10562TIP3    H153177   5.389   2.882  15.086 -0.4460 -0.0025  0.5593
10562TIP3    H253178   5.306   2.763  15.045  0.8911 -1.0941  0.9551
10563TIP3   OH253179   0.036   2.445  15.988 -0.0787 -0.1921  0.1735
10563TIP3    H153180   0.053   2.358  15.952 -2.3390 -0.3397 -0.7289
10563TIP3    H253181  -0.015   2.489  15.920 -0.6533  1.1376  1.4114
10564TIP3   OH253182   1.225   2.909  12.318 -0.1740 -0.6974 -0.2431
10564TIP3    H153183   1.220   2.835  12.378  1.4428 -0.1740  0.5714
10564TIP3    H253184   1.267   2.979  12.368 -0.7468  0.4508 -1.3133
10565TIP3   OH253185   1.708   6.244  11.281 -0.1927 -0.2603  0.5329
10565TIP3    H153186   1.615   6.238  11.303 -0.5960  0.7146 -0.7945
10565TIP3    H253187   1.727   6.161  11.237 -0.4326 -0.4533  0.7840
10566TIP3   OH253188   3.027   5.518   5.940  0.4855  0.2945 -0.3730
10566TIP3    H153189   3.109   5.473   5.920 -0.6063 -1.2916 -1.5034
10566TIP3    H253190   3.028   5.595   5.883  0.9524  0.0138 -0.7550
10567TIP3   OH253191   5.106   6.153  13.382  0.0991  0.2548 -0.2013
10567TIP3    H153192   5.040   6.167  13.450 -0.0039  1.5062 -0.5263
10567TIP3    H253193   5.180   6.114  13.428 -0.2683  0.3448  0.4796
10568TIP3   OH253194   3.393   0.588   0.554  0.5528  0.0709 -0.0317
10568TIP3    H153195   3.407   0.497   0.529  1.2645  0.7052 -2.1556
10568TIP3    H253196   3.424   0.593   0.645  0.9227 -1.6887 -0.0279
10569TIP3   OH253197   4.375   4.999   2.904  0.5629 -0.5778 -0.0001
10569TIP3    H153198   4.363   4.935   2.974 -0.0256 -1.6557 -1.0516
10569TIP3    H253199   4.292   5.046   2.900  0.6933 -0.3281  0.2020
10570TIP3   OH253200   1.970   2.517  12.983 -0.2482  0.0780  0.1748
10570TIP3    H153201   1.983   2.532  12.889 -0.2249  0.3080  0.2148
10570TIP3    H253202   1.878   2.492  12.991  0.1677 -1.7620 -0.1424
10571TIP3   OH253203   6.740   1.656   3.497 -0.7126  0.0668  0.3615
10571TIP3    H153204   6.748   1.752   3.496  0.5178  0.0063  1.7217
10571TIP3    H253205   6.815   1.625   3.446 -1.2612 -0.1832 -0.3098
10572TIP3   OH253206   5.314   2.706   6.596  0.7126 -0.1779 -0.2423
10572TIP3    H153207   5.252   2.633   6.603 -0.5949  0.9197  0.0834
10572TIP3    H253208   5.350   2.717   6.684  0.9650 -0.4757 -0.3083
10573TIP3   OH253209   5.002   0.602   5.340  0.0471 -0.8412 -0.0560
10573TIP3    H153210   4.985   0.535   5.405 -0.7485 -1.7357 -1.1469
10573TIP3    H253211   5.055   0.557   5.273  0.7596  0.0259 -0.1005
10574TIP3   OH253212   3.134   6.458   0.618 -0.0271 -0.1740  0.0672
10574TIP3    H153213   3.157   6.368   0.641 -0.4754 -0.4916 -0.7041
10574TIP3    H253214   3.198   6.484   0.552  0.3871  0.2436  0.6237
10575TIP3   OH253215   5.482   2.957   0.085  0.0596  0.1277 -0.3460
10575TIP3    H153216   5.404   2.904   0.072  1.1448 -1.4679 -0.6108
10575TIP3    H253217   5.455   3.046   0.061 -1.2751 -0.6210 -1.7758
10576TIP3   OH253218   0.026   5.444   0.966 -0.1722  0.2090  0.1181
10576TIP3    H153219  -0.069   5.447   0.959 -0.1183 -0.7975 -1.6661
10576TIP3    H253220   0.044   5.468   1.057 -2.0711  1.1436  0.2943
10577TIP3   OH253221   1.159   5.635  16.044  0.3036  0.1194  0.0220
10577TIP3    H153222   1.213   5.653  16.120  1.8561 -1.0776 -0.7440
10577TIP3    H253223   1.114   5.554  16.065  1.1982 -0.5403 -0.5416
10578TIP3   OH253224   2.574   0.708  11.740 -0.3211 -0.1924  0.3437
10578TIP3    H153225   2.503   0.652  11.771 -0.0410  0.1560  1.6580
10578TIP3    H253226   2.607   0.751  11.818 -0.8874  2.2574 -0.6610
10579TIP3   OH253227   2.019   0.080   3.073 -0.4838 -0.2255  0.5072
10579TIP3    H153228   2.074   0.017   3.026  0.7243 -0.0961  1.6668
10579TIP3    H253229   2.015   0.156   3.015  1.4498  0.1562  0.7924
10580TIP3   OH253230   0.719   1.382  14.382 -0.4447  0.0235 -0.1717
10580TIP3    H153231   0.765   1.326  14.445  0.7957  0.7868 -0.3501
10580TIP3    H253232   0.722   1.333  14.300 -1.4253 -0.6554  0.1864
10581TIP3   OH253233   1.165   5.938   2.092 -0.6459  0.6815 -0.2490
10581TIP3    H153234   1.160   6.017   2.038 -0.8655 -0.2859 -1.6876
10581TIP3    H253235   1.122   5.963   2.174  1.7454  2.9257  0.4797
10582TIP3   OH253236   4.799   5.405   0.289  0.4209  0.3951  0.4554
10582TIP3    H153237   4.860   5.331   0.292  1.2209  1.0678  1.3770
10582TIP3    H253238   4.842   5.474   0.339 -0.2434  1.5563 -0.5068
10583TIP3   OH253239   2.885   4.668  16.240 -0.9816 -0.7518 -0.3448
10583TIP3    H153240   2.961   4.676  16.183 -0.4536  1.9563  0.6115
10583TIP3    H253241   2.812   4.651  16.180 -0.2137  0.5392 -1.7084
10584TIP3   OH253242   5.349   1.070   4.861 -0.9591  0.0186 -0.0416
10584TIP3    H153243   5.364   0.996   4.920 -0.3121  0.5189  0.4281
10584TIP3    H253244   5.436   1.107   4.846 -1.3456  1.0551  0.2020
10585TIP3   OH253245   6.377   6.206   0.022  0.5910 -0.6160  0.4260
10585TIP3    H153246   6.389   6.118  -0.013 -0.7875  0.0893 -2.1186
10585TIP3    H253247   6.287   6.207   0.054  0.0934  0.1791 -0.8733
10586TIP3   OH253248   0.936   3.570   2.098  0.3623  0.3483 -0.4449
10586TIP3    H153249   0.891   3.652   2.077  1.2100  1.2743  1.1886
10586TIP3    H253250   0.872   3.521   2.151  0.3621  0.5682 -0.2401
10587TIP3   OH253251   0.017   5.534  13.087  0.0920 -0.5747  0.1162
10587TIP3    H153252   0.033   5.622  13.051 -1.1487 -0.3234  0.1521
10587TIP3    H253253   0.043   5.541  13.179  2.4185 -0.9720 -0.4322
10588TIP3   OH253254   0.127   1.248  13.251  0.0309  0.0455  0.1759
10588TIP3    H153255   0.063   1.181  13.228 -0.8620  0.4672  1.3152
10588TIP3    H253256   0.206   1.200  13.275 -0.2622 -0.5397 -0.0277
10589TIP3   OH253257   6.774   2.475   5.737  0.2441  0.2941 -0.3457
10589TIP3    H153258   6.859   2.488   5.695  0.2709  0.4481 -0.2391
10589TIP3    H253259   6.711   2.499   5.670  0.2912  1.7030  0.0891
10590TIP3   OH253260   0.392   2.510  10.979 -1.3086 -0.5777  0.2712
10590TIP3    H153261   0.402   2.415  10.972  3.6094 -0.1916 -1.8922
10590TIP3    H253262   0.361   2.538  10.893  2.3594 -0.0685 -1.0735
10591TIP3   OH253263   6.764   0.555  15.456 -0.5189 -0.2207  0.2982
10591TIP3    H153264   6.736   0.633  15.504  0.6422  0.1048  0.4853
10591TIP3    H253265   6.824   0.511  15.516  0.3448 -0.2289 -0.5490
10592TIP3   OH253266   2.646   0.358  17.065  0.0720 -0.1231 -0.5236
10592TIP3    H153267   2.629   0.401  16.981 -0.1079  2.2688  0.6450
10592TIP3    H253268   2.570   0.301  17.078 -0.0865 -0.2379 -1.7922
10593TIP3   OH253269   0.650   2.698  11.425 -0.0934  0.5637  0.1311
10593TIP3    H153270   0.597   2.622  11.402  0.6642  0.0363  0.0907
10593TIP3    H253271   0.661   2.746  11.343  0.1448  0.2517 -0.0228
10594TIP3   OH253272   4.046   5.728  16.106 -0.2471 -0.4551 -0.0938
10594TIP3    H153273   4.036   5.634  16.095 -0.9835 -0.3388 -0.4877
10594TIP3    H253274   3.964   5.765  16.072  0.4307  0.3860 -0.8803
10595TIP3   OH253275   1.187   3.911  13.526 -0.0748 -0.2106 -0.1804
10595TIP3    H153276   1.241   3.869  13.593  1.0734 -0.8038 -1.4279
10595TIP3    H253277   1.164   3.839  13.467 -0.8463  0.3514 -0.5746
10596TIP3   OH253278   3.938   6.053   1.389  0.2400  0.5790  0.1535
10596TIP3    H153279   3.970   6.127   1.337  1.9438 -1.2700 -1.5783
10596TIP3    H253280   4.016   6.016   1.429 -0.5137 -0.5660  0.6287
10597TIP3   OH253281   6.438   3.779   6.537  0.0386 -0.0031 -0.9410
10597TIP3    H153282   6.393   3.818   6.612  1.8214 -1.3286  0.9156
10597TIP3    H253283   6.435   3.847   6.470 -0.4427  1.7664  0.7663
10598TIP3   OH253284   3.176   1.138  17.120 -0.4629 -0.6649  0.6673
10598TIP3    H153285   3.185   1.097  17.206 -0.7345 -0.5906  0.7282
10598TIP3    H253286   3.246   1.098  17.068  0.8834  0.6087  1.4259
10599TIP3   OH253287   2.778   2.936   5.465  0.5739  0.0776  0.6875
10599TIP3    H153288   2.821   2.858   5.499  0.0759 -1.0022 -1.0035
10599TIP3    H253289   2.844   2.980   5.412  0.0990 -0.6932 -0.5742
10600TIP3   OH253290   2.958   5.914   1.055 -0.3964 -0.7660 -0.1193
10600TIP3    H153291   3.041   5.960   1.071  0.3588 -1.6120 -1.4206
10600TIP3    H253292   2.891   5.981   1.066  0.7450  1.2096 -3.5222
10601TIP3   OH253293   2.421   3.479  16.353  0.0563  0.0258 -0.1740
10601TIP3    H153294   2.392   3.570  16.352  0.6879  0.2874  1.6419
10601TIP3    H253295   2.516   3.484  16.362 -0.0611 -0.7490  2.2436
10602TIP3   OH253296   6.034   5.980  16.497  0.6322  0.3824 -0.2819
10602TIP3    H153297   5.976   5.915  16.458  1.5452 -0.6251 -0.0090
10602TIP3    H253298   6.121   5.956  16.466  1.2954  0.0064  1.7223
10603TIP3   OH253299   6.379   2.086  14.150  0.0304 -0.9804 -0.2283
10603TIP3    H153300   6.304   2.089  14.209  0.4504 -2.8000  0.4428
10603TIP3    H253301   6.353   2.141  14.076 -0.5141  1.3688  1.5794
10604TIP3   OH253302   2.767   4.240  13.713  0.0830  0.3826 -0.9187
10604TIP3    H153303   2.815   4.265  13.634 -2.0335  0.7112 -2.1745
10604TIP3    H253304   2.729   4.322  13.744  1.7630  0.4816  1.1741
10605TIP3   OH253305   2.462   3.143   0.983 -0.1323 -0.3852  0.0210
10605TIP3    H153306   2.377   3.158   0.942  1.1129 -0.4406 -2.8487
10605TIP3    H253307   2.467   3.047   0.991 -0.6726 -0.3430  1.0969
10606TIP3   OH253308   1.318   5.669   1.546  0.0581 -0.5583 -0.3837
10606TIP3    H153309   1.297   5.758   1.517 -0.0100 -0.6587 -0.6418
10606TIP3    H253310   1.258   5.613   1.497 -1.1354 -0.6214  1.0668
10607TIP3   OH253311   5.437   2.136   3.395 -0.0651  0.1281 -0.1629
10607TIP3    H153312   5.460   2.227   3.414  0.5369  0.0159 -0.3453
10607TIP3    H253313   5.492   2.084   3.453  0.0813 -0.1401 -0.5410
10608TIP3   OH253314   6.305   6.440   5.444  0.8188 -0.4435  0.2917
10608TIP3    H153315   6.295   6.345   5.444  0.2854 -0.4077  1.8362
10608TIP3    H253316   6.322   6.463   5.535  1.5831  0.8918 -0.1549
10609TIP3   OH253317   4.590   0.295   5.569 -0.2191  0.0842 -0.0198
10609TIP3    H153318   4.501   0.263   5.556 -0.1379 -0.1090 -0.0958
10609TIP3    H253319   4.587   0.342   5.652 -0.3371 -0.1153  0.0872
10610TIP3   OH253320   3.565   6.117  11.682  0.3238  0.0361  0.0623
10610TIP3    H153321   3.661   6.119  11.680  0.3687 -0.3539  0.9869
10610TIP3    H253322   3.542   6.168  11.760 -0.2163 -0.0560 -0.0328
10611TIP3   OH253323   3.188   4.146  12.673 -0.1622  0.1335  0.3095
10611TIP3    H153324   3.102   4.106  12.661 -0.4402  0.4633  1.1054
10611TIP3    H253325   3.171   4.224  12.727  0.5622  0.5070  0.0149
10612TIP3   OH253326   4.989   2.060  13.499  0.2293 -0.2565 -0.1089
10612TIP3    H153327   5.066   2.045  13.553  0.3509 -0.2988 -0.2914
10612TIP3    H253328   4.919   2.082  13.561  0.0387 -1.5928  0.1887
10613TIP3   OH253329   6.077   4.535   4.762  0.3910 -0.1032 -0.2807
10613TIP3    H153330   6.162   4.577   4.768 -0.0326  0.6180  0.8978
10613TIP3    H253331   6.059   4.531   4.668  0.6995  1.8481 -0.4679
10614TIP3   OH253332   2.706   1.470   0.486  0.1009  0.1740  0.1637
10614TIP3    H153333   2.677   1.509   0.569 -0.5087  1.5849 -0.6850
10614TIP3    H253334   2.653   1.391   0.477 -1.1576  0.9752  0.2552
10615TIP3   OH253335   6.096   3.672  11.709  0.4959  0.1258  0.3045
10615TIP3    H153336   6.183   3.662  11.748  0.6939  0.8382  0.0530
10615TIP3    H253337   6.079   3.588  11.666  0.5447 -0.4435  1.3644
10616TIP3   OH253338   0.631   2.239  14.081  0.7160  0.7742  0.3450
10616TIP3    H153339   0.622   2.163  14.138 -0.6731 -0.3010 -1.2263
10616TIP3    H253340   0.593   2.212  13.997  2.8719  2.1879 -1.2308
10617TIP3   OH253341   0.400   3.220   3.698  0.6191 -0.1438 -0.0381
10617TIP3    H153342   0.472   3.174   3.740  0.4977 -1.4859 -1.2145
10617TIP3    H253343   0.378   3.166   3.622  0.6862  2.0258 -1.7152
10618TIP3   OH253344   3.586   0.293   1.919  0.2654  0.0024 -0.9186
10618TIP3    H153345   3.603   0.320   1.829 -2.2842 -0.8869 -1.7688
10618TIP3    H253346   3.496   0.260   1.917 -0.8603  2.3380  2.5144
10619TIP3   OH253347   6.742   0.555   3.863 -0.3803 -0.6341  0.3157
10619TIP3    H153348   6.739   0.646   3.893  2.6153 -0.9281  1.9733
10619TIP3    H253349   6.791   0.559   3.781  0.6363 -0.7893  0.8945
10620TIP3   OH253350   0.062   6.578   1.981  0.0147 -0.4811  0.5206
10620TIP3    H153351   0.086   6.515   2.049  0.7603  2.0075  2.7152
10620TIP3    H253352   0.145   6.612   1.948 -0.3299 -1.7122 -1.8073
10621TIP3   OH253353   0.889   6.730   0.492 -0.2596  0.0803  0.2998
10621TIP3    H153354   0.961   6.764   0.439  0.0832  0.6643  1.1258
10621TIP3    H253355   0.905   6.635   0.495  0.2523  0.1573  0.1485
10622TIP3   OH253356   1.593   0.427   5.471  0.0446 -0.1402 -0.0148
10622TIP3    H153357   1.580   0.462   5.559  2.5183 -1.1587  0.8461
10622TIP3    H253358   1.524   0.362   5.460  0.7131 -1.2464  1.9156
10623TIP3   OH253359   1.053   2.765  11.551 -0.8170  0.2505  0.2716
10623TIP3    H153360   1.144   2.747  11.573 -1.3846 -1.1275  1.6649
10623TIP3    H253361   1.031   2.844  11.600 -0.2834  0.7955 -0.3548
10624TIP3   OH253362   0.330   4.663  14.651  0.2994 -0.0427 -0.2985
10624TIP3    H153363   0.367   4.751  14.646 -1.2188  0.5903 -0.9434
10624TIP3    H253364   0.330   4.643  14.745  1.3124  0.3255 -0.2021
10625TIP3   OH253365   4.243   5.123   5.949 -0.1635  0.4584  0.0811
10625TIP3    H153366   4.230   5.029   5.942 -1.7338  0.7298 -1.8663
10625TIP3    H253367   4.155   5.158   5.964 -0.2116  1.7769 -2.6615
10626TIP3   OH253368   1.300   1.595   4.108  0.3810  0.6353  0.9507
10626TIP3    H153369   1.298   1.646   4.190  0.6202  1.9921  0.1508
10626TIP3    H253370   1.390   1.606   4.076  0.7778 -1.2660  1.3186
10627TIP3   OH253371   5.948   6.025  12.552  0.1126  0.3061  0.0229
10627TIP3    H153372   5.920   6.028  12.643  0.4703  1.4570  0.1095
10627TIP3    H253373   6.014   5.957  12.548  1.4616  1.5130  1.0292
10628TIP3   OH253374   1.810   0.173  17.024  0.1813 -0.3744  0.2620
10628TIP3    H153375   1.727   0.220  17.029  0.5824  0.2650  1.0848
10628TIP3    H253376   1.876   0.239  17.045  0.8717 -0.9608 -0.0309
10629TIP3   OH253377   4.417   0.084  14.783  0.2375 -0.5122 -0.2953
10629TIP3    H153378   4.417  -0.007  14.810  0.3779 -0.5664 -0.4736
10629TIP3    H253379   4.444   0.133  14.860 -1.1058 -0.5028  0.1934
10630TIP3   OH253380   2.308   1.501  17.061 -0.1460  0.3567  0.3951
10630TIP3    H153381   2.250   1.575  17.079  1.1785  1.3325  0.9002
10630TIP3    H253382   2.348   1.522  16.976 -2.3889 -1.5912 -1.2651
10631TIP3   OH253383   3.130   6.791  12.065 -0.0025  0.2670  0.3123
10631TIP3    H153384   3.166   6.845  12.136 -0.1693  0.2615  0.3994
10631TIP3    H253385   3.036   6.788  12.082 -0.4676  2.5016 -1.3904
10632TIP3   OH253386   4.989   4.432  12.613  0.1261 -0.0013  0.4479
10632TIP3    H153387   5.052   4.372  12.572 -0.4139 -0.8923  0.9013
10632TIP3    H253388   4.927   4.452  12.543  2.1141  2.7504 -0.7381
10633TIP3   OH253389   4.306   0.658  12.961  0.4245 -0.1227 -0.2984
10633TIP3    H153390   4.260   0.606  13.027  2.5653  0.4749  1.8421
10633TIP3    H253391   4.287   0.614  12.878 -2.4003 -0.9307  0.6597
10634TIP3   OH253392   4.551   5.642   3.234  0.2783 -0.7402 -0.4406
10634TIP3    H153393   4.639   5.668   3.206 -0.1875  0.2830 -1.0088
10634TIP3    H253394   4.513   5.600   3.156  0.0688 -0.6871 -0.3668
10635TIP3   OH253395   0.224   1.308  16.235  0.2153  0.5267 -0.4405
10635TIP3    H153396   0.204   1.347  16.319 -1.3200 -0.4349 -0.3194
10635TIP3    H253397   0.205   1.376  16.171  3.2974  1.9688  0.0050
10636TIP3   OH253398   2.571   3.972   3.989  0.1872  0.1440  0.1550
10636TIP3    H153399   2.544   3.989   3.899 -0.0491  0.8669  0.3550
10636TIP3    H253400   2.641   3.907   3.982 -1.0419 -1.1772 -0.4315
10637TIP3   OH253401   1.264   5.637  15.426 -0.5836  0.1308  0.0802
10637TIP3    H153402   1.185   5.680  15.394 -0.8957 -0.2638  0.3093
10637TIP3    H253403   1.330   5.654  15.359 -0.6932  0.9769  0.1757
10638TIP3   OH253404   4.236   3.872  14.384  0.1059 -0.0365  0.0134
10638TIP3    H153405   4.289   3.942  14.348 -0.2727 -0.5809 -1.6595
10638TIP3    H253406   4.205   3.823  14.308 -0.0315 -1.7349  1.1101
10639TIP3   OH253407   0.809   5.252   0.142 -0.7451 -0.2945  0.6628
10639TIP3    H153408   0.749   5.218   0.076 -1.0384 -1.4631  1.5019
10639TIP3    H253409   0.846   5.174   0.184 -0.2554  0.4186  1.6056
10640TIP3   OH253410   6.053   2.342  13.388  0.5693 -0.1552  0.2823
10640TIP3    H153411   6.087   2.401  13.321  1.6067 -0.7351  0.2715
10640TIP3    H253412   6.130   2.319  13.441  0.0396 -0.8744  0.7592
10641TIP3   OH253413   4.591   3.533   3.024  0.3596 -0.0427  0.0451
10641TIP3    H153414   4.539   3.485   2.960  1.2666 -1.5415  0.3925
10641TIP3    H253415   4.572   3.490   3.107 -1.1687  2.1617  0.9561
10642TIP3   OH253416   1.112   2.568   3.965 -0.6862  0.7518 -0.3921
10642TIP3    H153417   1.141   2.491   4.014  1.2504  1.5306 -0.2150
10642TIP3    H253418   1.017   2.558   3.958 -0.4853 -1.6672 -0.4476
10643TIP3   OH253419   1.312   3.460   2.712  0.5808  0.2178 -0.1306
10643TIP3    H153420   1.381   3.489   2.652  0.2379 -0.4072 -0.8575
10643TIP3    H253421   1.336   3.369   2.733  0.8876  0.5425  0.9726
10644TIP3   OH253422   0.270   6.210  15.220 -0.1697 -0.0606  0.3148
10644TIP3    H153423   0.236   6.279  15.277 -0.9544 -0.9007  0.8783
10644TIP3    H253424   0.240   6.129  15.259  1.0082 -0.7585 -0.1722
10645TIP3   OH253425   4.527   1.894   0.605 -0.0869  0.4729  0.2468
10645TIP3    H153426   4.438   1.928   0.596 -1.0201 -1.9279 -0.5763
10645TIP3    H253427   4.520   1.827   0.673  1.4493  1.2129  1.1890
10646TIP3   OH253428   1.010   3.114   1.466  0.1887 -0.0783  0.2261
10646TIP3    H153429   1.040   3.054   1.534 -0.6659 -1.5901 -0.6831
10646TIP3    H253430   0.921   3.087   1.446 -0.3089  1.6495 -0.0772
10647TIP3   OH253431   1.990   0.545  16.158  0.2202 -0.4042  0.2891
10647TIP3    H153432   1.930   0.618  16.144  0.6729 -0.2654 -1.0770
10647TIP3    H253433   1.951   0.472  16.110  0.0437 -0.9268  1.2014
10648TIP3   OH253434   3.546   4.371  14.565  0.3838  0.0581 -0.9880
10648TIP3    H153435   3.537   4.459  14.602  4.3496  0.2831 -0.2165
10648TIP3    H253436   3.518   4.313  14.636 -1.7460  0.5748 -1.3173
10649TIP3   OH253437   2.400   1.741  15.492 -0.8650 -0.3452 -0.2518
10649TIP3    H153438   2.391   1.823  15.541 -1.7107  0.1283 -1.1572
10649TIP3    H253439   2.371   1.674  15.553  1.8545 -0.2723  1.2584
10650TIP3   OH253440   1.051   2.901   1.236 -0.1300 -0.2652  0.3986
10650TIP3    H153441   1.091   2.894   1.323  1.5948 -1.3046 -0.4317
10650TIP3    H253442   1.100   2.839   1.182  1.2892  2.8131 -2.2012
10651TIP3   OH253443   5.294   5.290  14.258  0.0021 -0.3386  0.0866
10651TIP3    H153444   5.344   5.366  14.289  0.2538 -0.3185 -0.3566
10651TIP3    H253445   5.359   5.236  14.214 -0.1405 -0.9099  0.5749
10652TIP3   OH253446   3.420   2.333   2.893  0.3111 -0.2294  0.5289
10652TIP3    H153447   3.422   2.427   2.914 -0.3707  0.2305 -1.2957
10652TIP3    H253448   3.475   2.324   2.816 -2.0098 -0.7474 -1.1928
10653TIP3   OH253449   0.052   3.990   5.049  0.2748 -0.5431  0.2433
10653TIP3    H153450  -0.010   3.973   4.979 -1.4272  0.0221  1.5375
10653TIP3    H253451   0.010   3.954   5.128  0.6567  1.5414  1.4880
10654TIP3   OH253452   6.011   0.899   0.193 -0.6039 -0.4991 -0.1496
10654TIP3    H153453   6.053   0.866   0.272 -1.0245 -0.9216 -0.0996
10654TIP3    H253454   5.926   0.932   0.222 -0.5627 -0.2115 -0.3486
10655TIP3   OH253455   6.645   5.265  11.894 -0.1480 -0.0723  0.5108
10655TIP3    H153456   6.622   5.241  11.805  1.7513 -0.2507  0.0171
10655TIP3    H253457   6.617   5.191  11.948 -0.6103 -0.3041 -0.0493
10656TIP3   OH253458   6.785   1.046   0.778 -0.0072 -0.2530 -0.3589
10656TIP3    H153459   6.802   0.994   0.857 -0.8531  0.1798  0.1182
10656TIP3    H253460   6.839   1.005   0.710  1.9145  0.2685  0.7783
10657TIP3   OH253461   1.136   4.572  11.239  0.0056 -0.3169 -0.4133
10657TIP3    H153462   1.137   4.661  11.273  0.2211 -0.1497 -0.8383
10657TIP3    H253463   1.169   4.518  11.310  0.9098  0.0835 -0.5117
10658TIP3   OH253464   4.135   1.798   1.157  0.6587  0.0499  0.3610
10658TIP3    H153465   4.081   1.875   1.143  1.8380  1.0609  1.1140
10658TIP3    H253466   4.224   1.832   1.165  1.2390 -1.4116  0.5117
10659TIP3   OH253467   5.393   0.754   3.740  0.2381  0.3530 -0.5198
10659TIP3    H153468   5.329   0.791   3.679 -0.9389 -0.9221 -0.1089
10659TIP3    H253469   5.352   0.763   3.826  0.4420 -0.7959 -0.2858
10660TIP3   OH253470   1.924   1.506  13.639 -0.4337  0.1021  0.2189
10660TIP3    H153471   1.939   1.419  13.602  1.0552  0.4781 -0.1394
10660TIP3    H253472   1.829   1.514  13.643 -0.6111 -1.0932 -0.8056
10661TIP3   OH253473   4.256   4.023   0.306  0.2972  0.0579  0.2549
10661TIP3    H153474   4.296   4.088   0.248  0.9978  0.3925  1.0832
10661TIP3    H253475   4.262   3.940   0.258  1.0929  0.2842 -0.0432
10662TIP3   OH253476   1.618   1.653   3.801 -0.1692 -0.2015  0.2054
10662TIP3    H153477   1.609   1.746   3.821  2.8076  0.0153  1.0013
10662TIP3    H253478   1.609   1.610   3.886  2.2782 -0.2112  0.5366
10663TIP3   OH253479   5.781   5.778  16.132  0.1896 -0.2078  0.3146
10663TIP3    H153480   5.735   5.807  16.210 -0.7436 -0.1486 -0.2381
10663TIP3    H253481   5.870   5.811  16.143 -0.2980  1.0625  0.6879
10664TIP3   OH253482   2.905   4.772   4.442  0.1373  0.2595  1.1912
10664TIP3    H153483   2.957   4.850   4.461  0.1101  0.7357 -0.5432
10664TIP3    H253484   2.970   4.703   4.427  0.2661  0.6629 -0.1759
10665TIP3   OH253485   1.906   1.979  13.903 -0.2052 -0.1624 -0.2016
10665TIP3    H153486   1.814   1.971  13.927  0.3571 -1.9146  1.5509
10665TIP3    H253487   1.937   1.889  13.892  2.1110  0.1120  2.7255
10666TIP3   OH253488   6.642   0.158   1.217 -0.6986  0.2077  0.0634
10666TIP3    H153489   6.690   0.137   1.136 -2.1064 -1.0419 -0.4886
10666TIP3    H253490   6.708   0.152   1.286  0.1743 -0.4038 -0.7914
10667TIP3   OH253491   2.372   6.803  13.551  0.2687 -0.3266  0.1796
10667TIP3    H153492   2.413   6.716  13.559 -1.9331 -1.5635 -1.0168
10667TIP3    H253493   2.426   6.848  13.486 -0.6016 -2.2576 -2.0622
10668TIP3   OH253494   6.827   0.581  14.874  0.3308  0.2856 -0.1739
10668TIP3    H153495   6.794   0.658  14.919  2.8653  1.8154 -0.6851
10668TIP3    H253496   6.790   0.586  14.786 -1.7009 -0.6934  0.5557
10669TIP3   OH253497   6.682   3.640  15.559 -0.2307  0.6733 -0.2407
10669TIP3    H153498   6.644   3.680  15.481  1.0593 -0.0371 -1.2736
10669TIP3    H253499   6.701   3.713  15.618 -2.4256  1.1155  0.0009
10670TIP3   OH253500   3.106   1.429   5.417  0.2163 -0.3172 -0.3876
10670TIP3    H153501   3.133   1.340   5.394 -0.4411 -0.5026 -0.4463
10670TIP3    H253502   3.101   1.476   5.334  0.2823 -0.3053 -0.3847
10671TIP3   OH253503   2.198   3.733   3.979  0.3514  0.0624 -0.4813
10671TIP3    H153504   2.219   3.704   3.890  0.5355 -0.4020 -0.2882
10671TIP3    H253505   2.270   3.698   4.033  0.4875  0.7308 -0.2193
10672TIP3   OH253506   0.838   2.259  13.802 -0.2089  0.6545  0.1459
10672TIP3    H153507   0.929   2.284  13.818 -0.0080  0.5405 -0.7331
10672TIP3    H253508   0.811   2.211  13.880  0.9101 -0.4449 -0.1112
10673TIP3   OH253509   2.974   5.439  13.319  0.1154 -0.1091  0.2697
10673TIP3    H153510   2.934   5.354  13.301  0.2134 -0.5579  2.0169
10673TIP3    H253511   3.068   5.422  13.318  0.1598  0.1320 -0.0209
10674TIP3   OH253512   5.444   0.021   4.289 -0.0538 -0.5397  0.4384
10674TIP3    H153513   5.394  -0.047   4.334  0.6584 -0.1728  1.8512
10674TIP3    H253514   5.491  -0.025   4.219  0.3239 -1.4987  1.2951
10675TIP3   OH253515   1.125   6.646  13.438  0.2714  0.6724 -0.1186
10675TIP3    H153516   1.079   6.577  13.390 -1.7668  2.0766 -0.2711
10675TIP3    H253517   1.172   6.599  13.507 -0.5060 -0.9287 -0.6333
10676TIP3   OH253518   2.545   1.064  14.811 -0.3164  0.0982 -0.2481
10676TIP3    H153519   2.599   0.985  14.815  0.3620  0.4674 -1.6625
10676TIP3    H253520   2.523   1.073  14.718 -1.3479  0.9392  0.0609
10677TIP3   OH253521   3.317   2.683   3.227  0.2933  0.2134  0.1899
10677TIP3    H153522   3.381   2.625   3.186 -1.5958 -3.2695  1.6266
10677TIP3    H253523   3.242   2.680   3.168 -0.2952  0.0474  0.9230
10678TIP3   OH253524   3.027   4.151   1.594 -0.1352  0.2677  0.0135
10678TIP3    H153525   2.960   4.137   1.661 -0.4064  1.7024  0.0608
10678TIP3    H253526   2.989   4.215   1.535  0.4576 -0.3209 -1.0373
10679TIP3   OH253527   5.539   1.955   2.810  0.2247 -0.0044  0.6507
10679TIP3    H153528   5.533   1.999   2.895 -0.2028 -0.2900  0.7718
10679TIP3    H253529   5.538   2.025   2.746 -2.3018  0.1273  0.7334
10680TIP3   OH253530   1.059   1.747  11.675 -0.2273  0.5866  0.7606
10680TIP3    H153531   1.151   1.769  11.685  0.9033 -2.9532 -0.3705
10680TIP3    H253532   1.050   1.718  11.585 -2.4254  0.6520  0.8999
10681TIP3   OH253533   5.605   1.484   6.474  0.3826 -0.6378 -0.8473
10681TIP3    H153534   5.568   1.569   6.451  0.7954 -0.0212  0.6551
10681TIP3    H253535   5.610   1.485   6.570  0.1870 -2.4459 -0.7822
10682TIP3   OH253536   3.137   0.379   6.148 -0.1479 -0.2687  0.3974
10682TIP3    H153537   3.082   0.439   6.097  0.3946  0.0526  0.1870
10682TIP3    H253538   3.074   0.331   6.203 -0.6910 -0.2676 -0.2015
10683TIP3   OH253539   6.793   5.676  14.279  0.3807  0.0883  0.0919
10683TIP3    H153540   6.735   5.622  14.332  0.1359 -0.6856 -0.9294
10683TIP3    H253541   6.794   5.761  14.324 -1.8377  0.2512 -0.0410
10684TIP3   OH253542   2.924   2.942   2.924  0.0913 -0.1880  0.1228
10684TIP3    H153543   2.869   2.864   2.928  0.9745 -0.7871  1.0770
10684TIP3    H253544   2.926   2.974   3.014  0.9299  0.0785  0.0163
10685TIP3   OH253545   2.331   6.376  15.767 -0.8912 -0.1046  0.1105
10685TIP3    H153546   2.377   6.393  15.686 -0.4899  1.2408  0.6044
10685TIP3    H253547   2.347   6.283  15.785  0.2433 -0.0562 -0.5811
10686TIP3   OH253548   5.324   4.318   4.658  0.2566  0.0630 -0.6117
10686TIP3    H153549   5.248   4.376   4.647  0.1716  0.2871  0.9930
10686TIP3    H253550   5.397   4.378   4.674  0.5260 -0.2057 -0.8291
10687TIP3   OH253551   3.715   4.939   1.835 -0.4531  0.6310 -0.9366
10687TIP3    H153552   3.683   5.027   1.812 -0.3334  0.4000 -2.0734
10687TIP3    H253553   3.639   4.895   1.872 -0.1427  1.6769  1.1091
10688TIP3   OH253554   0.651   0.431   3.068  0.5948  0.0996  0.0684
10688TIP3    H153555   0.585   0.403   3.131 -1.3540  0.2785 -1.7681
10688TIP3    H253556   0.698   0.502   3.112 -1.3257  0.8539  1.0189
10689TIP3   OH253557   6.331   0.179   5.489  0.5292  0.1107 -0.2196
10689TIP3    H153558   6.261   0.114   5.484 -0.1975  0.9467 -1.8021
10689TIP3    H253559   6.412   0.127   5.496 -0.2069 -0.8673  1.7721
10690TIP3   OH253560   3.171   4.198  16.146 -0.7033  0.0035 -0.8236
10690TIP3    H153561   3.104   4.243  16.199  1.1417  0.9836  0.8260
10690TIP3    H253562   3.184   4.255  16.070 -0.9794  0.3642 -0.6038
10691TIP3   OH253563   6.831   0.381  15.871  0.0873 -0.1041  0.3321
10691TIP3    H153564   6.748   0.334  15.874 -1.0961  1.8975  0.6663
10691TIP3    H253565   6.890   0.329  15.926 -0.3694 -2.5032 -1.2964
10692TIP3   OH253566   0.082   6.268   3.749 -0.1027 -0.6477  0.1531
10692TIP3    H153567   0.114   6.256   3.838 -1.3713 -1.2880  0.5466
10692TIP3    H253568   0.155   6.237   3.694  1.1436  0.8358  0.8966
10693TIP3   OH253569   0.497   4.708  12.706  0.3159 -0.5497  0.2124
10693TIP3    H153570   0.422   4.767  12.710 -0.3288 -1.3827  0.8205
10693TIP3    H253571   0.507   4.677  12.796  1.8251  0.0691  0.2812
10694TIP3   OH253572   3.956   6.468  11.844  0.2076  0.1104 -0.3351
10694TIP3    H153573   3.950   6.518  11.763 -4.3614  1.1012  0.3523
10694TIP3    H253574   4.010   6.523  11.902 -0.0201  1.4853 -1.3788
10695TIP3   OH253575   4.716   0.416   3.264 -0.3295  0.2956 -0.1933
10695TIP3    H153576   4.684   0.461   3.186  1.9025  0.7956 -0.8933
10695TIP3    H253577   4.766   0.482   3.312 -0.4022 -0.3976  0.8679
10696TIP3   OH253578   0.162   5.676   0.774 -0.2714 -0.1824 -0.3715
10696TIP3    H153579   0.117   5.592   0.778 -1.3345  0.3146 -1.3798
10696TIP3    H253580   0.122   5.728   0.844 -0.5009 -0.1084 -0.5557
10697TIP3   OH253581   1.638   5.235   5.907 -0.2338 -0.6845  0.6937
10697TIP3    H153582   1.604   5.313   5.952  0.2950  2.5333 -3.7553
10697TIP3    H253583   1.563   5.202   5.857  0.2935 -1.1044  0.1658
10698TIP3   OH253584   4.194   6.175   3.049 -0.0090 -0.0326  0.4393
10698TIP3    H153585   4.244   6.254   3.070 -0.1536 -0.1144  1.1194
10698TIP3    H253586   4.103   6.200   3.063 -0.1834  0.1194 -0.8058
10699TIP3   OH253587   6.735   5.997   5.180 -0.2549  0.6855  0.2528
10699TIP3    H153588   6.784   6.062   5.131  0.6915 -0.6064 -0.6051
10699TIP3    H253589   6.663   5.972   5.123 -0.0541  0.2984  0.1635
10700TIP3   OH253590   5.348   3.433   5.315 -0.4794  0.5523  0.9653
10700TIP3    H153591   5.262   3.401   5.288  0.0918 -2.0098  1.8768
10700TIP3    H253592   5.334   3.470   5.402 -0.4409 -1.4372  1.8732
10701TIP3   OH253593   5.485   1.425  15.206 -0.3444  0.2424  0.2223
10701TIP3    H153594   5.393   1.452  15.213 -0.6760 -0.9003  0.4240
10701TIP3    H253595   5.510   1.449  15.118 -0.6174  1.2272  0.4023
10702TIP3   OH253596   2.788   4.957   6.083 -0.0290 -0.0529  0.1220
10702TIP3    H153597   2.760   4.879   6.133  0.6090  0.2971  1.0504
10702TIP3    H253598   2.871   4.982   6.123 -0.4436  1.3739  0.1173
10703TIP3   OH253599   1.480   0.998   6.256  0.1628 -0.9062 -0.7490
10703TIP3    H153600   1.485   1.033   6.167 -2.2377 -1.2025 -1.0512
10703TIP3    H253601   1.471   0.903   6.245 -3.8934 -0.7280 -0.5056
10704TIP3   OH253602   6.437   1.636   4.559 -0.3984 -0.1891 -0.1315
10704TIP3    H153603   6.440   1.540   4.561 -1.7564 -0.2677  2.3694
10704TIP3    H253604   6.528   1.663   4.571 -0.2177 -1.2379  1.1323
10705TIP3   OH253605   2.693   3.237   5.798  0.7939 -0.4029  0.0163
10705TIP3    H153606   2.672   3.304   5.864  1.0823 -1.3279  1.0894
10705TIP3    H253607   2.717   3.286   5.720 -2.3028  0.7776 -0.3464
10706TIP3   OH253608   5.517   1.753   0.109  0.3525  0.1912 -0.0131
10706TIP3    H153609   5.498   1.691   0.180 -0.5217  0.0603 -0.3444
10706TIP3    H253610   5.485   1.709   0.030  1.7222  0.1571 -0.5580
10707TIP3   OH253611   4.733   0.090  16.597  0.2765 -0.8347  0.0689
10707TIP3    H153612   4.672   0.139  16.652 -0.9994 -0.6883 -1.4126
10707TIP3    H253613   4.818   0.130  16.614 -0.2755 -0.0080  1.0264
10708TIP3   OH253614   2.236   6.625  16.668  0.7924  0.6623  0.3095
10708TIP3    H153615   2.212   6.713  16.637 -2.0832  1.2625  3.6743
10708TIP3    H253616   2.157   6.573  16.656  1.1774 -0.3645  2.0164
10709TIP3   OH253617   5.480   5.745   3.964 -0.8281  0.3501  0.2411
10709TIP3    H153618   5.541   5.730   3.891  0.0620 -0.3015  1.0924
10709TIP3    H253619   5.408   5.795   3.925 -0.7291 -0.5944 -1.2559
10710TIP3   OH253620   0.517   4.020  15.589  0.5881 -0.0727  0.3494
10710TIP3    H153621   0.600   3.972  15.585  1.9219  1.9500  2.0256
10710TIP3    H253622   0.504   4.040  15.681 -1.4861  0.2298  0.0572
10711TIP3   OH253623   4.756   4.931   2.405  0.0559 -0.0168  0.1174
10711TIP3    H153624   4.677   4.976   2.434  1.2979  0.3400  3.4265
10711TIP3    H253625   4.767   4.859   2.466  2.5453  0.2706  0.1406
10712TIP3   OH253626   4.271   1.064   6.464 -0.2485 -0.0871 -0.8053
10712TIP3    H153627   4.180   1.077   6.437 -0.0687  1.4060 -0.7716
10712TIP3    H253628   4.301   1.151   6.491  0.9550 -0.7031 -0.0665
10713TIP3   OH253629   6.195   3.021   4.294  0.4397 -0.3200 -0.2640
10713TIP3    H153630   6.274   3.063   4.328 -0.7643  2.7139 -0.9224
10713TIP3    H253631   6.137   3.093   4.272 -2.7941 -2.4251  0.7245
10714TIP3   OH253632   0.697   0.864   6.715 -0.4010 -0.1706  0.3396
10714TIP3    H153633   0.681   0.958   6.703 -3.0335 -0.5077  0.6775
10714TIP3    H253634   0.706   0.830   6.626  4.6705  0.8516  0.1700
10715TIP3   OH253635   0.122   5.973   3.433 -0.6607 -0.7219  0.1001
10715TIP3    H153636   0.052   5.911   3.418 -1.5748  0.7522 -2.2814
10715TIP3    H253637   0.082   6.044   3.483 -0.4433 -0.6007  0.1068
10716TIP3   OH253638   6.552   4.430   0.744 -0.4543  0.0711  0.2404
10716TIP3    H153639   6.591   4.352   0.706 -2.3843 -0.8734  0.0827
10716TIP3    H253640   6.516   4.401   0.828 -0.0626  1.1088  0.7851
10717TIP3   OH253641   0.270   6.796  10.729  0.3003  0.2264 -0.0327
10717TIP3    H153642   0.356   6.764  10.703 -0.0479 -1.3990  0.6155
10717TIP3    H253643   0.229   6.825  10.648  1.1164  0.1605 -0.4797
10718TIP3   OH253644   5.110   1.140  16.692 -0.0620  0.1115 -0.2452
10718TIP3    H153645   5.047   1.209  16.671 -1.4389 -1.3327 -1.0801
10718TIP3    H253646   5.056   1.065  16.716  1.4056 -0.2219  2.3249
10719TIP3   OH253647   4.308   5.899   5.307  0.1148 -0.1762 -0.4428
10719TIP3    H153648   4.309   5.911   5.402  0.7164 -1.4426 -0.2667
10719TIP3    H253649   4.219   5.873   5.287 -0.2648  1.0155 -0.3667
10720TIP3   OH253650   5.258   4.482  11.942  0.1149  0.2629 -0.0113
10720TIP3    H153651   5.220   4.564  11.972  0.1248  0.1909  0.1971
10720TIP3    H253652   5.348   4.504  11.919  0.0912  0.3280 -0.0427
10721TIP3   OH253653   6.010   1.427   5.088 -0.2855  0.0821  0.0102
10721TIP3    H153654   5.946   1.379   5.141 -0.1954  0.1135  0.1509
10721TIP3    H253655   5.977   1.422   4.999  0.2154 -1.0827 -0.1333
10722TIP3   OH253656   3.610   3.445  16.733  0.4410  0.0720 -0.5009
10722TIP3    H153657   3.691   3.452  16.682  0.0152  1.0578 -1.0762
10722TIP3    H253658   3.541   3.464  16.670 -0.1508  0.6371  0.3008
10723TIP3   OH253659   2.730   6.339  13.256 -0.0856  0.0993 -0.2631
10723TIP3    H153660   2.777   6.267  13.299  0.1407 -0.1988 -0.9878
10723TIP3    H253661   2.762   6.418  13.300  2.5801  0.1071 -1.9591
10724TIP3   OH253662   2.919   2.478   2.904  0.0172 -0.5968 -0.3002
10724TIP3    H153663   2.973   2.456   2.980 -0.4542  1.3826  0.6714
10724TIP3    H253664   2.843   2.420   2.911 -1.1290  1.0303  2.0871
10725TIP3   OH253665   6.820   6.718  12.868 -0.4848 -0.6404 -0.6012
10725TIP3    H153666   6.751   6.695  12.929  2.0078 -2.7300  1.6674
10725TIP3    H253667   6.811   6.655  12.796 -2.4499  0.8155 -1.7249
10726TIP3   OH253668   1.671   2.290  16.867  0.2400  0.2248 -0.5005
10726TIP3    H153669   1.599   2.338  16.909 -0.2771 -1.3066  0.4659
10726TIP3    H253670   1.744   2.297  16.928 -0.6108 -2.2843  0.9949
10727TIP3   OH253671   2.000   0.078  12.002 -0.2089 -0.1695 -0.0495
10727TIP3    H153672   2.044   0.063  12.086  0.6069 -0.1397 -0.4664
10727TIP3    H253673   1.915   0.115  12.026 -0.9128 -2.2443  0.8738
10728TIP3   OH253674   1.713   3.204  15.556 -0.1453 -0.0607  0.3176
10728TIP3    H153675   1.702   3.247  15.472 -3.1842 -1.8817 -0.3732
10728TIP3    H253676   1.741   3.274  15.616 -1.0757  1.9697 -1.5062
10729TIP3   OH253677   3.314   0.082  12.538  0.5418 -0.5100  0.4863
10729TIP3    H153678   3.291   0.006  12.591 -0.3311 -0.1796  0.6101
10729TIP3    H253679   3.406   0.071  12.517  0.9619 -0.5493  2.2310
10730TIP3   OH253680   0.331   4.959   0.306  0.0758  0.0042 -0.1635
10730TIP3    H153681   0.295   4.966   0.217 -1.4601 -0.5479  0.3788
10730TIP3    H253682   0.425   4.944   0.293  0.1733  1.6460 -1.6474
10731TIP3   OH253683   0.762   4.594  11.042 -0.0919  0.7569  0.0218
10731TIP3    H153684   0.702   4.541  10.990  1.5625 -0.3540 -0.8497
10731TIP3    H253685   0.725   4.683  11.038 -1.4880  0.1755 -0.7110
10732TIP3   OH253686   3.095   0.901  15.219 -0.0483  0.0006 -0.1006
10732TIP3    H153687   3.138   0.903  15.305 -1.4910  2.3934  0.6634
10732TIP3    H253688   3.121   0.983  15.177  2.5975 -2.1175 -3.1122
10733TIP3   OH253689   1.752   0.981  12.187 -0.1542 -0.5433  0.5469
10733TIP3    H153690   1.764   0.886  12.196 -1.0431 -0.8359 -1.1358
10733TIP3    H253691   1.688   1.003  12.254 -0.6279 -1.2842  0.3455
10734TIP3   OH253692   1.806   3.806   2.440 -0.0873 -0.1416  0.1450
10734TIP3    H153693   1.857   3.872   2.393 -1.4264  0.9403  0.1744
10734TIP3    H253694   1.721   3.847   2.456 -1.1041 -1.9912 -0.1613
10735TIP3   OH253695   6.615   4.874   3.219 -0.5165  0.3043  0.3793
10735TIP3    H153696   6.631   4.928   3.141  0.2068 -1.3837 -0.6996
10735TIP3    H253697   6.702   4.860   3.257 -0.4135 -1.6024 -0.4460
10736TIP3   OH253698   2.681   5.415   4.693 -0.3785 -0.2759 -0.1381
10736TIP3    H153699   2.705   5.374   4.610  1.5054 -1.8410  1.0647
10736TIP3    H253700   2.587   5.398   4.702 -0.5381 -0.3967 -1.7533
10737TIP3   OH253701   2.946   5.697  11.877 -0.2628 -0.5034  0.5302
10737TIP3    H153702   2.901   5.702  11.962 -2.5191 -1.7829 -0.5176
10737TIP3    H253703   2.937   5.606  11.850  3.1125 -0.8685  0.2254
10738TIP3   OH253704   5.909   3.355   3.811 -0.5078  0.1109  0.2780
10738TIP3    H153705   5.826   3.402   3.802 -0.2284  0.4585 -0.7172
10738TIP3    H253706   5.962   3.410   3.868  0.1133  1.5091 -1.5262
10739TIP3   OH253707   5.878   0.572   6.157  0.5551  0.1289  0.5258
10739TIP3    H153708   5.885   0.501   6.220  1.4226  0.8990  1.3324
10739TIP3    H253709   5.848   0.530   6.076 -2.3260 -0.6384  1.8641
10740TIP3   OH253710   4.361   1.430   0.200 -0.5562  0.1065 -0.3535
10740TIP3    H153711   4.436   1.400   0.148  0.9670  0.7575  1.3789
10740TIP3    H253712   4.387   1.415   0.291 -2.7691 -0.1365  0.2830
10741TIP3   OH253713   1.659   1.192   2.060  0.4449 -0.0004 -0.1979
10741TIP3    H153714   1.719   1.246   2.111  0.7241  1.1633 -1.6920
10741TIP3    H253715   1.711   1.163   1.985 -0.9490  1.4837 -1.8158
10742TIP3   OH253716   3.928   3.900  13.526 -0.1396  0.5106  0.1082
10742TIP3    H153717   3.915   3.815  13.568 -0.7951 -0.1667 -1.3594
10742TIP3    H253718   3.873   3.961  13.575 -0.4398 -0.1263  0.5702
10743TIP3   OH253719   1.943   2.208  15.935  0.0369 -0.6156  0.3021
10743TIP3    H153720   2.027   2.170  15.961 -1.1055 -2.6195  1.3823
10743TIP3    H253721   1.913   2.255  16.013 -0.7342 -1.6570  0.6631
10744TIP3   OH253722   3.809   4.394  14.871 -1.1169  0.5690 -0.6467
10744TIP3    H153723   3.857   4.444  14.937 -0.0207  0.3614 -1.2628
10744TIP3    H253724   3.774   4.319  14.919  0.4246 -0.0616 -0.4349
10745TIP3   OH253725   5.192   5.379   2.169  0.0190  0.0309  0.0288
10745TIP3    H153726   5.190   5.394   2.074 -1.7502 -0.8701 -0.1169
10745TIP3    H253727   5.275   5.334   2.184  0.2207 -0.0158 -1.1115
10746TIP3   OH253728   0.317   2.732   3.762 -0.2719  0.4263 -0.6518
10746TIP3    H153729   0.371   2.662   3.798  0.7934  0.8423 -1.3813
10746TIP3    H253730   0.349   2.811   3.806  1.6526  1.0760 -2.9964
10747TIP3   OH253731   5.047   3.725   4.401 -0.0545 -0.4184  0.0559
10747TIP3    H153732   4.998   3.773   4.468  0.7413 -0.1569  0.4601
10747TIP3    H253733   5.083   3.649   4.446  0.3814 -0.3092 -0.1013
10748TIP3   OH253734   6.757   5.513  11.654 -0.1579  0.4083 -0.1805
10748TIP3    H153735   6.793   5.549  11.573  2.2502  1.9996  1.4701
10748TIP3    H253736   6.770   5.419  11.647  0.0103  0.5158 -1.6151
10749TIP3   OH253737   0.756   2.733   1.326  0.3235 -0.2401  0.9140
10749TIP3    H153738   0.822   2.663   1.325  0.1094 -0.5089 -1.8113
10749TIP3    H253739   0.678   2.693   1.288 -0.5713  0.8510  1.5320
10750TIP3   OH253740   5.992   6.269  13.909 -0.4334  0.5768  0.2791
10750TIP3    H153741   5.911   6.319  13.901 -0.5790  0.7948  2.4262
10750TIP3    H253742   6.058   6.335  13.930  0.0120  0.2312 -0.0420
10751TIP3   OH253743   0.636   5.669  12.006  0.0967  0.0770  0.6055
10751TIP3    H153744   0.698   5.727  11.962  0.0539 -1.5751 -1.7771
10751TIP3    H253745   0.613   5.716  12.086  3.1937  1.4456  0.8301
10752TIP3   OH253746   5.693   4.423  16.916 -0.8428 -0.5413 -0.2109
10752TIP3    H153747   5.700   4.341  16.965 -2.1800 -0.7060 -0.2557
10752TIP3    H253748   5.603   4.424  16.884 -0.3422  0.1258 -1.6864
10753TIP3   OH253749   2.075   1.317   5.758  0.0347 -0.5198  0.3917
10753TIP3    H153750   2.149   1.377   5.763 -1.9830  2.2016 -0.4372
10753TIP3    H253751   2.040   1.314   5.847  0.1352 -0.4613  0.4332
10754TIP3   OH253752   0.015   2.139  16.372  0.0280  0.0031  0.0590
10754TIP3    H153753  -0.066   2.087  16.370 -0.1647  0.3366 -1.2202
10754TIP3    H253754  -0.005   2.217  16.321  0.5444  1.0388  1.3832
10755TIP3   OH253755   0.478   2.980   1.410  0.0419  0.3028 -0.1395
10755TIP3    H153756   0.489   3.074   1.426 -0.2647  0.8612 -2.7770
10755TIP3    H253757   0.434   2.947   1.488  1.5820  2.0003  1.5686
10756TIP3   OH253758   6.182   2.197   2.106  0.0583  0.3271  0.0194
10756TIP3    H153759   6.244   2.187   2.034  0.2670  0.2299  0.2108
10756TIP3    H253760   6.097   2.205   2.063  0.0661 -0.6629 -0.2101
10757TIP3   OH253761   1.422   3.420  10.750  0.1511 -0.1414 -0.1497
10757TIP3    H153762   1.477   3.389  10.823  1.0968  0.9746 -0.3469
10757TIP3    H253763   1.438   3.514  10.748 -0.7913  0.0038 -1.0569
10758TIP3   OH253764   2.049   0.589   3.985 -0.1123 -0.1791  0.4786
10758TIP3    H153765   2.133   0.625   4.012 -0.0663 -0.0332  0.1435
10758TIP3    H253766   2.026   0.638   3.906  0.1131 -1.0989 -0.1805
10759TIP3   OH253767   1.944   6.574  14.234 -0.8660  0.0190 -0.4460
10759TIP3    H153768   1.934   6.644  14.169  0.7510  1.6594  0.9904
10759TIP3    H253769   1.854   6.543  14.248 -1.2975 -0.3700 -3.3383
10760TIP3   OH253770   0.699   1.766   2.179  0.2425  0.1645  0.0896
10760TIP3    H153771   0.683   1.860   2.171  0.7935  0.1375 -2.1081
10760TIP3    H253772   0.794   1.758   2.180  0.3425 -0.4507 -3.0124
10761TIP3   OH253773   5.320   0.027   3.940 -0.0230 -0.3780  0.1861
10761TIP3    H153774   5.309   0.098   3.877  2.8116 -0.4749 -0.5198
10761TIP3    H253775   5.230   0.001   3.961 -1.1533  2.6763 -0.2969
10762TIP3   OH253776   4.337   0.253  11.138 -0.0692 -0.1793  0.9108
10762TIP3    H153777   4.248   0.226  11.118  0.8004 -1.8012 -1.1457
10762TIP3    H253778   4.360   0.316  11.070 -0.3417  2.0707  2.7679
10763TIP3   OH253779   0.315   0.469  14.897 -0.3577  0.6499 -0.4911
10763TIP3    H153780   0.382   0.531  14.871  0.6766 -0.2681 -0.1128
10763TIP3    H253781   0.331   0.392  14.843 -0.9405  0.3185 -0.2064
10764TIP3   OH253782   2.320   1.772   1.286  0.9489  0.5920 -0.2118
10764TIP3    H153783   2.226   1.759   1.300  0.8790  1.2471 -0.0148
10764TIP3    H253784   2.346   1.830   1.358  1.7108 -0.3802  0.3221
10765TIP3   OH253785   2.084   3.350  16.124  0.3294  0.5145 -0.2314
10765TIP3    H153786   2.121   3.315  16.204 -1.3754 -0.0685  0.3549
10765TIP3    H253787   1.990   3.359  16.142 -0.2178 -0.2346 -2.3485
10766TIP3   OH253788   3.513   5.078  15.798 -0.4268  0.3287 -1.1569
10766TIP3    H153789   3.489   5.145  15.861  0.0212  1.1805 -1.8601
10766TIP3    H253790   3.533   5.127  15.718  0.9928 -0.5461 -1.3695
10767TIP3   OH253791   6.369   6.085   3.928  0.3853  0.5656 -0.0497
10767TIP3    H153792   6.352   6.037   4.009  2.3501 -2.3949 -1.2272
10767TIP3    H253793   6.464   6.078   3.916  0.4464  2.8603 -1.5270
10768TIP3   OH253794   1.171   1.732  14.687 -0.1476 -0.1467 -0.1500
10768TIP3    H153795   1.253   1.686  14.668 -0.1430  0.1132 -0.8194
10768TIP3    H253796   1.162   1.729  14.782  0.8859  0.2377 -0.0342
10769TIP3   OH253797   3.304   4.130   2.751  0.1387 -0.2060 -0.3477
10769TIP3    H153798   3.285   4.157   2.841 -0.2832  0.2202 -0.5585
10769TIP3    H253799   3.383   4.180   2.728 -0.1609  0.2277 -0.4510
10770TIP3   OH253800   5.165   6.540   5.184  0.2844 -0.4813  0.2382
10770TIP3    H153801   5.071   6.549   5.203 -0.4885 -1.9453 -2.3720
10770TIP3    H253802   5.192   6.461   5.231  0.7068  0.8208  2.3291
10771TIP3   OH253803   4.725   5.923   2.122 -0.3629 -0.4328  0.0040
10771TIP3    H153804   4.791   5.856   2.103  1.2681  0.6797  1.4699
10771TIP3    H253805   4.775   6.004   2.128 -2.0174  0.6033  0.2682
10772TIP3   OH253806   0.711   1.308   1.351 -0.0050 -0.4092  0.1098
10772TIP3    H153807   0.656   1.245   1.398 -0.8230  0.9739  1.0769
10772TIP3    H253808   0.789   1.259   1.327 -1.1996 -2.1686 -0.4080
10773TIP3   OH253809   5.061   4.457  15.111 -0.1549  0.6339  0.2547
10773TIP3    H153810   4.969   4.432  15.109 -0.1944  0.7928 -2.2725
10773TIP3    H253811   5.101   4.396  15.174 -1.2891 -2.0743 -1.4942
10774TIP3   OH253812   2.131   1.300  16.378 -0.0115  0.2542  0.0601
10774TIP3    H153813   2.111   1.391  16.400  2.4249  0.5437  1.3512
10774TIP3    H253814   2.143   1.257  16.462 -1.6271 -1.4385 -0.5159
10775TIP3   OH253815   1.965   1.906   1.675  0.3207  0.4926  0.0278
10775TIP3    H153816   1.994   1.840   1.738 -1.3652  0.8367  1.2555
10775TIP3    H253817   1.942   1.857   1.596  1.5183 -0.0680  0.0229
10776TIP3   OH253818   4.540   4.262   4.461 -0.2476  0.1644 -0.3787
10776TIP3    H153819   4.462   4.210   4.440 -0.3070  0.1929 -0.2299
10776TIP3    H253820   4.555   4.315   4.382  0.1851 -0.5329 -0.7719
10777TIP3   OH253821   3.637   6.339   3.442  0.5242  0.3840  0.3118
10777TIP3    H153822   3.573   6.376   3.503 -0.1956  0.3184 -0.3910
10777TIP3    H253823   3.624   6.388   3.361  2.1302  1.1483  0.4628
10778TIP3   OH253824   2.579   3.522  12.632 -0.2749  0.1631  0.2711
10778TIP3    H153825   2.492   3.523  12.594  0.1104 -0.7515 -0.7013
10778TIP3    H253826   2.568   3.558  12.720 -1.5269  0.5343 -0.0222
10779TIP3   OH253827   0.977   2.515   0.506  0.0688 -0.2086 -0.3245
10779TIP3    H153828   1.040   2.484   0.441  0.4450  1.2733 -0.6923
10779TIP3    H253829   0.891   2.497   0.466  0.2543 -1.1781 -0.3146
10780TIP3   OH253830   2.974   0.139  16.885  0.2628 -0.5247  0.1191
10780TIP3    H153831   2.987   0.229  16.856  1.8454 -1.1107 -1.1509
10780TIP3    H253832   2.985   0.142  16.980  0.4007  0.5992  0.0784
10781TIP3   OH253833   6.622   2.935  11.866 -0.3420 -0.2851 -0.5208
10781TIP3    H153834   6.600   3.004  11.929 -0.3592 -0.1229 -0.7003
10781TIP3    H253835   6.705   2.899  11.898 -0.5519 -0.4728 -0.1880
10782TIP3   OH253836   6.339   5.926   2.225  0.2443  0.1585 -0.0627
10782TIP3    H153837   6.368   5.845   2.183  0.8156  1.4881 -2.4502
10782TIP3    H253838   6.270   5.960   2.167 -0.3872  1.1058  1.1922
10783TIP3   OH253839   0.465   5.777  14.420 -0.8576 -0.2123  0.4372
10783TIP3    H153840   0.422   5.693  14.406 -0.0397 -0.4602 -0.8523
10783TIP3    H253841   0.488   5.778  14.513 -0.8688 -1.4249  0.4717
10784TIP3   OH253842   2.972   3.308   2.074 -0.6292  0.3303 -0.1734
10784TIP3    H153843   2.908   3.380   2.072 -0.4598  0.4749 -1.1657
10784TIP3    H253844   3.055   3.349   2.049 -0.2482  0.0407  0.5869
10785TIP3   OH253845   0.936   2.711  12.281  0.2720  0.0116  0.2129
10785TIP3    H153846   0.932   2.673  12.193 -0.6454 -2.3602  1.1965
10785TIP3    H253847   0.882   2.790  12.275 -1.1683 -1.0092 -0.9893
10786TIP3   OH253848   3.653   3.776  16.614 -0.0183  0.5463 -0.1169
10786TIP3    H153849   3.683   3.817  16.533  0.8999 -0.0350 -0.0785
10786TIP3    H253850   3.681   3.685  16.607  0.4380  0.5797  1.0278
10787TIP3   OH253851   5.703   6.660   2.386  0.1252 -0.0971 -0.4946
10787TIP3    H153852   5.728   6.628   2.473  1.6626 -0.3601 -0.9924
10787TIP3    H253853   5.683   6.753   2.399 -1.6128 -0.5811  0.4675
10788TIP3   OH253854   6.251   1.615   2.964  0.2726 -0.0015 -0.1133
10788TIP3    H153855   6.162   1.581   2.952 -0.6617  2.1133  0.3547
10788TIP3    H253856   6.298   1.585   2.886 -0.6098 -1.7593 -0.0353
10789TIP3   OH253857   0.330   4.355  14.075  0.0676  0.4394  0.1206
10789TIP3    H153858   0.371   4.441  14.064 -0.5725  0.7204 -0.1221
10789TIP3    H253859   0.315   4.347  14.169  1.3489  0.0130  0.3014
10790TIP3   OH253860   2.619   3.531  15.934  0.4893  0.2564 -0.5821
10790TIP3    H153861   2.539   3.499  15.976  1.1275  1.0284  1.3412
10790TIP3    H253862   2.683   3.462  15.949  0.8786  0.7925  0.2755
10791TIP3   OH253863   3.447   2.340  13.491 -0.4650  0.5065  0.3086
10791TIP3    H153864   3.434   2.367  13.582  2.0525 -0.3420  0.9914
10791TIP3    H253865   3.452   2.245  13.494 -1.0895  0.4160 -0.8546
10792TIP3   OH253866   3.092   4.367  17.055 -0.3117  0.3242 -0.6990
10792TIP3    H153867   2.998   4.375  17.039 -1.0657 -3.9843  0.3893
10792TIP3    H253868   3.131   4.362  16.968 -1.1991  0.9476 -1.1452
10793TIP3   OH253869   5.769   4.695   1.741  0.0496  0.1254  0.0325
10793TIP3    H153870   5.758   4.790   1.745 -1.0064 -0.0232  1.0935
10793TIP3    H253871   5.836   4.682   1.674 -0.0793  1.5910 -0.4170
10794TIP3   OH253872   0.027   0.718  12.274  0.2184 -0.5435  0.5113
10794TIP3    H153873  -0.053   0.764  12.248  1.0040  1.0863  0.8216
10794TIP3    H253874  -0.003   0.632  12.304 -1.1828 -0.7224 -1.2559
10795TIP3   OH253875   2.875   2.624  14.734 -0.0499 -0.1903  0.4671
10795TIP3    H153876   2.807   2.573  14.690 -0.5461 -0.5451  1.5927
10795TIP3    H253877   2.849   2.715  14.720  0.0810 -0.2738 -0.3837
10796TIP3   OH253878   6.152   1.766  15.813  0.1806  0.0181 -0.0539
10796TIP3    H153879   6.172   1.709  15.887 -1.3830  0.6667  0.9015
10796TIP3    H253880   6.065   1.801  15.832 -0.6946 -0.5412 -2.6802
10797TIP3   OH253881   0.115   5.547   2.469 -0.1563  0.7880  0.1895
10797TIP3    H153882   0.171   5.472   2.485  0.7701  1.4053 -0.0825
10797TIP3    H253883   0.032   5.509   2.440 -0.9356 -0.2522  3.4022
10798TIP3   OH253884   5.949   4.777  12.215  0.6724 -0.3005 -0.3280
10798TIP3    H153885   5.926   4.843  12.280  0.9179 -1.8350  1.3963
10798TIP3    H253886   5.946   4.824  12.132 -0.7190  1.4785  0.6422
10799TIP3   OH253887   0.560   4.804   5.141 -0.1869 -0.4159 -0.0264
10799TIP3    H153888   0.482   4.860   5.142 -0.0610 -0.2353 -0.1081
10799TIP3    H253889   0.597   4.814   5.229 -0.7234 -1.1744  0.2951
10800TIP3   OH253890   6.089   4.744  16.029  0.2662 -0.1731 -0.1016
10800TIP3    H153891   6.086   4.827  15.981 -0.2905  0.5598  1.1466
10800TIP3    H253892   6.181   4.733  16.052  0.4035 -0.1123 -0.6102
10801TIP3   OH253893   3.325   4.705   0.157 -0.1213 -0.1950 -0.0195
10801TIP3    H153894   3.295   4.686   0.068 -1.1571 -1.1940  0.5243
10801TIP3    H253895   3.248   4.739   0.202  0.2157 -0.3369  0.6818
10802TIP3   OH253896   4.026   2.689  14.336  0.1872 -0.7714 -0.6276
10802TIP3    H153897   4.101   2.631  14.321 -0.1706 -1.3669 -0.1337
10802TIP3    H253898   4.013   2.733  14.252  0.7924 -1.0110 -0.8544
10803TIP3   OH253899   5.556   3.065   1.973 -0.1259 -0.0962  0.4838
10803TIP3    H153900   5.600   2.992   1.929 -1.2459 -0.7509  0.4098
10803TIP3    H253901   5.594   3.067   2.061 -0.5279 -1.1769  0.6914
10804TIP3   OH253902   2.260   4.845  14.942 -0.2665  0.4103 -0.1402
10804TIP3    H153903   2.261   4.917  14.879  2.3968 -0.0901 -0.7581
10804TIP3    H253904   2.276   4.887  15.026  0.0315  0.6758 -0.3269
10805TIP3   OH253905   4.161   0.793   3.766  0.3469  0.4954  0.0868
10805TIP3    H153906   4.187   0.774   3.856 -0.2621  0.8622  0.3455
10805TIP3    H253907   4.244   0.810   3.720  0.6032  1.0526  0.7476
10806TIP3   OH253908   2.430   1.258  12.183  0.6278  0.0671 -0.2780
10806TIP3    H153909   2.435   1.351  12.203 -0.5158 -0.3778  2.7128
10806TIP3    H253910   2.469   1.215  12.260  3.3363 -1.9586 -2.5811
10807TIP3   OH253911   1.876   3.393  11.222  0.0356  0.7708 -0.0246
10807TIP3    H153912   1.903   3.463  11.282 -0.2664 -0.6108  1.8063
10807TIP3    H253913   1.795   3.425  11.183 -0.7760  0.9549  1.7398
10808TIP3   OH253914   3.864   0.067   2.776  0.2491  0.5854  0.3149
10808TIP3    H153915   3.879  -0.025   2.800  0.0334  0.2201 -0.8849
10808TIP3    H253916   3.951   0.100   2.756  0.3092  0.5982  0.5924
10809TIP3   OH253917   4.433   4.431   1.368 -0.0692 -0.8126 -0.1303
10809TIP3    H153918   4.455   4.468   1.453 -0.1561 -0.8015 -0.1128
10809TIP3    H253919   4.455   4.338   1.377 -0.1324 -0.8226 -0.0768
10810TIP3   OH253920   3.128   4.077   0.810 -0.2835 -0.7013 -0.5088
10810TIP3    H153921   3.200   4.117   0.760 -0.3688 -1.5742 -1.3616
10810TIP3    H253922   3.133   3.984   0.789 -0.7638 -0.9916  0.5848
10811TIP3   OH253923   0.763   1.075   4.869 -0.0068 -0.1548 -0.0958
10811TIP3    H153924   0.731   1.028   4.946  0.4265  0.6269  0.5727
10811TIP3    H253925   0.708   1.154   4.865  0.4855  0.1869 -0.1395
10812TIP3   OH253926   0.539   4.021   1.438  0.2828  0.3794 -0.1373
10812TIP3    H153927   0.536   4.112   1.411 -3.3748  0.0521 -1.4793
10812TIP3    H253928   0.475   3.977   1.382  1.9954 -3.0981  0.3370
10813TIP3   OH253929   3.091   4.992  16.339 -0.0133  0.2980  0.0110
10813TIP3    H153930   3.086   4.955  16.250  1.3831 -0.2168  0.1257
10813TIP3    H253931   3.007   4.967  16.379 -0.4331  0.0561 -0.9768
10814TIP3   OH253932   4.942   4.683  17.060 -0.3298  0.1535 -0.2561
10814TIP3    H153933   4.979   4.770  17.076 -0.5623  0.2771 -0.3808
10814TIP3    H253934   4.880   4.696  16.989  0.0693 -0.2277 -0.6856
10815TIP3   OH253935   0.987   1.768  11.184 -0.5480 -0.1371  0.3833
10815TIP3    H153936   0.912   1.817  11.150 -0.7769 -0.9570 -0.3369
10815TIP3    H253937   1.044   1.756  11.108 -0.4491 -0.8832  0.5716
10816TIP3   OH253938   0.591   6.267  16.477 -0.3017 -0.2959 -0.5190
10816TIP3    H153939   0.540   6.192  16.509 -1.5409  0.1319 -1.4042
10816TIP3    H253940   0.624   6.309  16.557  0.2925 -1.6924 -0.0067
10817TIP3   OH253941   4.676   6.327   0.791 -0.0628 -0.0395 -0.2557
10817TIP3    H153942   4.719   6.393   0.736  0.6134 -0.0329  0.2631
10817TIP3    H253943   4.671   6.250   0.736  2.3303 -0.6318  0.2226
10818TIP3   OH253944   4.661   3.457  15.835 -0.1654 -0.3085 -0.2717
10818TIP3    H153945   4.659   3.479  15.928  0.2337 -1.6310  0.0623
10818TIP3    H253946   4.610   3.528  15.794 -0.4922  0.2105  0.9530
10819TIP3   OH253947   6.399   4.051  14.966 -0.2905  0.0558  0.6768
10819TIP3    H153948   6.413   4.051  15.060  0.5440  0.0713  0.5557
10819TIP3    H253949   6.447   3.975  14.934  0.4849  0.7680  0.1178
10820TIP3   OH253950   2.133   3.554   5.451  0.1000 -0.6558 -0.4396
10820TIP3    H153951   2.039   3.570   5.445  0.5345  1.6628 -2.3495
10820TIP3    H253952   2.145   3.466   5.414 -1.2634 -0.8393 -0.4850
10821TIP3   OH253953   5.169   4.523  16.539  0.3199  0.3717 -0.2971
10821TIP3    H153954   5.207   4.461  16.602  0.6880 -0.4038 -1.2530
10821TIP3    H253955   5.091   4.478  16.506  0.3314  0.6195 -0.6603
10822TIP3   OH253956   6.397   3.787   0.015 -0.1775  0.3565 -0.0650
10822TIP3    H153957   6.413   3.757  -0.075  0.3255  0.5077 -0.0290
10822TIP3    H253958   6.358   3.874   0.005  0.3850  0.6052 -0.1311
10823TIP3   OH253959   1.083   6.243   2.595  0.9884  0.0267  0.2994
10823TIP3    H153960   1.019   6.308   2.567  1.1777 -0.4141 -1.2522
10823TIP3    H253961   1.149   6.293   2.643  0.1431  0.6710  0.8030
10824TIP3   OH253962   5.688   2.340  10.712 -0.8558 -0.1137  0.0813
10824TIP3    H153963   5.746   2.408  10.746 -1.1026 -0.2773  0.8649
10824TIP3    H253964   5.645   2.380  10.637 -0.7644  0.4932  0.3453
10825TIP3   OH253965   1.257   3.218  11.474  0.2251  0.5178 -0.3925
10825TIP3    H153966   1.341   3.264  11.473  0.8343 -0.5437 -1.8138
10825TIP3    H253967   1.225   3.226  11.384 -0.4638 -0.3989 -0.2362
10826TIP3   OH253968   1.921   3.546   4.736  0.4298  0.0803  0.2846
10826TIP3    H153969   1.981   3.562   4.663  1.1372  0.0127  0.8463
10826TIP3    H253970   1.865   3.623   4.738  0.3428  0.0441 -0.3822
10827TIP3   OH253971   4.223   4.750   3.859 -0.1795 -0.3304  0.3633
10827TIP3    H153972   4.242   4.730   3.767  2.1327 -1.1186  0.9352
10827TIP3    H253973   4.194   4.841   3.858 -0.1022 -0.2903 -1.1233
10828TIP3   OH253974   1.992   2.363  14.655 -0.1403  0.4178  0.2584
10828TIP3    H153975   1.973   2.279  14.614 -0.1564  1.3829 -1.8692
10828TIP3    H253976   1.922   2.421  14.624  0.6112  1.5392  0.5942
10829TIP3   OH253977   0.943   3.431  12.928  0.2678  0.4253 -0.5275
10829TIP3    H153978   0.940   3.427  12.833  0.6196 -0.7783 -0.5095
10829TIP3    H253979   1.035   3.415  12.949  0.1130  0.2280  0.0229
10830TIP3   OH253980   5.894   1.447  12.972  0.1892 -0.7387  0.6692
10830TIP3    H153981   5.864   1.505  13.042 -0.0849 -0.5341  0.3881
10830TIP3    H253982   5.936   1.505  12.909 -0.1194 -0.8346  0.3678
10831TIP3   OH253983   4.503   0.275   1.320 -0.1885 -0.3932  0.6980
10831TIP3    H153984   4.464   0.246   1.238  1.3195 -1.1989  0.2246
10831TIP3    H253985   4.460   0.359   1.339 -0.4318 -0.1017 -1.0023
10832TIP3   OH253986   6.160   0.527  13.067  0.3021  0.1480  0.3661
10832TIP3    H153987   6.144   0.618  13.040  0.5882 -0.1971 -1.0520
10832TIP3    H253988   6.099   0.476  13.014 -1.0853 -0.3997  2.3862
10833TIP3   OH253989   4.737   0.730   2.235  0.6539  0.5538  0.0426
10833TIP3    H153990   4.695   0.767   2.157 -0.3685  1.1932  0.8855
10833TIP3    H253991   4.742   0.802   2.297 -0.5853 -0.4722  1.4001
10834TIP3   OH253992   4.355   0.947  13.644 -0.6822  0.6644 -0.5870
10834TIP3    H153993   4.424   0.898  13.600 -0.4464  0.6679 -0.2292
10834TIP3    H253994   4.366   1.037  13.613  0.4959  0.9901  0.6586
10835TIP3   OH253995   0.740   1.283  16.586 -0.1749  0.2232 -0.0351
10835TIP3    H153996   0.688   1.363  16.592  0.6762  0.7627  0.2705
10835TIP3    H253997   0.712   1.243  16.503  0.2076  1.4301 -0.7711
10836TIP3   OH253998   0.503   4.040   3.393 -1.1617 -0.1005  0.3292
10836TIP3    H153999   0.555   4.104   3.344 -1.0773 -0.6737 -0.3641
10836TIP3    H254000   0.517   4.061   3.485  0.4986 -0.3840  0.1664
10837TIP3   OH254001   1.971   1.029  12.039 -0.3983 -0.7727  0.2297
10837TIP3    H154002   1.882   1.010  12.070 -0.0333 -1.8020  0.6609
10837TIP3    H254003   1.996   1.108  12.087 -1.0677 -0.4845  0.1168
10838TIP3   OH254004   2.558   5.602  17.068  0.4818  0.4027  0.6226
10838TIP3    H154005   2.602   5.519  17.052  0.2045  0.1040  1.3475
10838TIP3    H254006   2.616   5.648  17.130  0.8454  0.9408 -0.0917
10839TIP3   OH254007   2.976   6.272  15.466 -0.1341 -0.0083 -0.0255
10839TIP3    H154008   2.953   6.359  15.498  1.2138  0.0972  0.7308
10839TIP3    H254009   2.894   6.223  15.466 -0.4149  0.3370  2.5320
10840TIP3   OH254010   1.682   0.822   1.363 -0.4589 -0.0131 -0.4626
10840TIP3    H154011   1.649   0.733   1.376 -1.1677  0.6219  3.1424
10840TIP3    H254012   1.776   0.811   1.349 -0.3669 -1.3437  0.8990
10841TIP3   OH254013   2.843   1.424   3.533 -0.9317  0.2624  0.2100
10841TIP3    H154014   2.921   1.407   3.585 -0.7386 -1.1333 -0.4771
10841TIP3    H254015   2.773   1.376   3.577 -1.0763  0.2947  0.0195
10842TIP3   OH254016   1.011   6.360  11.803 -0.3845 -0.7611 -0.2553
10842TIP3    H154017   1.066   6.293  11.844 -1.4668 -0.4694  1.8203
10842TIP3    H254018   0.923   6.342  11.836 -1.0606  0.4058 -1.3508
10843TIP3   OH254019   5.244   2.910  11.843  0.5174 -0.0783 -0.1424
10843TIP3    H154020   5.259   2.962  11.921 -0.0675 -0.3921  0.1856
10843TIP3    H254021   5.310   2.840  11.848  1.5880  0.8453 -0.8040
10844TIP3   OH254022   1.560   0.016   2.256 -0.6758  0.8763 -0.0825
10844TIP3    H154023   1.644   0.049   2.286 -1.1729  0.3217  2.1224
10844TIP3    H254024   1.571   0.003   2.162  1.0779  2.5607 -0.1578
10845TIP3   OH254025   4.114   1.332   0.869 -0.3610 -0.1893  0.1193
10845TIP3    H154026   4.134   1.391   0.941 -0.2943 -1.8821  1.5424
10845TIP3    H254027   4.018   1.336   0.861 -0.6593 -1.7837  1.9959
10846TIP3   OH254028   5.048   4.951  16.299 -0.0453 -0.6609 -0.2844
10846TIP3    H154029   5.089   5.020  16.248 -1.6699  0.0903 -0.6537
10846TIP3    H254030   5.121   4.899  16.333  1.1680  0.5140 -0.9950
10847TIP3   OH254031   0.686   1.132  14.030 -0.0213  0.7226  0.1095
10847TIP3    H154032   0.651   1.044  14.039 -0.5786  1.1518  3.1974
10847TIP3    H254033   0.613   1.184  13.997  0.0329  0.2720 -0.7783
10848TIP3   OH254034   6.350   4.556   0.497 -0.1329 -0.0309 -0.0893
10848TIP3    H154035   6.396   4.488   0.546 -0.0351 -0.2670 -0.5058
10848TIP3    H254036   6.385   4.550   0.408 -1.6426 -0.8510 -0.6578
10849TIP3   OH254037   2.626   3.873   0.305  0.8205 -0.5112 -0.4008
10849TIP3    H154038   2.551   3.829   0.345 -2.2971  3.5717 -1.0366
10849TIP3    H254039   2.609   3.868   0.211  0.8638  1.1282 -0.5248
10850TIP3   OH254040   5.050   5.858   4.186 -0.8023 -0.0215  0.2155
10850TIP3    H154041   5.039   5.952   4.175 -0.0076  0.0044 -0.5030
10850TIP3    H254042   4.963   5.821   4.167 -1.1522  0.5639  0.6453
10851TIP3   OH254043   2.145   5.471   4.661 -0.0829  0.4038  0.3878
10851TIP3    H154044   2.203   5.442   4.590 -1.1416 -0.0218 -0.3344
10851TIP3    H254045   2.164   5.564   4.671  1.4652  0.0695  0.9053
10852TIP3   OH254046   3.012   2.588  11.524 -0.1878 -0.1920  0.5917
10852TIP3    H154047   3.080   2.525  11.548  0.8910  0.3451 -0.8765
10852TIP3    H254048   3.039   2.669  11.566  0.5558  0.2158 -0.5998
10853TIP3   OH254049   6.664   4.137   1.401 -0.0997  0.4807  0.2597
10853TIP3    H154050   6.572   4.115   1.415 -0.6299  1.0654 -1.9171
10853TIP3    H254051   6.679   4.117   1.308  2.1944 -0.3446  0.7450
10854TIP3   OH254052   4.474   0.126   3.233  0.0320 -0.5844 -0.2786
10854TIP3    H154053   4.455   0.074   3.155  1.0448 -0.5570 -0.5566
10854TIP3    H254054   4.568   0.117   3.246 -0.0311 -0.1062  0.5991
10855TIP3   OH254055   0.151   0.241  16.045 -0.1632  0.3941 -0.1692
10855TIP3    H154056   0.157   0.275  16.135  0.4924 -0.6623  0.2069
10855TIP3    H254057   0.133   0.147  16.057  1.4654 -0.0704 -1.1017
10856TIP3   OH254058   0.052   5.896  16.885 -0.0761  0.2109  0.4840
10856TIP3    H154059   0.038   5.812  16.928  0.8353 -0.8438 -1.2170
10856TIP3    H254060  -0.031   5.915  16.841  0.0491 -0.3111  0.0195
10857TIP3   OH254061   1.266   1.417  15.212 -0.0531  0.5599  0.0272
10857TIP3    H154062   1.304   1.448  15.129 -0.7394  1.1801 -0.0672
10857TIP3    H254063   1.243   1.326  15.194 -1.5365  1.0959 -0.9621
10858TIP3   OH254064   0.759   4.371  10.685 -0.0249 -0.6761  0.1924
10858TIP3    H154065   0.802   4.359  10.601 -2.6215 -0.8102 -1.2373
10858TIP3    H254066   0.785   4.458  10.715  1.4884 -0.9184 -0.3734
10859TIP3   OH254067   4.299   0.785   2.104  0.3335  0.1412 -0.2629
10859TIP3    H154068   4.264   0.720   2.043  0.3427  0.8169 -1.0039
10859TIP3    H254069   4.288   0.868   2.059 -0.5761  0.7739  1.0786
10860TIP3   OH254070   3.589   2.605  11.457  0.0811 -0.9674  0.3356
10860TIP3    H154071   3.602   2.521  11.413  3.1118 -0.1774 -0.4794
10860TIP3    H254072   3.638   2.596  11.539  0.2218 -0.1049  0.3536
10861TIP3   OH254073   0.014   0.400   4.884 -0.5577 -0.2471 -0.4679
10861TIP3    H154074  -0.040   0.322   4.873  0.3642 -0.7273 -1.8463
10861TIP3    H254075   0.072   0.379   4.957  3.6397 -3.3832 -4.1392
10862TIP3   OH254076   1.720   3.263  13.905 -0.2163  0.4332 -0.5113
10862TIP3    H154077   1.633   3.228  13.889 -0.3696  0.9471 -0.8169
10862TIP3    H254078   1.709   3.358  13.906  0.0761  0.4736  1.0372
10863TIP3   OH254079   0.873   4.475   5.009 -0.2683 -0.5761 -0.2216
10863TIP3    H154080   0.883   4.545   4.944 -0.6682 -1.2568 -1.0231
10863TIP3    H254081   0.841   4.400   4.959 -0.6810 -1.0812  0.7801
10864TIP3   OH254082   3.853   2.607   2.324  0.6375 -0.4033  0.0667
10864TIP3    H154083   3.943   2.596   2.293  1.0536  2.1624  0.1315
10864TIP3    H254084   3.800   2.607   2.244  0.6418 -2.0889  0.0406
10865TIP3   OH254085   1.344   5.976   6.024 -0.6472 -0.2301 -0.3716
10865TIP3    H154086   1.319   6.053   6.075  1.3256  0.4135 -0.2699
10865TIP3    H254087   1.368   6.011   5.938  2.4634 -0.2945  0.3414
10866TIP3   OH254088   0.049   0.019   4.051  0.0374 -0.9306 -0.7210
10866TIP3    H154089   0.108  -0.049   4.017  1.2125 -0.5811  0.5494
10866TIP3    H254090  -0.012   0.036   3.979 -1.4649 -4.5929 -0.5541
10867TIP3   OH254091   4.459   0.852   5.441 -0.3032  0.7738 -0.4157
10867TIP3    H154092   4.431   0.830   5.352 -1.0834  1.5253 -0.3701
10867TIP3    H254093   4.382   0.892   5.481  0.4992  1.8517  0.0950
10868TIP3   OH254094   3.742   4.337  12.534 -0.4938  0.1646 -0.1532
10868TIP3    H154095   3.677   4.304  12.596 -0.0956 -0.4037 -0.0216
10868TIP3    H254096   3.736   4.278  12.459 -0.7488  0.6556 -0.5236
10869TIP3   OH254097   0.922   1.235   4.544  0.1176 -0.1800 -0.2825
10869TIP3    H154098   0.842   1.195   4.511 -0.0063  0.6441 -1.0100
10869TIP3    H254099   0.893   1.294   4.614 -0.1458  1.4285 -1.6822
10870TIP3   OH254100   6.262   3.455   3.518 -0.0870 -0.1444  0.2412
10870TIP3    H154101   6.220   3.541   3.514  2.3198  1.0886 -0.2439
10870TIP3    H254102   6.305   3.445   3.433  1.9882 -0.5419  1.2727
10871TIP3   OH254103   0.429   6.398  13.427 -0.0148 -0.3564 -0.0604
10871TIP3    H154104   0.518   6.366  13.439  0.2328 -0.3848 -1.7681
10871TIP3    H254105   0.426   6.426  13.336 -1.9529 -0.9669 -0.2145
10872TIP3   OH254106   3.733   5.252  14.391  0.5232 -0.3766  0.2800
10872TIP3    H154107   3.667   5.316  14.364 -0.6739 -2.3178 -1.6456
10872TIP3    H254108   3.815   5.300  14.386 -0.4963  1.5606  0.8346
10873TIP3   OH254109   6.120   5.143  17.057  0.4587 -0.2364 -0.3128
10873TIP3    H154110   6.156   5.111  17.140  1.5803  0.0537 -0.6737
10873TIP3    H254111   6.148   5.078  16.993  2.1954  1.0573 -0.9480
10874TIP3   OH254112   2.889   2.076  11.516  0.0630 -0.2064  0.0888
10874TIP3    H154113   2.913   2.144  11.579 -0.2846  0.2896 -0.3081
10874TIP3    H254114   2.796   2.062  11.529  0.2207 -0.9396  0.4788
10875TIP3   OH254115   1.851   5.290   3.450 -0.2279  0.2736  0.1436
10875TIP3    H154116   1.826   5.294   3.542 -1.2716  2.9168 -0.1904
10875TIP3    H254117   1.771   5.262   3.405  0.1776 -0.6511 -0.0196
10876TIP3   OH254118   5.461   3.375  12.397 -0.0836 -0.0685 -0.1413
10876TIP3    H154119   5.501   3.438  12.457  0.2227 -0.2254 -0.1821
10876TIP3    H254120   5.387   3.423  12.358  0.2309  0.3104 -0.2775
10877TIP3   OH254121   3.702   5.750   1.152  0.2646 -0.1539  0.0092
10877TIP3    H154122   3.672   5.806   1.223 -4.9185 -0.3896 -1.5937
10877TIP3    H254123   3.663   5.664   1.171  1.9722 -1.2879 -1.2491
10878TIP3   OH254124   2.866   5.316  15.396  0.3522 -0.0763  0.5059
10878TIP3    H154125   2.913   5.245  15.352  0.0725 -0.6970  1.1714
10878TIP3    H254126   2.849   5.380  15.328  1.3213 -0.2785  0.0501
10879TIP3   OH254127   2.443   4.287   2.464 -0.5119  0.3808 -0.3137
10879TIP3    H154128   2.519   4.306   2.410 -1.3519  1.7779 -1.0481
10879TIP3    H254129   2.389   4.366   2.460 -0.4111  0.7805  2.9758
10880TIP3   OH254130   4.968   2.341  11.348  0.3973 -0.0614  0.6253
10880TIP3    H154131   5.001   2.414  11.296  0.7521 -1.7877 -1.7407
10880TIP3    H254132   5.024   2.267  11.324 -0.8972 -1.4915  1.7727
10881TIP3   OH254133   3.225   0.591   5.785 -0.0829 -0.0662 -0.3715
10881TIP3    H154134   3.184   0.570   5.869 -1.1490 -0.2340 -0.9094
10881TIP3    H254135   3.273   0.512   5.761  0.7376  0.1976  0.3622
10882TIP3   OH254136   3.425   6.529   3.548  0.6050  0.7779 -0.1089
10882TIP3    H154137   3.416   6.585   3.625  0.9832  1.8694 -0.8302
10882TIP3    H254138   3.354   6.465   3.557  0.2262  1.2999  0.7957
10883TIP3   OH254139   6.362   5.681  15.792 -0.6771  0.5637  0.5395
10883TIP3    H154140   6.371   5.671  15.697 -1.5842 -1.4297  0.6146
10883TIP3    H254141   6.339   5.594  15.823  0.2886  1.0121  2.6994
10884TIP3   OH254142   1.181   1.849  11.017  0.1378  0.6377 -0.7191
10884TIP3    H154143   1.250   1.867  11.080 -0.2757 -2.0548  0.6369
10884TIP3    H254144   1.224   1.798  10.948 -0.5591 -1.9640  0.6451
10885TIP3   OH254145   1.949   1.294   3.895  0.0219 -0.0118 -0.0402
10885TIP3    H154146   2.016   1.229   3.873 -0.6505 -1.1791  1.2216
10885TIP3    H254147   1.997   1.377   3.899  1.8643 -1.0687  2.6829
10886TIP3   OH254148   6.738   0.974  10.878  0.3912 -0.2027  0.3129
10886TIP3    H154149   6.819   1.024  10.891 -0.4934  1.4139 -0.0550
10886TIP3    H254150   6.768   0.887  10.851  2.0242 -0.3254  2.2504
10887TIP3   OH254151   2.856   1.800   4.843 -0.0323  0.5220 -0.2895
10887TIP3    H154152   2.846   1.808   4.748 -2.4878  1.3658 -0.0322
10887TIP3    H254153   2.820   1.882   4.878  1.5863  0.5938  1.3698
10888TIP3   OH254154   1.279   0.659  13.049 -0.1711  0.1993 -0.1313
10888TIP3    H154155   1.288   0.588  13.113 -0.3187 -0.3818 -0.7503
10888TIP3    H254156   1.363   0.704  13.052  1.2609 -2.0971 -2.2097
10889TIP3   OH254157   0.671   4.423   6.201  0.3437 -0.0147 -0.2385
10889TIP3    H154158   0.716   4.496   6.158  1.9686 -0.8083  0.0186
10889TIP3    H254159   0.609   4.464   6.261  0.5007  1.1335 -0.8352
10890TIP3   OH254160   5.043   5.218   4.046  0.2774 -0.3386 -0.0979
10890TIP3    H154161   5.115   5.241   3.986  0.7917 -1.5085  0.0408
10890TIP3    H254162   5.031   5.296   4.099  1.7533 -0.2394  0.1508
10891TIP3   OH254163   2.741   2.569  14.205  0.0340  0.5707 -0.4844
10891TIP3    H154164   2.761   2.651  14.250 -0.2279  1.9452 -2.6929
10891TIP3    H254165   2.672   2.593  14.143 -0.5760 -1.5181 -0.6807
10892TIP3   OH254166   4.381   4.080  12.907 -0.2545  0.0953 -0.3221
10892TIP3    H154167   4.396   4.017  12.976 -0.7988  0.3975  0.0823
10892TIP3    H254168   4.356   4.027  12.831  0.4179 -0.2379 -0.3120
10893TIP3   OH254169   1.099   0.866  14.142  0.3750  0.9166 -0.0884
10893TIP3    H154170   1.025   0.921  14.167 -0.4757 -0.7757  1.3982
10893TIP3    H254171   1.175   0.924  14.146 -0.4673  1.9857  1.5058
10894TIP3   OH254172   3.448   0.124   0.029 -0.0360 -0.0220 -0.1300
10894TIP3    H154173   3.397   0.137   0.108  0.3120  0.7957 -0.0323
10894TIP3    H254174   3.512   0.057   0.054  1.4281  1.6844  0.9668
10895TIP3   OH254175   6.703   3.206  11.788  0.1800  0.1089  0.1744
10895TIP3    H154176   6.780   3.179  11.738  0.3507 -2.2560  1.5779
10895TIP3    H254177   6.649   3.254  11.725  1.3885 -0.8313 -1.6646
10896TIP3   OH254178   0.806   0.223   0.405 -0.0889  0.1687  0.2946
10896TIP3    H154179   0.876   0.262   0.458  0.0467  0.2129  0.0875
10896TIP3    H254180   0.852   0.181   0.332 -0.2650  0.0110  0.2731
10897TIP3   OH254181   5.374   3.057   4.221 -0.0430  0.9030  0.3016
10897TIP3    H154182   5.417   2.976   4.193  0.4732  1.1653  0.3360
10897TIP3    H254183   5.292   3.027   4.260 -0.1718  0.4420 -0.2996
10898TIP3   OH254184   2.291   4.453  16.533  0.0678 -0.1548 -0.2803
10898TIP3    H154185   2.225   4.384  16.531  0.0307 -0.1512  0.4805
10898TIP3    H254186   2.358   4.425  16.470  0.3220 -1.1563  0.4096
10899TIP3   OH254187   3.070   2.817  11.682  0.1930  0.1890  0.2077
10899TIP3    H154188   3.059   2.903  11.642 -0.2252  0.2976  0.5365
10899TIP3    H254189   3.153   2.823  11.729 -0.7415  1.0952  1.8469
10900TIP3   OH254190   2.845   6.711   3.805  0.1352 -0.0203  0.0448
10900TIP3    H154191   2.835   6.787   3.862  2.1325  0.8833 -0.7191
10900TIP3    H254192   2.779   6.724   3.737  0.5062  1.0888 -0.1239
10901TIP3   OH254193   2.966   5.003   3.651  0.2573 -0.4711 -0.5983
10901TIP3    H154194   2.952   5.085   3.698 -0.3668 -0.9365  0.0336
10901TIP3    H254195   3.061   4.999   3.639  0.2682  0.5330 -0.9973
10902TIP3   OH254196   4.179   0.652   4.462 -0.3557 -0.5653 -0.0877
10902TIP3    H154197   4.098   0.614   4.495 -0.0334  0.0599  1.5134
10902TIP3    H254198   4.246   0.624   4.524  0.4601 -0.1580 -0.7655
10903TIP3   OH254199   4.170   1.311  10.490 -0.0553  0.1246  0.1470
10903TIP3    H154200   4.176   1.342  10.400  0.6097  2.1532  0.8440
10903TIP3    H254201   4.079   1.283  10.499 -0.0690 -0.3484 -1.2098
10904TIP3   OH254202   6.086   5.809  12.632  0.0832 -0.3534 -0.3652
10904TIP3    H154203   6.101   5.767  12.717  1.1987 -0.1983 -0.4783
10904TIP3    H254204   6.119   5.746  12.568 -1.5180 -0.8423 -0.7628
10905TIP3   OH254205   3.555   2.843  16.132  0.6916  0.3386  0.2495
10905TIP3    H154206   3.620   2.892  16.182  2.6475 -1.7298 -0.0717
10905TIP3    H254207   3.493   2.812  16.198  1.7178 -0.1002  1.0418
10906TIP3   OH254208   0.732   5.080   4.909  0.5773  0.2444  0.2356
10906TIP3    H154209   0.645   5.041   4.904  0.6855  0.0484 -0.1882
10906TIP3    H254210   0.769   5.068   4.821  0.7419  1.0002  0.1897
10907TIP3   OH254211   5.159   3.331  15.644 -0.2008  0.2197 -0.0794
10907TIP3    H154212   5.164   3.401  15.709 -0.4650 -1.1288  1.4412
10907TIP3    H254213   5.072   3.294  15.654 -0.2399 -0.0346 -1.2018
10908TIP3   OH254214   5.487   6.821   5.616  0.1248  0.0663  0.3369
10908TIP3    H154215   5.543   6.897   5.627  0.0496  0.1672  0.0240
10908TIP3    H254216   5.515   6.760   5.684 -0.2739  0.6450  1.0381
10909TIP3   OH254217   2.329   1.106  15.209 -0.4315  0.3660  0.0809
10909TIP3    H154218   2.395   1.039  15.229 -1.8752 -0.9940  0.4866
10909TIP3    H254219   2.287   1.124  15.292  0.1266  2.0629  0.0388
10910TIP3   OH254220   1.624   0.680   0.272 -0.9668 -0.5848 -0.6382
10910TIP3    H154221   1.602   0.711   0.360 -0.9308  0.0042 -0.8326
10910TIP3    H254222   1.672   0.599   0.286  0.3712  0.2731 -0.0448
10911TIP3   OH254223   3.472   2.139   3.091  0.3738 -0.0463 -0.3662
10911TIP3    H154224   3.550   2.173   3.135 -0.2664  0.5705  0.3314
10911TIP3    H254225   3.469   2.185   3.008  0.1132  0.8248  0.1143
10912TIP3   OH254226   2.031   0.851  12.788 -0.1899 -0.4885 -0.2563
10912TIP3    H154227   1.975   0.886  12.719 -0.1128  1.0581  0.4089
10912TIP3    H254228   2.076   0.777  12.748 -0.7511 -0.1231 -1.6072
10913TIP3   OH254229   0.910   1.719  10.871  0.1524 -0.1436  0.4491
10913TIP3    H154230   0.974   1.790  10.874  0.3787 -0.4003  2.5849
10913TIP3    H254231   0.825   1.763  10.877  0.3299 -0.0593  3.6952
10914TIP3   OH254232   6.384   2.284   2.469  0.3737  0.4068 -0.1759
10914TIP3    H154233   6.461   2.252   2.516  0.9837  2.0963  0.0137
10914TIP3    H254234   6.410   2.285   2.377  0.8726  1.7495 -0.0292
10915TIP3   OH254235   2.786   2.014  12.433  0.3532 -1.0594 -0.1680
10915TIP3    H154236   2.865   2.037  12.483  0.3641 -0.0041 -0.6501
10915TIP3    H254237   2.757   1.931  12.471  0.8998 -0.7506  0.9611
10916TIP3   OH254238   1.209   4.342   0.753  0.3212 -0.1280 -0.6462
10916TIP3    H154239   1.246   4.256   0.772 -0.6542 -0.5845 -0.7991
10916TIP3    H254240   1.206   4.346   0.657  0.0249 -0.0629 -0.6329
10917TIP3   OH254241   2.221   6.451  16.033  0.2269 -0.0329  0.3029
10917TIP3    H154242   2.231   6.409  15.948  2.0737  2.7192 -0.9729
10917TIP3    H254243   2.126   6.460  16.044 -0.2156 -3.2206  0.1284
10918TIP3   OH254244   1.181   1.868   3.237 -0.1102  0.2541  0.3348
10918TIP3    H154245   1.267   1.842   3.272  1.8314  3.5117 -1.5796
10918TIP3    H254246   1.162   1.951   3.280 -0.5543  1.2991 -1.7654
10919TIP3   OH254247   4.820   2.581  11.839 -0.4184  0.1394 -0.3010
10919TIP3    H154248   4.860   2.516  11.782 -1.5018  0.8733 -1.9667
10919TIP3    H254249   4.894   2.635  11.870  0.2603 -0.7094 -0.4213
10920TIP3   OH254250   1.091   1.895   4.941 -0.4621  0.3061  0.1082
10920TIP3    H154251   1.079   1.831   4.871 -2.6607 -0.5137  1.1386
10920TIP3    H254252   1.118   1.975   4.896 -1.8125 -0.1828 -1.6987
10921TIP3   OH254253   5.035   5.236  14.306 -0.5706  0.4881 -0.0426
10921TIP3    H154254   5.020   5.226  14.212  1.1531 -0.8940 -0.2145
10921TIP3    H254255   5.129   5.250  14.314 -0.9893  3.2283  1.3398
10922TIP3   OH254256   2.003   4.983   3.552 -0.1325 -0.3621  0.2046
10922TIP3    H154257   2.048   4.995   3.468  1.1414 -0.4515  0.8600
10922TIP3    H254258   1.951   5.063   3.562  0.2431 -0.0397 -0.3436
10923TIP3   OH254259   0.511   3.040  12.189 -0.0703  1.0314  0.3591
10923TIP3    H154260   0.594   3.023  12.235 -0.1380  0.9917  0.4668
10923TIP3    H254261   0.538   3.062  12.100  0.1867  2.7683  0.8246
10924TIP3   OH254262   0.684   3.728  12.078  0.8085  0.2946 -0.2072
10924TIP3    H154263   0.747   3.727  12.006 -0.8812 -2.7895 -1.8775
10924TIP3    H254264   0.717   3.663  12.139  0.1185 -0.1310 -0.2818
10925TIP3   OH254265   4.537   1.153  16.004  0.2853  0.6685  0.2534
10925TIP3    H154266   4.472   1.082  16.009  0.4408  0.4888 -0.2232
10925TIP3    H254267   4.507   1.217  16.068 -0.7959  0.9354 -0.4895
10926TIP3   OH254268   2.705   2.644  10.382  0.0672 -0.2876 -0.3053
10926TIP3    H154269   2.749   2.575  10.333  1.2939 -0.0184  0.3791
10926TIP3    H254270   2.636   2.598  10.430  0.5355 -0.9693 -0.2624
10927TIP3   OH254271   0.193   4.154  11.504 -0.3405  0.0809  0.4021
10927TIP3    H154272   0.142   4.158  11.423  0.7016 -2.2922 -0.4818
10927TIP3    H254273   0.257   4.224  11.496 -0.2134 -0.1605 -0.9064
10928TIP3   OH254274   0.235   5.896  15.944  0.4753 -0.3144  0.0864
10928TIP3    H154275   0.263   5.916  15.855  1.0663 -1.1930  0.0683
10928TIP3    H254276   0.309   5.922  15.999  0.0272  0.4339  0.3497
10929TIP3   OH254277   5.038   2.493  15.267  0.5592 -0.9712 -0.4383
10929TIP3    H154278   4.959   2.511  15.215  1.0747 -1.8816 -1.5729
10929TIP3    H254279   5.005   2.447  15.345 -0.1860  0.0959 -0.1031
10930TIP3   OH254280   5.939   0.126  16.536  0.5410  0.9377  0.0881
10930TIP3    H154281   6.029   0.150  16.556  1.3804 -0.4165 -1.7664
10930TIP3    H254282   5.913   0.188  16.467  1.3498 -0.7752 -1.8817
10931TIP3   OH254283   1.807   6.483   5.493  0.2975 -0.6033  0.1913
10931TIP3    H154284   1.748   6.514   5.424 -0.3798 -0.5911  0.7701
10931TIP3    H254285   1.765   6.509   5.575  1.7958  0.7019  0.6127
10932TIP3   OH254286   3.111   6.262   5.762  0.4398 -0.0196 -0.3138
10932TIP3    H154287   3.118   6.231   5.672  0.8829 -1.3277  0.1372
10932TIP3    H254288   3.017   6.269   5.778  0.3558  1.4830 -1.2524
10933TIP3   OH254289   3.172   5.566  10.945  0.2928 -0.0397  0.0650
10933TIP3    H154290   3.120   5.646  10.957 -0.4284 -0.6626  1.3396
10933TIP3    H254291   3.262   5.593  10.962 -0.3541 -0.3937  5.9456
10934TIP3   OH254292   0.796   1.537  11.344  1.0243  0.0028 -0.2228
10934TIP3    H154293   0.723   1.504  11.291  1.4206 -1.4451  0.0964
10934TIP3    H254294   0.775   1.629  11.359  0.4657  0.2298 -2.1414
10935TIP3   OH254295   1.194   3.435   4.275  0.7833  0.1548  0.8319
10935TIP3    H154296   1.265   3.452   4.337  0.1462  2.4133  1.0536
10935TIP3    H254297   1.142   3.516   4.277 -2.1718 -1.6141  1.1811
10936TIP3   OH254298   4.599   5.130  10.659  0.3993  0.7611 -0.2336
10936TIP3    H154299   4.541   5.189  10.611  0.8494  0.7211 -0.8283
10936TIP3    H254300   4.632   5.069  10.594 -1.0939 -1.0306  0.5792
10937TIP3   OH254301   6.443   3.245   0.920 -0.1922  0.2792  0.0446
10937TIP3    H154302   6.438   3.285   1.007  1.2278  0.7370 -0.0453
10937TIP3    H254303   6.432   3.151   0.935  2.6521  0.0113  1.1424
10938TIP3   OH254304   4.031   5.472   4.913  0.3075 -0.4608  0.2598
10938TIP3    H154305   3.994   5.461   5.000 -0.4320 -1.6047 -0.1712
10938TIP3    H254306   3.984   5.547   4.876 -0.6727 -1.0885  0.2027
10939TIP3   OH254307   0.530   1.421   0.208  0.4790  0.0564 -0.1101
10939TIP3    H154308   0.455   1.374   0.244  0.6753  0.9834  1.6733
10939TIP3    H254309   0.606   1.384   0.254  1.1215 -0.6917 -1.7023
10940TIP3   OH254310   5.732   1.190   3.130 -0.1104 -0.0964 -0.0689
10940TIP3    H154311   5.638   1.183   3.146 -0.5102  1.7010 -1.3094
10940TIP3    H254312   5.755   1.110   3.083 -0.7041 -1.2106  1.4778
10941TIP3   OH254313   2.875   0.139   2.945 -0.5889  0.2481 -0.2560
10941TIP3    H154314   2.935   0.068   2.969 -1.7688 -0.8296 -0.3872
10941TIP3    H254315   2.790   0.111   2.979 -1.2473  1.1987 -1.0654
10942TIP3   OH254316   5.717   6.082   4.991 -0.3927 -0.0450 -0.1336
10942TIP3    H154317   5.792   6.037   4.951 -0.9790 -0.7894 -0.4067
10942TIP3    H254318   5.718   6.054   5.083  0.2501  0.7393  0.1142
10943TIP3   OH254319   2.974   1.305  16.909 -0.4936 -0.4288  0.9016
10943TIP3    H154320   2.916   1.297  16.985  0.4607  0.4802  1.7511
10943TIP3    H254321   2.917   1.338  16.840 -1.0700  0.1602  1.6352
10944TIP3   OH254322   1.696   5.690  12.129  0.0204  0.2801 -0.9702
10944TIP3    H154323   1.656   5.672  12.044 -1.1219  0.6120 -0.5280
10944TIP3    H254324   1.659   5.623  12.187  0.5646  0.2328 -0.6714
10945TIP3   OH254325   6.256   1.184   4.320  0.6122  0.0782 -0.3976
10945TIP3    H154326   6.325   1.167   4.256 -0.8252  0.5564 -2.1213
10945TIP3    H254327   6.230   1.275   4.305 -1.2404 -0.4552 -0.6434
10946TIP3   OH254328   0.978   0.533  15.494 -0.3737  0.3702 -0.1139
10946TIP3    H154329   0.962   0.539  15.588 -1.0913  0.6886 -0.2453
10946TIP3    H254330   0.890   0.540  15.454 -0.0079  0.9988 -0.8341
10947TIP3   OH254331   3.198   5.223  15.895  0.0345 -0.4512  0.9092
10947TIP3    H154332   3.106   5.201  15.910 -0.4410  0.8261  0.0722
10947TIP3    H254333   3.207   5.312  15.929  0.2254  0.5177 -1.4849
10948TIP3   OH254334   4.673   1.587  14.737  0.2418  0.8680 -0.5063
10948TIP3    H154335   4.640   1.539  14.814 -0.8695  0.8812 -0.9517
10948TIP3    H254336   4.668   1.523  14.666  1.0894  0.9141 -0.6104
10949TIP3   OH254337   5.094   3.163  15.283 -0.3101  0.4524 -0.1178
10949TIP3    H154338   5.188   3.144  15.287 -0.3243  0.2970 -0.4442
10949TIP3    H254339   5.073   3.198  15.369  0.6727  3.4647 -0.9927
10950TIP3   OH254340   4.141   1.630   5.432 -0.6383  0.5334 -0.8820
10950TIP3    H154341   4.199   1.678   5.374  0.9333  0.6642  0.7094
10950TIP3    H254342   4.174   1.540   5.431  0.5910  0.8944  1.1182
10951TIP3   OH254343   3.581   4.954   4.173  0.3150 -0.2334 -0.3989
10951TIP3    H154344   3.533   4.894   4.231  1.0171  0.5719  1.0884
10951TIP3    H254345   3.630   4.897   4.115  0.0138 -1.0960  0.1683
10952TIP3   OH254346   4.464   2.052  13.523 -0.4863 -0.2760  0.0618
10952TIP3    H154347   4.506   2.053  13.609 -0.6944  1.5851  0.1985
10952TIP3    H254348   4.508   2.122  13.475 -2.3022  0.6604 -0.3327
10953TIP3   OH254349   2.870   2.845   0.749 -0.2998  0.0140 -0.1274
10953TIP3    H154350   2.894   2.905   0.820 -1.3488 -1.5444  1.6388
10953TIP3    H254351   2.954   2.812   0.716  0.2096 -0.9972  2.0083
10954TIP3   OH254352   3.710   1.614  15.921  0.0823 -0.0369 -0.5452
10954TIP3    H154353   3.667   1.664  15.852  0.9135 -0.0214 -1.0639
10954TIP3    H254354   3.769   1.676  15.963  0.3023 -0.2965 -0.4630
10955TIP3   OH254355   2.019   6.444  11.006  0.0560 -0.4057  0.0107
10955TIP3    H154356   1.956   6.394  10.954 -0.1910 -0.6939  0.5784
10955TIP3    H254357   1.967   6.518  11.039 -0.1335 -0.9378  0.9289
10956TIP3   OH254358   0.872   2.554  11.883  0.1263  0.2542  0.1250
10956TIP3    H154359   0.965   2.573  11.899  0.1999  0.7774 -0.8333
10956TIP3    H254360   0.853   2.597  11.800 -0.8876 -0.1638  0.1270
10957TIP3   OH254361   0.846   1.455  14.682  0.2263 -0.2408  0.1203
10957TIP3    H154362   0.796   1.431  14.760  0.9534  0.6895  0.8994
10957TIP3    H254363   0.831   1.549  14.671 -0.9377 -0.5778 -1.6780
10958TIP3   OH254364   1.666   0.556  12.906  0.6803  0.1275 -0.6857
10958TIP3    H154365   1.618   0.592  12.831  0.5778 -0.3481 -0.8544
10958TIP3    H254366   1.652   0.620  12.976  1.8141  1.2054 -1.4123
10959TIP3   OH254367   0.843   0.536  16.116  0.7962  0.1327 -0.1924
10959TIP3    H154368   0.935   0.518  16.135  0.7062 -1.8024 -1.2811
10959TIP3    H254369   0.800   0.450  16.122 -0.8279  0.8986 -0.2905
10960TIP3   OH254370   0.731   3.463  13.331  0.1045 -0.0346 -0.1446
10960TIP3    H154371   0.739   3.475  13.237 -0.9097  0.9722 -0.1290
10960TIP3    H254372   0.682   3.382  13.342  1.6469 -1.0573 -0.4147
10961TIP3   OH254373   6.503   1.593   6.502 -0.2707 -0.6602  0.3165
10961TIP3    H154374   6.534   1.654   6.569  1.2779 -0.0274 -0.9204
10961TIP3    H254375   6.512   1.641   6.420 -2.3397 -1.3374 -0.3687
10962TIP3   OH254376   2.927   4.785  13.283 -0.1132 -0.3852 -0.5723
10962TIP3    H154377   3.015   4.748  13.283 -0.2717 -0.7758 -0.4707
10962TIP3    H254378   2.891   4.760  13.368 -0.1354  0.2332 -0.3964
10963TIP3   OH254379   2.570   0.528  13.340  0.1522 -0.2744  0.7182
10963TIP3    H154380   2.553   0.577  13.260  1.7516 -0.8722 -0.0426
10963TIP3    H254381   2.486   0.490  13.364 -0.4798  0.4144 -0.3386
10964TIP3   OH254382   6.714   3.209   0.928 -0.2390 -0.1835  0.1696
10964TIP3    H154383   6.724   3.224   1.022  0.3028 -0.5074  0.1676
10964TIP3    H254384   6.619   3.205   0.915 -0.3377  0.6041  0.5775
10965TIP3   OH254385   5.255   4.929   2.345 -0.3595 -0.2647  0.0829
10965TIP3    H154386   5.228   4.853   2.294  1.9528 -2.1537  1.4797
10965TIP3    H254387   5.191   4.933   2.417 -1.0686 -0.2550 -0.5346
10966TIP3   OH254388   5.875   1.581  11.809  0.0292  0.2642 -0.2367
10966TIP3    H154389   5.957   1.628  11.826  0.1008  0.6776 -1.6120
10966TIP3    H254390   5.898   1.519  11.739 -0.2187 -1.4236  1.0918
10967TIP3   OH254391   4.540   1.648   0.768  0.8331  0.5805  0.3369
10967TIP3    H154392   4.484   1.702   0.824  2.5363  0.4726  2.2850
10967TIP3    H254393   4.550   1.566   0.817  2.6779  0.6080  0.0861
10968TIP3   OH254394   0.227   4.609   2.277 -0.2097  0.5735 -0.7854
10968TIP3    H154395   0.152   4.663   2.252  0.2278  1.0331 -1.1199
10968TIP3    H254396   0.214   4.591   2.370 -0.8831  0.4098 -0.9046
10969TIP3   OH254397   3.087   5.762  13.193  0.1665 -0.0465 -0.1360
10969TIP3    H154398   3.130   5.807  13.266 -1.6641 -2.6318  2.7588
10969TIP3    H254399   3.133   5.678  13.186 -0.9338 -0.6274 -0.6401
10970TIP3   OH254400   1.480   6.050   3.698 -0.2133 -0.0932 -0.2928
10970TIP3    H154401   1.493   5.970   3.749 -0.3058 -1.2145 -1.9212
10970TIP3    H254402   1.539   6.114   3.737  1.9749 -1.7713 -0.6443
10971TIP3   OH254403   4.867   4.044   2.752  0.5322 -0.4162  0.6298
10971TIP3    H154404   4.917   4.025   2.831  0.6885  1.5038  1.0578
10971TIP3    H254405   4.776   4.043   2.780  0.6014  0.5332  0.9247
10972TIP3   OH254406   4.119   6.608   0.482 -0.0336 -0.0034  0.2674
10972TIP3    H154407   4.072   6.639   0.560 -1.2218 -1.8628  0.3453
10972TIP3    H254408   4.173   6.536   0.514 -0.0201 -0.3430 -0.4987
10973TIP3   OH254409   5.774   3.270  15.272  0.5818 -0.0773  0.2871
10973TIP3    H154410   5.804   3.214  15.344  0.2276  0.9577  1.2857
10973TIP3    H254411   5.706   3.325  15.312  0.0885  0.2418 -0.9553
10974TIP3   OH254412   4.919   1.154   1.877  0.2375  0.4307  0.7876
10974TIP3    H154413   5.014   1.147   1.867  0.0569 -0.8828 -0.2031
10974TIP3    H254414   4.883   1.091   1.815 -1.2932  0.8005  1.2504
10975TIP3   OH254415   6.541   5.637  10.457 -0.6199 -0.0670 -0.0123
10975TIP3    H154416   6.595   5.662  10.531 -2.8090  0.1627  1.5894
10975TIP3    H254417   6.539   5.542  10.460 -2.7033 -0.0300  1.8294
10976TIP3   OH254418   1.656   0.412   2.933 -0.5474  1.0595 -1.6884
10976TIP3    H154419   1.576   0.359   2.934 -0.2757  0.6471  0.0012
10976TIP3    H254420   1.630   0.494   2.976  0.4216  0.1381  0.7715
10977TIP3   OH254421   3.988   2.254   0.211 -0.8763  0.1469  0.2645
10977TIP3    H154422   3.997   2.266   0.117  0.6752  2.5024  0.6247
10977TIP3    H254423   3.896   2.268   0.229 -1.6888 -2.6548 -1.0859
10978TIP3   OH254424   2.535   4.918  16.056 -0.4073 -0.4009  0.3696
10978TIP3    H154425   2.557   4.997  16.006  0.0702  1.5200  3.4130
10978TIP3    H254426   2.455   4.885  16.013  0.6200  0.3452 -2.3717
10979TIP3   OH254427   5.495   1.620   0.624  0.0398  0.4316 -0.3884
10979TIP3    H154428   5.467   1.529   0.635  0.9258 -0.0028 -1.5041
10979TIP3    H254429   5.574   1.628   0.676  1.9066 -0.4617 -2.8931
10980TIP3   OH254430   4.805   2.977  13.822  0.1121 -0.4719  0.8258
10980TIP3    H154431   4.887   2.942  13.859 -0.8617 -2.1837  1.4957
10980TIP3    H254432   4.781   3.048  13.881  2.2910  1.7166 -0.7222
10981TIP3   OH254433   1.914   2.486   3.991 -0.0226  0.5856  0.0759
10981TIP3    H154434   1.926   2.580   3.989  1.0695  0.5944  2.6782
10981TIP3    H254435   1.998   2.449   3.964  0.6119  0.4557  2.0607
10982TIP3   OH254436   5.183   2.460  16.936  0.3246  0.2646 -0.4209
10982TIP3    H154437   5.248   2.421  16.878  0.1591  0.3280 -0.6498
10982TIP3    H254438   5.221   2.451  17.024  0.9315  0.8665 -0.6129
10983TIP3   OH254439   0.086   3.226   4.422  0.2708 -0.1582 -0.0011
10983TIP3    H154440   0.014   3.215   4.483  0.9775 -0.5823  0.7854
10983TIP3    H254441   0.116   3.316   4.435 -0.7698  0.3761 -1.0941
10984TIP3   OH254442   0.567   0.085   1.299 -0.5795  0.2083 -0.1121
10984TIP3    H154443   0.513   0.099   1.376  0.0807  1.1790  0.1955
10984TIP3    H254444   0.505   0.061   1.230 -1.0306 -2.4345  1.0789
10985TIP3   OH254445   1.503   2.376   3.286 -0.4704 -0.3680 -0.4821
10985TIP3    H154446   1.586   2.419   3.267  0.2460 -2.0827 -1.4775
10985TIP3    H254447   1.466   2.426   3.359  1.6579  0.1403  0.3022
10986TIP3   OH254448   6.110   6.730  13.005 -0.6634  0.8694 -0.0870
10986TIP3    H154449   6.097   6.794  13.075 -1.9931  0.3292  0.1940
10986TIP3    H254450   6.106   6.645  13.049 -0.1732  0.5538 -0.6384
10987TIP3   OH254451   4.214   4.473   2.103  0.8476 -1.2072 -0.0436
10987TIP3    H154452   4.295   4.500   2.058 -0.5831 -0.7857 -2.5790
10987TIP3    H254453   4.152   4.543   2.082 -0.5684 -2.2536  0.6026
10988TIP3   OH254454   4.995   3.641   0.071  0.2941  0.3031 -0.0496
10988TIP3    H154455   5.068   3.703   0.077 -0.0580  0.6188  1.3417
10988TIP3    H254456   4.938   3.677   0.003  2.1949 -0.8208 -2.4161
10989TIP3   OH254457   2.025   2.906  12.622  0.0482 -0.1659  0.0146
10989TIP3    H154458   2.056   2.958  12.696 -1.5941  0.6077  0.2029
10989TIP3    H254459   2.002   2.971  12.556 -2.9446 -0.5248  0.5998
10990TIP3   OH254460   1.152   3.305  15.017 -0.1596 -0.2178 -0.0876
10990TIP3    H154461   1.178   3.323  15.108 -2.1513 -2.3058  1.0121
10990TIP3    H254462   1.210   3.359  14.964  0.5949  1.6469  2.4481
10991TIP3   OH254463   5.612   0.828  13.513 -0.6850 -0.0712  0.0279
10991TIP3    H154464   5.568   0.841  13.430  1.6621  0.4775 -1.2155
10991TIP3    H254465   5.670   0.753  13.498 -0.9083 -0.5703  1.4911
10992TIP3   OH254466   6.560   2.581  14.291  0.2610  0.2330  0.1054
10992TIP3    H154467   6.652   2.576  14.317  0.1141  0.5248  0.6789
10992TIP3    H254468   6.558   2.542  14.203  0.8756 -0.0803  0.2270
10993TIP3   OH254469   5.747   5.525  16.002  0.1339 -0.2768  0.0358
10993TIP3    H154470   5.666   5.500  16.047 -1.3994 -0.9480 -2.8624
10993TIP3    H254471   5.767   5.612  16.035 -1.6752 -0.1685  0.9651
10994TIP3   OH254472   3.664   2.754  13.781 -0.6970  0.0473 -0.3283
10994TIP3    H154473   3.740   2.710  13.820  0.2985  2.1906  0.3109
10994TIP3    H254474   3.598   2.754  13.851  0.0356  1.2967  0.4007
10995TIP3   OH254475   4.588   1.882  16.228 -0.4235 -0.0385 -0.2161
10995TIP3    H154476   4.519   1.921  16.175 -0.5851  1.1842  0.8351
10995TIP3    H254477   4.654   1.951  16.234  0.0552 -0.5429  0.2898
10996TIP3   OH254478   6.608   2.936  16.939 -0.6871  0.4515 -0.4256
10996TIP3    H154479   6.543   2.961  17.005  0.8086  2.1146  0.5105
10996TIP3    H254480   6.682   2.904  16.990  0.8675  2.6420 -1.1952
10997TIP3   OH254481   6.116   5.406  16.106 -0.3678 -0.0976 -0.3479
10997TIP3    H154482   6.172   5.342  16.149  0.7467  0.2895 -1.1641
10997TIP3    H254483   6.046   5.423  16.168  0.6550 -0.2957  0.8961
10998TIP3   OH254484   5.728   6.603   1.170  0.0727 -0.1599 -0.0574
10998TIP3    H154485   5.657   6.558   1.125 -0.9541  0.5161  0.8612
10998TIP3    H254486   5.796   6.536   1.179 -1.0697 -1.2894  0.4852
10999TIP3   OH254487   5.621   1.952   1.542 -0.0896  0.7764 -0.1511
10999TIP3    H154488   5.678   1.876   1.536 -1.0588  0.0776 -0.6051
10999TIP3    H254489   5.661   2.006   1.611  0.1893 -0.4795  0.6894
11000TIP3   OH254490   5.611   1.963   5.238 -0.3361  0.2393  0.8247
11000TIP3    H154491   5.578   2.046   5.205  0.2188  0.0655 -0.1993
11000TIP3    H254492   5.664   1.986   5.315  2.2924  1.1946 -1.1305
11001TIP3   OH254493   4.012   0.410   1.184  0.0550  0.3491  0.2251
11001TIP3    H154494   4.040   0.452   1.266  2.5597 -0.3431 -0.1761
11001TIP3    H254495   4.045   0.469   1.115 -0.9777  0.3203 -0.3086
11002TIP3   OH254496   3.367   6.633  15.365  0.2024  0.0528 -0.9415
11002TIP3    H154497   3.364   6.718  15.409  0.4089 -0.8330  0.8706
11002TIP3    H254498   3.285   6.591  15.389  0.9268 -0.9918 -0.2266
11003TIP3   OH254499   4.992   3.307  13.100 -0.6634  0.1576 -0.0551
11003TIP3    H154500   4.919   3.359  13.133 -1.2956 -0.4741 -0.4364
11003TIP3    H254501   5.017   3.251  13.173 -1.1776 -0.2880 -0.2176
11004TIP3   OH254502   6.826   0.974   5.786  0.6201  0.0930  0.1335
11004TIP3    H154503   6.834   0.947   5.695 -1.4013  0.9957 -0.3512
11004TIP3    H254504   6.734   0.956   5.809  0.8710  0.6497  1.7388
11005TIP3   OH254505   6.285   3.979  14.557  0.0144 -0.4114 -0.1119
11005TIP3    H154506   6.334   3.935  14.488 -1.2482  0.8214 -1.9096
11005TIP3    H254507   6.240   3.908  14.603  0.1260 -1.2139 -1.1908
11006TIP3   OH254508   4.111   6.707   4.545 -0.0618  0.1339 -0.8304
11006TIP3    H154509   4.064   6.785   4.515 -1.7487  0.3230  2.0000
11006TIP3    H254510   4.103   6.645   4.472 -1.7902  1.3775 -1.7670
11007TIP3   OH254511   2.877   2.475  11.769  0.5104 -0.2819 -0.5515
11007TIP3    H154512   2.929   2.394  11.773  1.2053  0.1244 -1.0697
11007TIP3    H254513   2.811   2.457  11.702 -0.8366 -1.2441  0.9673
11008TIP3   OH254514   0.565   0.805   2.309  0.1424 -0.0542  0.1900
11008TIP3    H154515   0.637   0.864   2.286 -0.3641  0.7519  0.5957
11008TIP3    H254516   0.494   0.829   2.249 -0.2346  0.0996  0.6897
11009TIP3   OH254517   5.581   6.000   4.026  0.6116  0.5962 -0.4984
11009TIP3    H154518   5.635   5.962   4.096 -0.2902  0.3727  0.0942
11009TIP3    H254519   5.521   5.929   4.001  0.2715  0.9873 -0.8036
11010TIP3   OH254520   0.173   6.039  11.285 -0.5988 -0.0802  0.7631
11010TIP3    H154521   0.224   6.120  11.295 -1.9661  0.8217  0.6264
11010TIP3    H254522   0.154   6.033  11.192  2.1173 -2.2667  0.2135
11011TIP3   OH254523   3.904   5.833   3.720  0.1523 -0.1856 -0.2057
11011TIP3    H154524   3.927   5.744   3.746 -0.7295 -0.0461  1.1320
11011TIP3    H254525   3.911   5.884   3.801  2.1436  1.3017 -1.2344
11012TIP3   OH254526   4.990   6.642   3.640  0.0421  0.1333 -0.2138
11012TIP3    H154527   5.052   6.691   3.586  0.8533 -0.5922  0.0349
11012TIP3    H254528   5.019   6.551   3.633 -0.9649 -0.2151 -0.0419
11013TIP3   OH254529   2.892   3.841   4.804 -0.3872  0.1887 -0.1237
11013TIP3    H154530   2.829   3.781   4.843  0.0345 -1.2667 -1.6104
11013TIP3    H254531   2.896   3.817   4.712  1.1107  1.3365 -0.4106
11014TIP3   OH254532   0.723   1.335  15.511  0.2991 -0.0871 -0.2512
11014TIP3    H154533   0.735   1.427  15.535  2.6556 -0.6006  0.8582
11014TIP3    H254534   0.757   1.329  15.422  2.4418 -0.2604  0.5181
11015TIP3   OH254535   4.926   3.203  12.196  0.0485  0.3174  0.0487
11015TIP3    H154536   4.896   3.190  12.106 -1.1153 -0.6658  0.5511
11015TIP3    H254537   4.979   3.126  12.215  1.4395  1.1744 -0.2203
11016TIP3   OH254538   1.849   6.642  11.113 -0.2487 -0.0818 -0.0217
11016TIP3    H154539   1.761   6.678  11.105  0.0238  0.3975 -1.0675
11016TIP3    H254540   1.903   6.697  11.056  0.4094 -1.3878 -0.7237
11017TIP3   OH254541   3.180   5.425  12.883  0.5045  0.3141 -0.1259
11017TIP3    H154542   3.089   5.444  12.908  0.2233 -0.9273 -0.1446
11017TIP3    H254543   3.206   5.500  12.831 -1.0372  0.0178 -1.4101
11018TIP3   OH254544   4.501   1.046  12.947 -0.2898 -0.1225  0.2338
11018TIP3    H154545   4.573   1.043  12.883 -1.0491  0.6001 -0.6829
11018TIP3    H254546   4.425   1.016  12.898 -0.8026  0.0321  0.9318
11019TIP3   OH254547   1.420   3.748   5.579  0.5034 -0.3220 -0.0785
11019TIP3    H154548   1.472   3.675   5.545 -1.5462 -0.4843 -3.3384
11019TIP3    H254549   1.338   3.707   5.606  0.6586  0.3756  1.5160
11020TIP3   OH254550   1.007   4.987  14.618 -0.1831  0.1598  0.1939
11020TIP3    H154551   1.075   4.957  14.557 -0.5083  1.2207 -0.7076
11020TIP3    H254552   0.993   5.078  14.595 -1.7783  0.0137  0.5122
11021TIP3   OH254553   5.135   6.742  14.812  0.3918  0.0395  0.4250
11021TIP3    H154554   5.151   6.786  14.896 -0.4956  0.5957  0.3115
11021TIP3    H254555   5.065   6.679  14.831 -1.0003  1.3418 -0.2561
11022TIP3   OH254556   5.045   1.094  14.515 -0.9468 -0.2202  0.2021
11022TIP3    H154557   5.097   1.018  14.541 -2.8285 -2.0056 -0.9277
11022TIP3    H254558   5.097   1.137  14.447  0.2313 -0.3561  0.9899
11023TIP3   OH254559   6.400   2.261   1.935  0.1141  0.0831 -0.1165
11023TIP3    H154560   6.466   2.330   1.947  0.8985 -0.3936 -1.4853
11023TIP3    H254561   6.451   2.183   1.916 -0.8541 -0.0932 -2.1890
11024TIP3   OH254562   2.200   3.863   6.155 -0.0483  0.5295 -0.2568
11024TIP3    H154563   2.193   3.957   6.143  2.4934  1.3559  3.1730
11024TIP3    H254564   2.153   3.846   6.237 -0.3657 -1.1914 -0.7468
11025TIP3   OH254565   2.758   1.654  12.092  0.3904 -0.2785  0.1537
11025TIP3    H154566   2.728   1.737  12.131  1.2746 -0.7540  1.9452
11025TIP3    H254567   2.708   1.587  12.139  0.2872 -0.8153 -0.7140
11026TIP3   OH254568   6.634   3.703  11.427  0.0166 -0.4137 -0.1026
11026TIP3    H154569   6.556   3.695  11.371  1.2259  3.0650 -2.6682
11026TIP3    H254570   6.700   3.650  11.383  0.5628  1.1656 -1.2828
11027TIP3   OH254571   0.559   4.529  10.863 -0.0529  0.5087  0.2534
11027TIP3    H154572   0.500   4.592  10.822 -2.6088 -1.3208  0.9135
11027TIP3    H254573   0.547   4.449  10.812  2.5407  0.2396 -0.0897
11028TIP3   OH254574   0.810   4.858   2.685  0.1127  0.7709  0.3217
11028TIP3    H154575   0.856   4.853   2.601 -0.2190 -1.8945  0.2265
11028TIP3    H254576   0.813   4.769   2.720 -3.5372  0.8079  1.0804
11029TIP3   OH254577   0.373   6.574  13.638  0.3865  0.3540 -0.1936
11029TIP3    H154578   0.407   6.515  13.570  0.3404  0.5581 -0.3968
11029TIP3    H254579   0.316   6.520  13.691  0.5217  0.1615 -0.2460
11030TIP3   OH254580   2.954   3.600   0.102  0.0034 -0.3751 -0.6210
11030TIP3    H154581   2.866   3.637   0.093  0.0990  0.1725  0.5566
11030TIP3    H254582   2.942   3.523   0.157  0.0834 -1.0622 -1.5396
11031TIP3   OH254583   3.602   4.639  11.292 -0.3943 -0.1248 -0.4581
11031TIP3    H154584   3.600   4.547  11.320  0.6482 -0.4470 -1.3931
11031TIP3    H254585   3.573   4.688  11.370 -0.1875 -1.1787  0.3046
11032TIP3   OH254586   3.887   3.037   5.837  0.1187  0.1040  0.7132
11032TIP3    H154587   3.968   3.003   5.873 -0.7308 -1.3714  1.2834
11032TIP3    H254588   3.818   3.000   5.891 -0.9401  1.7406  0.5696
11033TIP3   OH254589   1.943   5.677   1.124 -0.4557 -0.0289 -0.9813
11033TIP3    H154590   1.936   5.769   1.102 -0.9861  0.3358  0.5539
11033TIP3    H254591   1.852   5.647   1.132 -0.3184 -0.1840  0.3202
11034TIP3   OH254592   5.843   4.356   6.438  0.4044 -0.6615  0.3154
11034TIP3    H154593   5.811   4.268   6.419  4.1226 -2.3891  1.0498
11034TIP3    H254594   5.907   4.374   6.369  0.6761  0.8949  0.9161
11035TIP3   OH254595   6.276   5.611  12.489 -0.1858 -0.3714 -0.2787
11035TIP3    H154596   6.296   5.517  12.489  0.7031 -0.1905  0.5581
11035TIP3    H254597   6.237   5.626  12.403  0.3764 -1.3549 -0.7312
11036TIP3   OH254598   5.802   6.374   7.019  0.3328  0.6579  0.4557
11036TIP3    H154599   5.788   6.394   7.111 -1.5356 -0.0764  0.3711
11036TIP3    H254600   5.747   6.437   6.972 -2.5751 -1.9437  0.0664
11037TIP3   OH254601   0.166   6.237   5.192  0.1427 -0.5308 -0.3591
11037TIP3    H154602   0.096   6.276   5.244  0.2612  0.4210 -0.8948
11037TIP3    H254603   0.137   6.246   5.102  0.1339 -1.7916 -0.5022
11038TIP3   OH254604   5.139   0.113  15.075  0.1499  0.5151  0.1453
11038TIP3    H154605   5.053   0.125  15.117 -0.9228  1.1862 -2.0749
11038TIP3    H254606   5.129   0.155  14.989  2.5262  0.0563 -0.4096
11039TIP3   OH254607   5.713   3.378   2.975  0.6308  0.6473 -0.6379
11039TIP3    H154608   5.746   3.292   3.001 -0.7267  0.5828  1.0897
11039TIP3    H254609   5.624   3.382   3.013  0.7165  2.8531 -0.5175
11040TIP3   OH254610   1.218   5.417  10.630  0.8790 -0.3693 -0.5357
11040TIP3    H154611   1.210   5.344  10.569  3.1760 -0.4710 -0.7988
11040TIP3    H254612   1.186   5.493  10.582 -1.9780 -1.1728 -0.1110
11041TIP3   OH254613   3.466   6.596   1.547 -0.0536  0.5921  0.1122
11041TIP3    H154614   3.535   6.634   1.600  0.9881  1.5822 -1.8355
11041TIP3    H254615   3.486   6.503   1.543  0.6673  0.7336  0.3162
11042TIP3   OH254616   1.959   4.683  15.143 -0.5954  0.4247 -0.6244
11042TIP3    H154617   1.889   4.629  15.107 -0.0576  0.0206 -1.0975
11042TIP3    H254618   1.915   4.761  15.177 -1.3230 -0.0730 -0.4097
11043TIP3   OH254619   2.174   2.494   4.146 -0.1277 -0.1203  0.8755
11043TIP3    H154620   2.170   2.471   4.238 -4.1791 -1.5976  0.5255
11043TIP3    H254621   2.200   2.413   4.102 -0.1235  0.0380  0.5833
11044TIP3   OH254622   2.603   2.047  11.496  0.0850 -0.6049  0.1428
11044TIP3    H154623   2.585   2.016  11.407  0.7443 -0.4273 -0.0538
11044TIP3    H254624   2.552   2.128  11.503 -2.4796 -2.1761  1.0089
11045TIP3   OH254625   6.826   5.234  11.611  0.1794 -0.4781  0.0846
11045TIP3    H154626   6.905   5.263  11.658 -0.3861  1.9886 -0.3597
11045TIP3    H254627   6.795   5.159  11.661  0.5652  0.9973  2.7295
11046TIP3   OH254628   5.627   0.506   4.224 -0.0654  0.5507  0.0241
11046TIP3    H154629   5.706   0.554   4.248  0.3286  0.5255 -1.1772
11046TIP3    H254630   5.604   0.538   4.137  0.1108 -1.2635 -0.7456
11047TIP3   OH254631   4.477   2.594  16.178  0.1623  0.2033 -0.0439
11047TIP3    H154632   4.433   2.677  16.198 -0.1298  0.0120  0.1038
11047TIP3    H254633   4.560   2.598  16.226  0.6393  0.8793 -0.8979
11048TIP3   OH254634   0.544   6.791  10.676 -0.3406  0.2851  0.2703
11048TIP3    H154635   0.568   6.848  10.749 -0.2684  0.1296  0.3673
11048TIP3    H254636   0.563   6.844  10.598 -2.4003  1.2797  0.3552
11049TIP3   OH254637   2.018   5.855  17.048  0.0111  0.2253  0.4810
11049TIP3    H154638   2.104   5.892  17.068 -0.4527  1.0753  0.9796
11049TIP3    H254639   2.012   5.777  17.103  0.6657 -0.1396  0.0516
11050TIP3   OH254640   0.601   5.821   2.187  0.3901 -0.6987  0.2130
11050TIP3    H154641   0.519   5.772   2.194 -1.3843  1.9548 -0.4231
11050TIP3    H254642   0.633   5.803   2.099  0.2557 -1.3928  0.3058
11051TIP3   OH254643   3.480   2.936   3.998 -0.2641  0.3056 -0.0598
11051TIP3    H154644   3.574   2.948   4.008  0.2104 -1.7578 -1.4945
11051TIP3    H254645   3.453   3.005   3.938  0.2975  0.9325  0.3884
11052TIP3   OH254646   5.456   4.726  11.345  0.1144  0.2008 -0.3321
11052TIP3    H154647   5.434   4.740  11.437  1.6749  1.0967 -0.0530
11052TIP3    H254648   5.372   4.713  11.301 -0.7196  0.7109  1.0638
11053TIP3   OH254649   1.354   4.717  17.004  0.2516  0.1777  0.2199
11053TIP3    H154650   1.334   4.763  17.085  1.4673 -0.0524  0.6767
11053TIP3    H254651   1.434   4.667  17.024 -0.1459 -0.8823 -0.7313
11054TIP3   OH254652   6.430   0.570   6.742  0.5358 -0.0216  0.1069
11054TIP3    H154653   6.483   0.607   6.814  1.5425 -2.8282  0.9390
11054TIP3    H254654   6.379   0.501   6.783  0.4398 -1.0927 -1.7143
11055TIP3   OH254655   4.647   3.515   2.159 -0.7582  0.2572 -0.2571
11055TIP3    H154656   4.571   3.505   2.101 -1.0810 -0.0885  0.2146
11055TIP3    H254657   4.623   3.467   2.238 -0.3451  0.7709  0.1879
11056TIP3   OH254658   2.696   0.009   0.575  0.1378 -0.0480 -0.2039
11056TIP3    H154659   2.756   0.083   0.563 -0.5098  0.2910 -1.6357
11056TIP3    H254660   2.725  -0.033   0.656  0.9255  1.3858  0.2960
11057TIP3   OH254661   4.582   2.312   1.730 -0.7009  0.7070  0.5499
11057TIP3    H154662   4.677   2.306   1.715 -0.3969  1.9421  1.7273
11057TIP3    H254663   4.562   2.239   1.788 -0.1808  1.2451  1.4345
11058TIP3   OH254664   4.980   4.287   5.772  0.7335 -0.2751 -0.8809
11058TIP3    H154665   4.891   4.295   5.805  1.6591  1.9809  1.5461
11058TIP3    H254666   4.973   4.306   5.678 -1.4321 -1.3997 -1.0084
11059TIP3   OH254667   4.407   1.264  14.044 -0.0587 -0.2225 -0.1631
11059TIP3    H154668   4.469   1.265  13.971 -1.1177  3.5255 -1.2060
11059TIP3    H254669   4.333   1.211  14.011 -1.1482  2.5288 -2.5746
11060TIP3   OH254670   5.951   4.697  14.069  0.3625  0.1532  0.1215
11060TIP3    H154671   5.991   4.782  14.049 -0.0611 -0.0741 -1.9745
11060TIP3    H254672   6.004   4.635  14.018  0.0160 -0.7055  0.7995
11061TIP3   OH254673   6.509   6.213   5.631  0.3110 -0.5526 -0.2703
11061TIP3    H154674   6.459   6.137   5.658 -0.9634  0.6173  0.8268
11061TIP3    H254675   6.589   6.177   5.592 -0.1021 -2.4135  0.5053
11062TIP3   OH254676   2.165   5.663   3.410 -0.4081 -0.0433  0.3505
11062TIP3    H154677   2.109   5.690   3.483 -0.6691 -0.7913  0.4351
11062TIP3    H254678   2.110   5.673   3.333 -0.1527  0.6862  0.2592
11063TIP3   OH254679   3.238   2.493   0.079 -0.1785  0.2956 -0.7001
11063TIP3    H154680   3.197   2.484  -0.007 -1.5462  3.9078 -0.5750
11063TIP3    H254681   3.194   2.567   0.120  0.5951 -1.0846  3.0850
11064TIP3   OH254682   1.969   6.010  16.130 -0.4401 -0.6801  0.0091
11064TIP3    H154683   1.887   6.054  16.109 -0.0103 -0.7429 -1.9706
11064TIP3    H254684   1.944   5.942  16.193 -1.5302  0.6430  1.0795
11065TIP3   OH254685   2.498   0.729   5.234 -0.4573  0.1003 -0.0562
11065TIP3    H154686   2.562   0.675   5.188  0.8657  0.6561  1.0524
11065TIP3    H254687   2.517   0.715   5.327 -0.4102  2.0321  0.2711
11066TIP3   OH254688   3.898   4.693  14.025  0.3465 -0.2039  0.3119
11066TIP3    H154689   3.932   4.604  14.019 -0.5721 -0.4593 -2.6301
11066TIP3    H254690   3.806   4.683  14.048  0.2119 -0.0484 -0.1399
11067TIP3   OH254691   1.619   2.168  11.933 -0.3723 -0.3380  0.1057
11067TIP3    H154692   1.533   2.208  11.945 -0.3396 -0.5640  1.2198
11067TIP3    H254693   1.600   2.081  11.900 -0.7631 -1.3664  2.7833
11068TIP3   OH254694   2.908   4.740  13.888 -0.3764  0.3464 -0.3558
11068TIP3    H154695   2.945   4.827  13.906 -1.2506  0.6333  0.1215
11068TIP3    H254696   2.813   4.755  13.884 -0.5810 -0.6825  0.3155
11069TIP3   OH254697   6.273   3.015  14.709  0.7337 -0.3449  0.4765
11069TIP3    H154698   6.271   2.920  14.723 -2.1150 -0.4089  0.2189
11069TIP3    H254699   6.235   3.052  14.788 -0.6894  0.3482 -0.4881
11070TIP3   OH254700   3.507   6.589  15.139 -0.2320  0.0127 -0.0401
11070TIP3    H154701   3.578   6.651  15.153  1.2652 -1.7020  0.3341
11070TIP3    H254702   3.447   6.605  15.212  0.8179  0.1392  0.8337
11071TIP3   OH254703   4.794   0.683  11.849 -0.3378  0.1404 -0.5128
11071TIP3    H154704   4.705   0.707  11.822 -1.0367  0.4714  1.8592
11071TIP3    H254705   4.848   0.758  11.824 -0.6856 -0.0952 -2.0418
11072TIP3   OH254706   5.520   1.813   1.833  0.1099 -0.3945  0.1030
11072TIP3    H154707   5.454   1.762   1.785  0.7232 -0.1053 -1.0895
11072TIP3    H254708   5.597   1.811   1.777  0.2550  1.5798  0.1609
11073TIP3   OH254709   2.441   4.722   0.650 -0.1207 -0.1235  0.0985
11073TIP3    H154710   2.536   4.711   0.654  0.0240  1.0945  0.4007
11073TIP3    H254711   2.407   4.635   0.628  1.0641 -0.5538 -0.0705
11074TIP3   OH254712   4.469   6.757  13.141 -0.0415 -0.5761  0.3355
11074TIP3    H154713   4.472   6.767  13.046 -5.3112 -1.5174 -0.2452
11074TIP3    H254714   4.456   6.846  13.174 -2.6885 -0.5882 -0.4274
11075TIP3   OH254715   2.135   0.379   2.663  0.7459  0.6241 -0.3672
11075TIP3    H154716   2.201   0.430   2.615  0.7425 -0.2439 -1.3245
11075TIP3    H254717   2.067   0.361   2.599 -0.6731  1.8707  0.7234
11076TIP3   OH254718   6.396   3.292  15.475 -0.2373 -0.2807 -0.0191
11076TIP3    H154719   6.481   3.286  15.431 -1.1501 -0.7611 -1.7716
11076TIP3    H254720   6.408   3.242  15.556  1.2533 -0.0204 -0.0438
11077TIP3   OH254721   2.455   3.174   1.266 -0.1344  0.4263 -0.3352
11077TIP3    H154722   2.501   3.149   1.186  0.4797 -0.1069  0.1818
11077TIP3    H254723   2.405   3.252   1.241 -1.0162 -0.5025 -1.5917
11078TIP3   OH254724   3.228   1.189   0.653 -0.0702  0.1740 -0.0273
11078TIP3    H154725   3.168   1.149   0.716  1.1298  1.4896  2.0488
11078TIP3    H254726   3.248   1.119   0.592 -0.1646 -1.6070  1.8822
11079TIP3   OH254727   1.628   0.502   3.979  0.0153 -0.0227 -0.1513
11079TIP3    H154728   1.599   0.441   4.047 -0.9916 -0.6856 -1.1321
11079TIP3    H254729   1.689   0.561   4.023 -2.2482  0.9600  1.8845
11080TIP3   OH254730   6.309   5.104   1.959 -0.6673  0.1846  0.5661
11080TIP3    H154731   6.349   5.188   1.984  2.2721 -0.2439 -2.0396
11080TIP3    H254732   6.277   5.119   1.870 -0.1971 -1.3944  0.1063
11081TIP3   OH254733   1.165   1.400  14.840 -0.2923 -0.2269  0.1076
11081TIP3    H154734   1.173   1.325  14.899  0.3138 -1.1748 -1.1493
11081TIP3    H254735   1.121   1.467  14.893  0.8174 -0.7945  1.8605
11082TIP3   OH254736   2.156   0.056  13.419 -0.1609  0.0720  0.2058
11082TIP3    H154737   2.229   0.019  13.469  1.0353  1.6667 -0.2977
11082TIP3    H254738   2.104   0.103  13.484  0.0021  0.0448  0.3556
11083TIP3   OH254739   4.071   4.420  14.306  0.0013  0.2907  0.5914
11083TIP3    H154740   4.112   4.421  14.220  1.0781  1.1949  1.0852
11083TIP3    H254741   4.121   4.355  14.356  2.5277  3.0164  1.9082
11084TIP3   OH254742   6.763   3.901   4.061  0.2763  0.0225 -0.1189
11084TIP3    H154743   6.695   3.904   3.994  0.5158 -0.7050 -0.3971
11084TIP3    H254744   6.731   3.961   4.129 -0.2403  0.3281 -0.6166
11085TIP3   OH254745   2.656   2.485  11.557 -0.2938 -0.1170 -0.2397
11085TIP3    H154746   2.639   2.437  11.477 -3.1112  1.4066 -0.6940
11085TIP3    H254747   2.705   2.563  11.529  2.1469 -1.4269  0.1573
11086TIP3   OH254748   3.732   1.919   4.329 -0.3731  0.2793  0.2683
11086TIP3    H154749   3.823   1.918   4.358  0.6055  0.5428 -2.5405
11086TIP3    H254750   3.707   2.012   4.332  0.2197  0.5018 -1.0378
11087TIP3   OH254751   4.202   0.060  11.384  0.2629  0.1963 -0.4996
11087TIP3    H154752   4.170   0.051  11.295  0.0943  1.5711 -0.6043
11087TIP3    H254753   4.226   0.153  11.392 -0.9546  0.4340  1.2486
11088TIP3   OH254754   0.683   3.298  14.390 -0.0302 -0.1314  0.5751
11088TIP3    H154755   0.730   3.270  14.469 -1.5811 -2.1786  0.8624
11088TIP3    H254756   0.661   3.389  14.406 -2.3023 -1.0344  3.6707
11089TIP3   OH254757   0.107   5.323   4.254 -0.2107 -0.2867  0.2100
11089TIP3    H154758   0.158   5.353   4.329 -0.1221  0.9028 -0.3174
11089TIP3    H254759   0.096   5.229   4.269 -0.0810 -0.0941  1.6411
11090TIP3   OH254760   6.685   3.952  17.094  0.1785 -0.4264  0.2408
11090TIP3    H154761   6.777   3.953  17.118 -0.0240 -0.7319  1.0759
11090TIP3    H254762   6.675   3.877  17.036  0.5305 -0.1335 -0.2055
11091TIP3   OH254763   1.208   2.132  12.231  0.7429  0.4631 -0.1268
11091TIP3    H154764   1.125   2.174  12.254 -0.0468 -0.7384 -0.6694
11091TIP3    H254765   1.183   2.060  12.173  2.2079  0.2884 -0.5796
11092TIP3   OH254766   5.071   5.826   1.499 -0.2718 -0.0989 -0.4481
11092TIP3    H154767   5.080   5.764   1.571 -0.6923  0.1265 -0.1990
11092TIP3    H254768   5.075   5.771   1.420  0.1026 -0.3539 -0.2583
11093TIP3   OH254769   4.611   3.488  17.167 -0.4392 -0.3291 -0.5983
11093TIP3    H154770   4.567   3.572  17.178 -0.2411 -0.1623 -1.0530
11093TIP3    H254771   4.586   3.458  17.079  0.3873 -0.2037 -0.8894
11094TIP3   OH254772   5.741   4.725  15.019 -0.2525 -0.3890  0.7444
11094TIP3    H154773   5.825   4.766  15.037  0.9644 -1.6835 -1.4751
11094TIP3    H254774   5.723   4.670  15.095  0.3912  0.6910  1.6920
11095TIP3   OH254775   0.348   4.883   1.507 -0.0442 -0.1180 -0.3285
11095TIP3    H154776   0.427   4.842   1.472  0.9106  0.2582  1.2696
11095TIP3    H254777   0.280   4.817   1.495  0.9792 -1.3107  0.1281
11096TIP3   OH254778   2.173   1.601  13.870  1.0525  0.5080  0.4723
11096TIP3    H154779   2.200   1.514  13.899 -0.5678 -0.2647 -0.2126
11096TIP3    H254780   2.251   1.655  13.881  2.3816 -1.2282  0.0406
11097TIP3   OH254781   6.590   5.526  12.244 -0.1459 -0.4513 -0.1173
11097TIP3    H154782   6.533   5.456  12.277 -0.6270 -0.0984 -0.1872
11097TIP3    H254783   6.599   5.586  12.318 -1.2305  0.3431 -0.6036
11098TIP3   OH254784   6.712   6.298   5.345 -0.2952 -0.7180 -0.8013
11098TIP3    H154785   6.708   6.210   5.384  3.0036 -0.1661  1.2152
11098TIP3    H254786   6.625   6.312   5.308 -1.9333 -3.6100  1.4956
11099TIP3   OH254787   0.706   6.233  11.163 -0.2083 -0.4604  0.3042
11099TIP3    H154788   0.656   6.176  11.222 -0.8422  0.1681  0.3870
11099TIP3    H254789   0.665   6.319  11.173 -0.9314 -0.5192 -1.7373
11100TIP3   OH254790   0.800   3.363   0.415  0.0132  0.4287 -0.3821
11100TIP3    H154791   0.883   3.333   0.379 -0.8927 -2.0454 -0.5501
11100TIP3    H254792   0.772   3.432   0.354  1.9937  1.5256 -0.1702
11101TIP3   OH254793   2.826   1.124   4.011  0.0292  0.3415 -0.0546
11101TIP3    H154794   2.823   1.212   3.972 -1.5555  0.9262  1.2791
11101TIP3    H254795   2.885   1.133   4.086 -1.0652  0.5986  0.7926
11102TIP3   OH254796   3.760   3.277   5.870 -0.4785  0.3491  0.3315
11102TIP3    H154797   3.737   3.282   5.962 -2.3619 -2.1899  0.1026
11102TIP3    H254798   3.826   3.207   5.865  1.5827  2.1959 -0.0227
11103TIP3   OH254799   2.964   5.529  15.833  0.3417  0.3435  0.8984
11103TIP3    H154800   2.902   5.540  15.762  1.2948 -1.0600 -0.1959
11103TIP3    H254801   3.020   5.456  15.807  0.0242 -1.0140  3.5979
11104TIP3   OH254802   5.185   2.075  11.031 -0.3796  0.2006  0.0108
11104TIP3    H154803   5.232   2.081  10.948 -1.4145 -0.9293 -0.7097
11104TIP3    H254804   5.103   2.031  11.008 -0.7553  0.0013  1.6137
11105TIP3   OH254805   6.401   5.309  11.191 -0.2113  0.5010  0.0074
11105TIP3    H154806   6.447   5.325  11.109  1.2517  1.1939  0.9139
11105TIP3    H254807   6.471   5.292  11.255 -1.2645  0.5964  1.2303
11106TIP3   OH254808   1.615   0.003  10.485 -0.4223 -0.2783  0.2314
11106TIP3    H154809   1.558   0.073  10.517  0.2076  2.2754 -3.5107
11106TIP3    H254810   1.563  -0.042  10.418  1.5208  2.1117 -3.2694
11107TIP3   OH254811   0.203   4.931   5.950 -0.7268  0.0130 -0.6318
11107TIP3    H154812   0.179   4.866   6.016 -0.0886 -0.8966 -1.2880
11107TIP3    H254813   0.279   4.975   5.988 -1.2594  0.5219 -0.1135
11108TIP3   OH254814   5.386   4.785  15.986 -0.3834 -0.0560 -0.1059
11108TIP3    H154815   5.306   4.837  15.979  0.2682  0.7995 -1.8722
11108TIP3    H254816   5.382   4.725  15.911  0.9255  0.4698 -0.6352
11109TIP3   OH254817   3.684   6.107  11.084 -0.5666 -0.0795 -0.3487
11109TIP3    H154818   3.727   6.044  11.143  1.1687  1.7953  0.5274
11109TIP3    H254819   3.745   6.119  11.012 -1.0154  0.3840 -0.6627
11110TIP3   OH254820   5.770   1.651  10.771 -0.0292 -0.1432 -0.6396
11110TIP3    H154821   5.742   1.699  10.693  1.4134  0.9425 -0.5359
11110TIP3    H254822   5.815   1.574  10.738  1.4440  0.8048 -0.9654
11111TIP3   OH254823   6.354   2.627  14.469 -0.2564  0.2692 -0.3987
11111TIP3    H154824   6.313   2.542  14.457 -1.0100  0.8241 -2.0216
11111TIP3    H254825   6.443   2.615  14.435  0.2743 -0.3612  1.1498
11112TIP3   OH254826   5.077   4.589   3.650  0.3089  0.4073 -0.6760
11112TIP3    H154827   5.149   4.594   3.588  0.8598  2.4381  0.0332
11112TIP3    H254828   4.998   4.591   3.596  0.7880  0.5502 -1.3787
11113TIP3   OH254829   3.269   1.846  13.364 -0.2769 -0.2242 -0.6229
11113TIP3    H154830   3.335   1.911  13.341 -1.4018  2.0430  1.9552
11113TIP3    H254831   3.187   1.896  13.368 -1.0779 -1.5464  2.1716
11114TIP3   OH254832   4.597   2.709  10.592  0.4971 -0.2644 -0.4223
11114TIP3    H154833   4.537   2.701  10.518 -0.5767 -0.6663  0.4692
11114TIP3    H254834   4.592   2.625  10.637  1.0868 -0.0056  0.1463
11115TIP3   OH254835   4.694   4.297  17.179  0.0434 -0.0584  0.2646
11115TIP3    H154836   4.760   4.362  17.206  1.1107 -1.8561  2.2616
11115TIP3    H254837   4.631   4.295  17.251 -0.1422 -0.9996  0.0867
11116TIP3   OH254838   4.518   4.294   5.173  0.1152 -0.0076  0.3256
11116TIP3    H154839   4.493   4.236   5.245 -1.0714 -0.3302 -0.3282
11116TIP3    H254840   4.611   4.313   5.189 -0.4756  1.1403  2.7447
11117TIP3   OH254841   6.472   1.433  15.003 -0.6401 -0.3872  0.2256
11117TIP3    H154842   6.435   1.400  14.921 -1.4160 -1.2620  0.8998
11117TIP3    H254843   6.452   1.364  15.067  1.4205 -0.5057  0.8140
11118TIP3   OH254844   5.751   0.899  15.640  0.2953  0.5066 -0.2751
11118TIP3    H154845   5.769   0.911  15.734  0.5349  0.9909 -0.3777
11118TIP3    H254846   5.656   0.890  15.635  0.3836 -0.8664  0.1517
11119TIP3   OH254847   1.247   3.750   1.003 -0.4084 -0.1246 -0.2476
11119TIP3    H154848   1.163   3.748   0.955 -0.1904  1.0442 -0.7103
11119TIP3    H254849   1.287   3.664   0.984 -1.6578 -0.8563  0.2949
11120TIP3   OH254850   1.132   4.927   5.643  0.2962  0.2001  0.2736
11120TIP3    H154851   1.222   4.895   5.656  0.1197  0.0652  1.2218
11120TIP3    H254852   1.077   4.859   5.681 -0.0743  1.8258  2.8729
11121TIP3   OH254853   0.261   6.509   4.913 -0.3866 -0.1303  0.3248
11121TIP3    H154854   0.287   6.514   5.005  2.0732 -1.6840 -0.1973
11121TIP3    H254855   0.241   6.417   4.898  2.7169 -0.6722 -1.4121
11122TIP3   OH254856   1.282   1.515   2.654  0.0649  0.8305 -0.5042
11122TIP3    H154857   1.312   1.547   2.569 -0.5653  0.4546 -0.8713
11122TIP3    H254858   1.298   1.588   2.714  1.6496  0.6729 -0.6939
11123TIP3   OH254859   6.486   4.148  13.623  0.4668  0.2002 -0.1303
11123TIP3    H154860   6.426   4.211  13.663  0.3550 -1.5834  2.7725
11123TIP3    H254861   6.571   4.193  13.620 -0.1778  1.4164 -0.7504
11124TIP3   OH254862   5.423   0.714  11.929  0.0216  0.3874 -0.4082
11124TIP3    H154863   5.386   0.652  11.993  1.2707 -0.5215 -0.5219
11124TIP3    H254864   5.387   0.687  11.845 -0.0865  0.3393 -0.3468
11125TIP3   OH254865   6.183   3.920   2.474  0.5225 -0.4235  0.4515
11125TIP3    H154866   6.263   3.929   2.421  1.4165 -1.7474  1.5007
11125TIP3    H254867   6.177   4.002   2.523  0.5172  0.2008 -0.5533
11126TIP3   OH254868   6.761   0.902  14.930  0.3021 -0.4170  0.1291
11126TIP3    H154869   6.775   0.994  14.908 -1.4547  0.3596  1.8893
11126TIP3    H254870   6.683   0.878  14.880  1.6003 -1.4481 -1.4739
11127TIP3   OH254871   2.624   6.125  10.050 -0.1439 -0.3971 -0.0492
11127TIP3    H154872   2.617   6.168  10.134 -0.7954 -0.3138 -0.1440
11127TIP3    H254873   2.680   6.183   9.997 -1.5937  0.7094 -0.4121
11128TIP3   OH254874   4.223   3.534   1.473  0.0251 -0.1356  0.0100
11128TIP3    H154875   4.129   3.552   1.478 -0.3130 -0.2101 -3.3516
11128TIP3    H254876   4.264   3.621   1.471 -0.2471 -0.0195 -1.1526
11129TIP3   OH254877   5.948   3.327  16.397 -0.1567 -0.1170 -0.0749
11129TIP3    H154878   5.951   3.399  16.460  1.8296  0.5225 -0.8300
11129TIP3    H254879   5.883   3.266  16.434 -1.0101  1.4653  1.1848
11130TIP3   OH254880   1.960   3.005  11.377  0.3667 -0.1133 -0.7522
11130TIP3    H154881   1.903   3.060  11.432 -0.0690 -0.9380 -0.3630
11130TIP3    H254882   1.910   2.925  11.363  0.5377  0.0129 -2.2445
11131TIP3   OH254883   5.561   4.188   4.511  0.6620  0.6110  0.8093
11131TIP3    H154884   5.546   4.270   4.465 -2.3676 -0.8009 -1.0892
11131TIP3    H254885   5.603   4.131   4.446  0.1349 -0.1522  1.1143
11132TIP3   OH254886   3.942   3.713  11.944  0.0015 -0.2321 -0.0017
11132TIP3    H154887   4.035   3.718  11.922 -0.1656  0.6637 -0.5329
11132TIP3    H254888   3.912   3.634  11.899  0.0492  0.6381 -1.6617
11133TIP3   OH254889   1.257   6.660   1.946  0.0113  0.1067  0.2760
11133TIP3    H154890   1.211   6.744   1.954  0.5452  0.7235 -2.2735
11133TIP3    H254891   1.230   6.611   2.024 -0.8869  2.3474  1.4864
11134TIP3   OH254892   6.766   2.536  11.913  0.4023  0.1802  0.0177
11134TIP3    H154893   6.680   2.516  11.949  0.1855  1.7596  0.4410
11134TIP3    H254894   6.748   2.579  11.830  0.7522  1.1125  0.4133
11135TIP3   OH254895   5.966   5.696   3.809 -0.3454 -0.0520  1.1365
11135TIP3    H154896   5.945   5.611   3.772  2.1025  1.0725 -3.5580
11135TIP3    H254897   5.890   5.751   3.788  0.1519  0.0646 -0.4288
11136TIP3   OH254898   5.555   6.692  14.449 -0.0383 -0.2709  0.5006
11136TIP3    H154899   5.501   6.697  14.370 -1.3286 -0.6550  1.3336
11136TIP3    H254900   5.642   6.719  14.420 -0.5371 -0.1895 -1.0031
11137TIP3   OH254901   3.086   1.756   3.277  0.6537 -0.2837 -0.3267
11137TIP3    H154902   3.007   1.738   3.226  0.4114 -3.8523  1.0047
11137TIP3    H254903   3.108   1.672   3.317  2.3103  1.6409  3.3056
11138TIP3   OH254904   3.953   6.309   0.343 -0.0458  0.0278 -0.1778
11138TIP3    H154905   3.896   6.385   0.329  0.2015  0.3801  0.6793
11138TIP3    H254906   3.920   6.268   0.423  0.5961 -0.0463  0.0570
11139TIP3   OH254907   3.940   2.037   3.359  0.3631 -0.8281  0.0335
11139TIP3    H154908   3.852   2.013   3.328  0.1171  1.0649 -0.8474
11139TIP3    H254909   3.992   2.045   3.280  0.7032  0.3733  0.3570
11140TIP3   OH254910   0.747   1.019   4.511 -0.2729  0.6664  0.0934
11140TIP3    H154911   0.809   0.946   4.513 -1.4842 -0.4588 -1.1113
11140TIP3    H254912   0.736   1.043   4.603 -0.4560 -1.2299  0.6199
11141TIP3   OH254913   0.288   6.722   1.553  0.0535  0.0933  0.6912
11141TIP3    H154914   0.212   6.741   1.608 -1.6681  1.2686 -1.8803
11141TIP3    H254915   0.256   6.659   1.489  1.3172  0.4154 -0.2997
11142TIP3   OH254916   4.208   2.639  16.703 -0.1718  0.2174  0.1858
11142TIP3    H154917   4.260   2.594  16.636  0.4335 -1.8564  1.9548
11142TIP3    H254918   4.122   2.651  16.662 -0.4231 -2.7600 -0.3659
11143TIP3   OH254919   5.456   0.603  15.560  0.0640  0.8320 -0.2846
11143TIP3    H154920   5.416   0.690  15.558 -2.3235 -0.2123 -1.5644
11143TIP3    H254921   5.471   0.585  15.653 -1.9552  1.5289  0.2146
11144TIP3   OH254922   6.022   5.791  11.627 -0.0525  0.8366 -0.1981
11144TIP3    H154923   6.079   5.844  11.572 -0.0485  0.4791 -0.5427
11144TIP3    H254924   6.083   5.736  11.677 -0.0999  0.3762 -0.6469
11145TIP3   OH254925   5.098   4.811   3.119 -0.5274 -0.0847 -0.1459
11145TIP3    H154926   5.039   4.765   3.179 -0.7784 -0.6204 -0.7849
11145TIP3    H254927   5.043   4.877   3.078  0.4925  3.0023  2.9914
11146TIP3   OH254928   6.769   4.400  12.593  0.3356 -0.5769 -0.4574
11146TIP3    H154929   6.805   4.313  12.577 -1.7640 -1.1758 -2.4770
11146TIP3    H254930   6.694   4.406  12.534 -0.9181  1.7816  1.2164
11147TIP3   OH254931   5.547   4.408  13.993  0.0953 -0.2924  0.2788
11147TIP3    H154932   5.473   4.463  13.969  0.4978  0.4366  0.6778
11147TIP3    H254933   5.621   4.468  13.997  0.3580 -0.6810  1.6584
11148TIP3   OH254934   3.673   4.233  15.679  0.1857 -0.3176  0.2963
11148TIP3    H154935   3.707   4.315  15.644  2.0108 -1.1731 -0.0512
11148TIP3    H254936   3.680   4.171  15.606  0.6880 -1.2500  1.1085
11149TIP3   OH254937   6.533   2.383  15.969  0.1223  0.8387 -0.3836
11149TIP3    H154938   6.454   2.359  15.920 -1.0962 -0.3651  2.0027
11149TIP3    H254939   6.598   2.319  15.941  0.3693  1.9102 -2.4697
11150TIP3   OH254940   6.135   6.430  12.424 -0.3602  0.0011 -0.1789
11150TIP3    H154941   6.100   6.441  12.336  0.5109  3.8181 -0.2019
11150TIP3    H254942   6.206   6.366  12.413 -0.4720  0.1540 -2.1892
11151TIP3   OH254943   5.426   0.878  16.108 -0.9356 -0.1845 -0.2691
11151TIP3    H154944   5.439   0.802  16.164  2.8909 -0.6066 -1.4619
11151TIP3    H254945   5.381   0.942  16.164  0.8355 -1.2968  2.6424
11152TIP3   OH254946   6.564   1.649  11.057  0.2359 -0.0487  0.4275
11152TIP3    H154947   6.480   1.614  11.029  0.6804 -2.1784  1.6024
11152TIP3    H254948   6.546   1.742  11.075 -1.4181 -0.0397 -1.0048
11153TIP3   OH254949   3.384   3.260   1.301 -0.2999  0.0396  0.3196
11153TIP3    H154950   3.316   3.293   1.360 -1.0356 -0.2110 -0.3652
11153TIP3    H254951   3.464   3.304   1.330 -0.2894 -1.2577  2.5092
11154TIP3   OH254952   5.615   5.430   4.022 -0.1049  0.8799  0.3558
11154TIP3    H154953   5.538   5.377   4.046  0.2002 -0.1549 -0.8270
11154TIP3    H254954   5.646   5.465   4.105 -1.4913  0.8153  0.9395
11155TIP3   OH254955   3.247   3.111   0.872 -0.6524 -0.6413  0.1265
11155TIP3    H154956   3.298   3.095   0.793  2.0447  0.8538  1.4329
11155TIP3    H254957   3.210   3.198   0.860  0.5445 -0.0094  0.8387
11156TIP3   OH254958   0.419   2.376   1.178 -0.8448 -0.5949  0.0328
11156TIP3    H154959   0.335   2.422   1.172 -1.2019 -1.3712 -1.3636
11156TIP3    H254960   0.484   2.447   1.177 -1.4508 -0.0226  0.0780
11157TIP3   OH254961   3.352   3.238   0.610  0.1826  0.3955  0.5235
11157TIP3    H154962   3.266   3.280   0.602  0.3423  1.0773  2.0269
11157TIP3    H254963   3.369   3.201   0.523 -1.4058  0.6667  0.0663
11158TIP3   OH254964   5.719   0.252   4.219 -0.2099  0.3930 -0.2603
11158TIP3    H154965   5.684   0.338   4.243  0.7791  0.1713  2.2581
11158TIP3    H254966   5.675   0.191   4.279 -0.8215 -0.8953 -1.9365
11159TIP3   OH254967   2.512   4.492   0.428  0.0510 -0.1708 -0.0440
11159TIP3    H154968   2.564   4.413   0.440  0.5324  0.1572  0.0312
11159TIP3    H254969   2.572   4.564   0.445 -1.2068  0.2345  3.5494
11160TIP3   OH254970   4.027   2.066  13.081 -0.1253 -0.3987  0.1652
11160TIP3    H154971   4.002   2.084  12.991  0.2742 -1.6221 -0.2178
11160TIP3    H254972   4.118   2.096  13.087 -0.2227 -0.1152  0.2277
11161TIP3   OH254973   3.937   0.663   0.825 -0.2506  0.0663 -0.1739
11161TIP3    H154974   3.860   0.644   0.772 -0.0976 -2.1197  0.3157
11161TIP3    H254975   3.907   0.730   0.887 -0.8156  1.6137 -2.0130
11162TIP3   OH254976   1.222   6.196  12.988 -0.0130 -0.3910 -0.5585
11162TIP3    H154977   1.289   6.260  13.014 -0.8648  0.9846 -1.6490
11162TIP3    H254978   1.226   6.129  13.057  0.2445  1.3036  1.1608
11163TIP3   OH254979   3.053   6.348  15.881 -0.3346  0.1520 -0.3510
11163TIP3    H154980   2.992   6.277  15.899 -0.8130  0.3762 -1.0350
11163TIP3    H254981   2.999   6.427  15.881 -0.1588  0.3002 -1.4437
11164TIP3   OH254982   3.289   5.625   4.968  0.4424 -0.0938 -0.0540
11164TIP3    H154983   3.378   5.657   4.954  0.6899  1.2757  3.5249
11164TIP3    H254984   3.300   5.550   5.027 -0.7649  1.2221  1.9661
11165TIP3   OH254985   4.365   0.531   1.224 -0.3965  0.0967  0.1315
11165TIP3    H154986   4.405   0.606   1.179 -0.9891  0.7938  0.7465
11165TIP3    H254987   4.288   0.568   1.269  0.4317 -0.4700  2.1153
11166TIP3   OH254988   4.175   4.819  15.278  0.2975  0.0635 -0.3554
11166TIP3    H154989   4.229   4.896  15.260 -1.4119  1.0451 -1.6085
11166TIP3    H254990   4.099   4.829  15.220  0.3351 -2.9408 -1.0709
11167TIP3   OH254991   0.599   1.403   1.109  0.4039 -0.4063 -0.5310
11167TIP3    H154992   0.624   1.418   1.200 -2.7276 -0.4829  0.4506
11167TIP3    H254993   0.638   1.319   1.087  1.3801 -0.2929  0.6714
11168TIP3   OH254994   3.026   1.450   1.649 -0.4878  0.3864 -0.2864
11168TIP3    H154995   3.013   1.473   1.557  1.3958 -0.8002 -0.9130
11168TIP3    H254996   3.026   1.354   1.650 -1.5670  0.3611  1.1561
11169TIP3   OH254997   0.292   3.921  15.939 -0.1380 -0.0424  0.1201
11169TIP3    H154998   0.313   3.827  15.938 -2.1858 -0.5494 -1.4828
11169TIP3    H254999   0.369   3.963  15.900  1.2851 -0.8804  1.8674
11170TIP3   OH255000   6.628   1.450  13.969  0.0726 -0.2869 -0.3135
11170TIP3    H155001   6.655   1.542  13.958  0.4055 -0.4496 -0.9385
11170TIP3    H255002   6.643   1.411  13.883 -0.3948 -0.8479 -0.1459
11171TIP3   OH255003   5.708   1.463  14.220  0.5859  0.4844 -0.0132
11171TIP3    H155004   5.793   1.481  14.181  0.6351 -0.6577 -0.4887
11171TIP3    H255005   5.652   1.440  14.146 -0.1384  1.2176  0.2946
11172TIP3   OH255006   3.932   4.293   1.713  0.1292  0.1380 -0.2251
11172TIP3    H155007   3.909   4.377   1.754 -0.1280 -0.0718  0.0591
11172TIP3    H255008   3.962   4.238   1.785 -0.6844 -0.3579 -0.2546
11173TIP3   OH255009   3.126   5.390   0.674  0.8818 -0.1535  0.6611
11173TIP3    H155010   3.057   5.330   0.646  2.9572 -1.3550 -2.3227
11173TIP3    H255011   3.085   5.443   0.743 -2.4920 -1.7961  0.1075
11174TIP3   OH255012   4.102   4.898   5.185  0.1093 -0.1233  0.1016
11174TIP3    H155013   4.180   4.863   5.141 -0.1670 -0.0373 -0.4715
11174TIP3    H255014   4.066   4.961   5.122  0.0551  0.4650  0.7189
11175TIP3   OH255015   4.394   1.895  13.105  0.3194 -0.1841  0.6454
11175TIP3    H155016   4.416   1.861  13.019 -0.6577  0.2572  0.1993
11175TIP3    H255017   4.380   1.989  13.091  0.7575 -0.0003  1.4022
11176TIP3   OH255018   4.331   5.994   1.673  0.1096 -0.5051 -0.0709
11176TIP3    H155019   4.254   6.050   1.686  0.5247  0.1028 -0.1906
11176TIP3    H255020   4.385   6.042   1.611  0.6708 -0.8452  0.1479
11177TIP3   OH255021   1.590   0.682   0.551 -0.1564 -0.0927  0.7218
11177TIP3    H155022   1.656   0.680   0.620  0.8780 -0.5851 -0.2373
11177TIP3    H255023   1.538   0.603   0.566 -0.0658 -0.0906  1.0609
11178TIP3   OH255024   0.659   1.790   2.609 -0.6291 -0.0709  0.3447
11178TIP3    H155025   0.737   1.738   2.590 -0.0635  0.8101  0.2364
11178TIP3    H255026   0.586   1.739   2.572  0.0926  0.0510 -1.3178
11179TIP3   OH255027   0.460   0.068   4.427  0.2048 -0.0571  0.7143
11179TIP3    H155028   0.440   0.146   4.376  0.5535 -1.3888 -1.6030
11179TIP3    H255029   0.379   0.050   4.475 -0.4232  0.8130  0.0155
11180TIP3   OH255030   1.280   0.117   1.359  1.0380  0.2749 -0.1438
11180TIP3    H155031   1.306   0.112   1.267  1.6237  1.2469 -0.0448
11180TIP3    H255032   1.357   0.152   1.404  0.5131  0.4919  0.6133
11181TIP3   OH255033   3.767   1.674   0.451 -0.5072  0.4835  0.1421
11181TIP3    H155034   3.689   1.620   0.436 -0.0136  0.4759 -3.0330
11181TIP3    H255035   3.834   1.612   0.477 -0.6282 -0.1008 -0.8679
11182TIP3   OH255036   5.574   0.924   2.685 -0.0687  0.7309  0.5974
11182TIP3    H155037   5.513   0.945   2.755  1.3859  0.9719  1.8549
11182TIP3    H255038   5.661   0.939   2.723  0.9489 -2.5173 -0.0711
11183TIP3   OH255039   5.234   5.242  12.115 -0.0946  0.2634 -0.7021
11183TIP3    H155040   5.161   5.289  12.076 -0.7234  0.0734  0.2217
11183TIP3    H255041   5.281   5.308  12.166  1.1342  0.6710 -2.2826
11184TIP3   OH255042   4.684   2.798  16.094 -0.6271 -0.0364 -0.6937
11184TIP3    H155043   4.698   2.802  16.000 -0.5214  0.7505 -0.6533
11184TIP3    H255044   4.642   2.882  16.115 -1.8389 -0.7253 -0.2361
11185TIP3   OH255045   2.326   0.460  16.162 -0.4958 -0.2043 -0.4935
11185TIP3    H155046   2.375   0.384  16.128 -0.0233 -0.2048  0.1654
11185TIP3    H255047   2.236   0.445  16.133 -0.4882 -1.2283 -0.0452
11186TIP3   OH255048   2.076   1.941   0.095  0.0593 -0.4565 -0.1779
11186TIP3    H155049   2.115   2.026   0.117 -0.6609  0.6778 -2.8355
11186TIP3    H255050   2.019   1.922   0.169 -0.2896  1.7446  0.2068
11187TIP3   OH255051   3.448   2.081   0.619  0.2292  0.5544  0.0649
11187TIP3    H155052   3.537   2.115   0.630  0.8742 -1.2546  0.6850
11187TIP3    H255053   3.417   2.066   0.709 -1.7341  3.5498  0.0348
11188TIP3   OH255054   1.897   3.049  16.155 -0.3069 -0.4706  0.6132
11188TIP3    H155055   1.912   2.959  16.128  0.4102  0.2096 -1.4099
11188TIP3    H255056   1.889   3.098  16.073  0.4086  1.4824  1.6435
11189TIP3   OH255057   6.493   4.023   5.198 -0.0995  0.1891 -0.5494
11189TIP3    H155058   6.404   4.051   5.217 -0.8336 -1.8840 -0.5952
11189TIP3    H255059   6.527   3.994   5.283  0.7178  1.3727 -0.4509
11190TIP3   OH255060   5.027   5.049   0.851 -0.0939  0.5546 -0.4180
11190TIP3    H155061   5.031   4.966   0.804  1.2367  0.8570 -0.9053
11190TIP3    H255062   5.052   5.115   0.785 -0.2208  1.2244  0.1865
11191TIP3   OH255063   1.316   4.137   0.874 -0.2703  0.1775  0.4361
11191TIP3    H155064   1.291   4.126   0.966 -1.9885  0.2232  0.0066
11191TIP3    H255065   1.394   4.084   0.864  0.4019  0.7780  2.1016
11192TIP3   OH255066   5.723   4.934  14.661  0.4117  0.1592  0.2268
11192TIP3    H155067   5.652   4.969  14.607  2.0806  0.4617 -1.9459
11192TIP3    H255068   5.785   5.006  14.668  1.2909 -0.6163  0.5723
11193TIP3   OH255069   5.976   6.717  16.663 -0.1171 -0.2158 -0.0240
11193TIP3    H155070   5.947   6.736  16.752  0.9555 -0.3739  0.3713
11193TIP3    H255071   5.946   6.792  16.611 -0.5535 -0.0179  0.5032
11194TIP3   OH255072   6.529   2.027  14.644 -0.0109 -0.0279  0.8158
11194TIP3    H155073   6.593   2.032  14.573  0.3957 -0.8904  1.1047
11194TIP3    H255074   6.540   1.939  14.680 -1.8266 -0.4287  0.4562
11195TIP3   OH255075   2.946   1.687   0.383 -0.2352  0.6520  0.0715
11195TIP3    H155076   2.919   1.661   0.470  3.0337 -2.3055  0.3910
11195TIP3    H255077   2.973   1.779   0.392 -3.0846  1.4664  1.2470
11196TIP3   OH255078   2.443   4.973  14.584  0.0232  0.2828 -0.5623
11196TIP3    H155079   2.392   5.016  14.653 -0.2110 -0.1960 -0.4306
11196TIP3    H255080   2.377   4.931  14.528  0.1443  1.4976 -1.6609
11197TIP3   OH255081   3.216   4.646  17.105 -0.1770 -0.1114 -0.3990
11197TIP3    H155082   3.204   4.705  17.030  0.3593 -0.2913 -0.6325
11197TIP3    H255083   3.210   4.558  17.068 -2.0097 -0.2332  0.1129
11198TIP3   OH255084   2.383   6.125  11.128 -0.3853 -0.3595  0.0059
11198TIP3    H155085   2.472   6.132  11.162 -0.3459  2.4723 -0.4072
11198TIP3    H255086   2.336   6.073  11.193  1.0083  0.1884  1.5085
11199TIP3   OH255087   3.283   4.070   5.339  0.0834  0.1322  0.2712
11199TIP3    H155088   3.344   4.141   5.361  0.2127  0.5693 -1.3669
11199TIP3    H255089   3.244   4.097   5.256  1.5390 -2.5273 -1.4226
11200TIP3   OH255090   1.522   0.996  15.733 -0.4493  0.9222 -0.4841
11200TIP3    H155091   1.521   1.072  15.791 -1.3874  1.0644 -0.6821
11200TIP3    H255092   1.451   1.011  15.672 -0.8999 -0.2995 -0.2796
11201TIP3   OH255093   0.709   1.588  14.968 -0.3105  0.4776 -0.3341
11201TIP3    H155094   0.741   1.498  14.966  0.6268  0.8020 -1.0464
11201TIP3    H255095   0.625   1.585  14.923 -0.6374 -0.1672  0.3141
11202TIP3   OH255096   6.520   1.705   3.685 -0.3104  0.0784  0.4171
11202TIP3    H155097   6.521   1.639   3.616  0.0092 -1.8038  2.1054
11202TIP3    H255098   6.612   1.725   3.701 -0.1329 -1.7939  2.2483
11203TIP3   OH255099   0.116   0.436  15.605 -0.0335 -0.3842 -0.2319
11203TIP3    H155100   0.117   0.439  15.700  0.2182  0.5152 -0.2523
11203TIP3    H255101   0.186   0.375  15.582 -0.3231 -0.8739  0.1542
11204TIP3   OH255102   3.470   1.661  11.189  0.0182 -0.7967 -0.5105
11204TIP3    H155103   3.557   1.625  11.173  0.3935 -0.2251  0.2174
11204TIP3    H255104   3.440   1.691  11.103  0.5508 -0.9755 -0.7566
11205TIP3   OH255105   5.878   4.375   4.880 -0.2821  0.0568 -0.1446
11205TIP3    H155106   5.808   4.425   4.923 -0.1720  1.0499 -1.0726
11205TIP3    H255107   5.940   4.442   4.851  0.1820 -0.6792 -0.8704
11206TIP3   OH255108   1.446   0.492   0.697 -0.2426  0.3792  0.5651
11206TIP3    H155109   1.377   0.447   0.648  0.2719 -0.3836  0.5211
11206TIP3    H255110   1.399   0.543   0.762 -0.8421 -0.4099  0.7724
11207TIP3   OH255111   0.498   5.053   3.053  0.0472 -0.0116  0.2115
11207TIP3    H155112   0.566   5.039   2.987  0.8775  0.5388  0.9341
11207TIP3    H255113   0.434   5.110   3.010  0.1488 -0.3484 -0.3960
11208TIP3   OH255114   4.029   5.876  15.455 -0.1089 -0.1159  0.8454
11208TIP3    H155115   4.050   5.958  15.411 -0.1116  0.0625  1.1686
11208TIP3    H255116   4.039   5.809  15.388  0.1048  0.1253  0.6346
11209TIP3   OH255117   2.401   1.503   0.869 -0.6482  0.6808 -0.2278
11209TIP3    H155118   2.393   1.595   0.843 -0.8619  0.6244 -0.3611
11209TIP3    H255119   2.349   1.455   0.805  0.6378  0.3194 -1.0264
11210TIP3   OH255120   6.078   0.475  16.639 -0.1634  0.0085  0.2822
11210TIP3    H155121   6.060   0.568  16.654  2.4168  0.1772  3.3561
11210TIP3    H255122   5.999   0.430  16.671  0.4213  1.0310  3.4724
11211TIP3   OH255123   4.779   6.539  12.316 -0.2992 -0.6675  0.1873
11211TIP3    H155124   4.786   6.578  12.404  0.3030 -0.9920  0.2878
11211TIP3    H255125   4.861   6.562  12.273 -1.0356  0.3916 -0.6711
11212TIP3   OH255126   0.473   6.547  16.636  0.0121 -0.5548 -0.3674
11212TIP3    H155127   0.437   6.585  16.555 -0.2876 -0.0273  0.0049
11212TIP3    H255128   0.419   6.470  16.651 -1.3699  0.5317  0.4816
11213TIP3   OH255129   1.695   3.491  15.600 -0.2038  0.3151  0.2401
11213TIP3    H155130   1.683   3.581  15.628 -0.2520 -0.3471  2.6411
11213TIP3    H255131   1.752   3.453  15.667 -0.7063 -1.5914 -0.3423
11214TIP3   OH255132   6.289   2.412  11.693 -0.2997 -0.3197  0.1046
11214TIP3    H155133   6.213   2.463  11.664  1.6165  2.0339 -1.1093
11214TIP3    H255134   6.257   2.322  11.695 -3.3639  0.6494  0.5744
11215TIP3   OH255135   2.169   5.048  12.765 -0.3744  0.2045  0.5422
11215TIP3    H155136   2.167   5.127  12.819  0.8451 -0.8095  2.1780
11215TIP3    H255137   2.147   4.977  12.825  0.6201 -0.9222 -0.3700
11216TIP3   OH255138   4.238   1.496  13.996  0.5525  1.0641  0.4523
11216TIP3    H155139   4.267   1.545  14.074  0.9836  2.0440 -0.2905
11216TIP3    H255140   4.298   1.421  13.992  0.4762  0.9585  1.1041
11217TIP3   OH255141   4.289   4.181   0.979 -0.3431 -0.7461 -0.3776
11217TIP3    H155142   4.284   4.274   1.002  2.0428  0.3060 -3.3839
11217TIP3    H255143   4.328   4.139   1.056  0.1283  1.0650  0.4302
11218TIP3   OH255144   1.839   0.794   5.138  0.3589 -0.2340  0.3052
11218TIP3    H155145   1.796   0.716   5.173 -1.6840  0.4258 -0.5892
11218TIP3    H255146   1.773   0.836   5.083  1.4899  1.9798  0.4981
11219TIP3   OH255147   1.298   0.781   0.498  0.5130 -0.4081 -0.1492
11219TIP3    H155148   1.389   0.782   0.526  1.5360  0.9718 -3.0927
11219TIP3    H255149   1.301   0.745   0.409 -1.7363  0.1598 -0.5132
11220TIP3   OH255150   1.031   1.647  11.424 -0.2052 -0.0211 -0.2385
11220TIP3    H155151   0.964   1.581  11.405 -1.0255  0.2288  1.6155
11220TIP3    H255152   1.018   1.714  11.358 -1.3594 -0.2916 -0.3045
11221TIP3   OH255153   5.160   5.251  13.786 -0.7185 -0.6187 -0.6842
11221TIP3    H155154   5.178   5.158  13.801 -2.5170 -1.0564 -0.9904
11221TIP3    H255155   5.206   5.296  13.857  0.3671 -1.6984 -0.6513
11222TIP3   OH255156   1.108   0.532  16.201 -0.2512 -0.1827  0.3998
11222TIP3    H155157   1.192   0.575  16.184 -0.3263 -0.4905 -0.8611
11222TIP3    H255158   1.098   0.535  16.296  1.6665 -1.0326  0.6683
11223TIP3   OH255159   3.527   6.450   4.179  0.0947  0.2720  0.6370
11223TIP3    H155160   3.605   6.410   4.139  0.1976  0.8592  0.2418
11223TIP3    H255161   3.562   6.498   4.254  0.0255 -0.0262  0.8600
11224TIP3   OH255162   6.377   3.892   0.973  0.0744 -0.3774  0.1177
11224TIP3    H155163   6.376   3.904   1.068 -2.8743 -2.8015  0.5544
11224TIP3    H255164   6.409   3.803   0.961 -0.8598 -0.5696 -1.0508
11225TIP3   OH255165   0.001   6.065   2.261  0.4420  0.9002 -0.5738
11225TIP3    H155166   0.083   6.056   2.212  0.2914 -1.0332 -0.5286
11225TIP3    H255167   0.029   6.087   2.350  0.9634 -0.2912 -0.4221
11226TIP3   OH255168   1.235   3.236   4.716  0.3158 -0.0946 -0.3989
11226TIP3    H155169   1.190   3.223   4.800  0.2220 -1.6357 -0.6617
11226TIP3    H255170   1.174   3.288   4.664 -0.8668 -1.4745 -0.4661
11227TIP3   OH255171   0.726   3.970  13.037  0.2626  0.3774 -0.2050
11227TIP3    H155172   0.698   3.885  13.071  0.0155 -0.1595 -1.6832
11227TIP3    H255173   0.646   4.022  13.032 -0.2208 -0.4803 -2.5152
11228TIP3   OH255174   6.435   3.020  15.322 -0.0549 -0.5672 -0.4504
11228TIP3    H155175   6.421   2.959  15.394  0.6157  0.8983  0.9573
11228TIP3    H255176   6.518   3.063  15.342 -0.9940  1.5331 -0.8604
11229TIP3   OH255177   1.750   1.045  10.419  0.3549  0.4472 -0.3066
11229TIP3    H155178   1.682   1.109  10.441  0.8168  1.8132 -2.5475
11229TIP3    H255179   1.825   1.072  10.472  0.6163  1.9912 -1.3840
11230TIP3   OH255180   2.060   3.128   3.399  0.4347 -0.0608  0.2033
11230TIP3    H155181   2.067   3.062   3.330  2.9531  0.5367 -0.2400
11230TIP3    H255182   2.030   3.207   3.353  1.6212  0.1990 -0.1904
11231TIP3   OH255183   3.386   0.315   1.551 -0.3448  0.6048 -0.1865
11231TIP3    H155184   3.364   0.277   1.466 -2.1028  1.0900  0.0125
11231TIP3    H255185   3.447   0.253   1.590  0.2164  0.1961 -1.6436
11232TIP3   OH255186   2.723   4.610  12.739  0.0518  0.9127  0.3194
11232TIP3    H155187   2.809   4.638  12.773  0.2982  2.2224 -1.2743
11232TIP3    H255188   2.735   4.604  12.645 -1.1034 -0.8865  0.2381
11233TIP3   OH255189   3.306   1.170   5.416  0.3691 -0.1233 -0.4336
11233TIP3    H155190   3.362   1.182   5.493 -1.1399  0.1149  0.6534
11233TIP3    H255191   3.241   1.106   5.443 -2.7149  2.9291 -0.0287
11234TIP3   OH255192   3.480   0.196   3.933 -0.3958 -0.5319  0.2848
11234TIP3    H155193   3.544   0.257   3.971  1.1450 -1.0411 -1.3542
11234TIP3    H255194   3.426   0.251   3.876 -1.0537 -0.2013  1.2058
11235TIP3   OH255195   1.907   5.590   4.795 -0.7086 -0.4026  0.1646
11235TIP3    H155196   1.866   5.603   4.709 -1.6406  1.7741  0.8763
11235TIP3    H255197   1.995   5.557   4.775 -1.3699 -1.2304 -1.5501
11236TIP3   OH255198   0.944   5.308   5.713 -0.5521 -0.4740 -0.0435
11236TIP3    H155199   0.940   5.214   5.697 -1.4678 -0.5875  0.7138
11236TIP3    H255200   0.894   5.321   5.794  1.1981  0.4388  0.9351
11237TIP3   OH255201   4.225   1.147   1.189  0.5520 -0.4466  0.1873
11237TIP3    H155202   4.152   1.156   1.128  1.2761 -0.8590 -0.7453
11237TIP3    H255203   4.183   1.144   1.275 -0.6064 -1.5807 -0.3842
11238TIP3   OH255204   6.030   0.752   1.729  0.1241 -0.5776  0.1473
11238TIP3    H155205   5.979   0.743   1.648  0.2814  1.0273 -0.1698
11238TIP3    H255206   6.103   0.808   1.704 -0.2472  0.6048  1.5740
11239TIP3   OH255207   1.158   6.548  12.735  0.0602  0.4597  0.0610
11239TIP3    H155208   1.092   6.542  12.804 -1.9453 -0.2349 -1.7911
11239TIP3    H255209   1.161   6.641  12.713 -0.5552  0.4597 -0.0483
11240TIP3   OH255210   5.462   3.297  14.166  0.4811 -0.1933 -0.2486
11240TIP3    H155211   5.549   3.290  14.204 -0.1826  1.0073  1.6637
11240TIP3    H255212   5.404   3.257  14.231 -0.4253 -0.8543 -1.4209
11241TIP3   OH255213   1.241   4.617  14.250  0.3345 -0.5517 -0.3094
11241TIP3    H155214   1.286   4.540  14.215  0.1503 -0.5021 -0.6620
11241TIP3    H255215   1.235   4.677  14.176 -2.7178 -1.6184 -1.1124
11242TIP3   OH255216   6.826   6.011   4.881 -0.0258  0.0356  0.4005
11242TIP3    H155217   6.871   5.932   4.910 -3.5922 -1.0143  3.9461
11242TIP3    H255218   6.801   5.993   4.791  2.1338 -1.3475  0.0046
11243TIP3   OH255219   2.814   2.745   1.831  0.0262 -0.9848 -0.1739
11243TIP3    H155220   2.739   2.768   1.777 -1.1613 -3.6078  0.2249
11243TIP3    H255221   2.867   2.825   1.834 -2.3658  0.7393 -1.0350
11244TIP3   OH255222   3.449   5.493  16.806 -0.5256  0.6023 -0.3629
11244TIP3    H155223   3.422   5.577  16.769  0.0613  0.5214 -0.9827
11244TIP3    H255224   3.462   5.437  16.730 -2.4952 -0.5557  0.0880
11245TIP3   OH255225   5.647   6.103  12.551  0.2333 -0.3195  0.5270
11245TIP3    H155226   5.552   6.117  12.544  0.5308  1.7541 -0.3084
11245TIP3    H255227   5.676   6.171  12.612  1.3969  0.3482 -0.7234
11246TIP3   OH255228   1.783   6.214  12.774 -0.1411  0.8400  0.3912
11246TIP3    H155229   1.696   6.190  12.743  0.9907 -0.8256 -1.7731
11246TIP3    H255230   1.817   6.276  12.709  0.3976  1.2686  1.0621
11247TIP3   OH255231   1.778   2.865  16.590  0.2827  0.3139  0.0746
11247TIP3    H155232   1.814   2.780  16.565 -2.1057 -0.7883  0.0850
11247TIP3    H255233   1.789   2.920  16.512 -0.4162 -0.8040 -0.8369
11248TIP3   OH255234   6.361   2.314   2.913 -0.0183 -0.3485 -0.0634
11248TIP3    H155235   6.414   2.256   2.858  0.8884  0.0708  0.3575
11248TIP3    H255236   6.281   2.263   2.931  0.1364 -0.8999 -0.8781
11249TIP3   OH255237   2.434   6.138   5.894 -0.0585  0.6066 -0.3296
11249TIP3    H155238   2.509   6.198   5.889  2.5891 -2.3312  0.6666
11249TIP3    H255239   2.415   6.116   5.803 -1.2358  2.9798 -0.7332
11250TIP3   OH255240   1.353   0.292  12.848  0.3102  0.1202  0.5192
11250TIP3    H155241   1.328   0.203  12.870  0.2981  0.1906  0.7945
11250TIP3    H255242   1.416   0.283  12.776 -0.6292 -0.0553 -0.3074
11251TIP3   OH255243   4.617   2.923  15.556  0.2532  0.3282 -0.1081
11251TIP3    H155244   4.567   2.951  15.479  0.8329  1.2025 -0.1879
11251TIP3    H255245   4.677   2.857  15.522  0.8688  1.0831 -0.5362
11252TIP3   OH255246   0.692   3.596  14.444  0.2128  0.2950  0.4329
11252TIP3    H155247   0.619   3.647  14.411 -0.7565 -1.7340 -0.7561
11252TIP3    H255248   0.684   3.601  14.539  0.4312  2.6385  0.3852
11253TIP3   OH255249   5.512   2.297   2.013 -0.0539 -0.1633 -0.0569
11253TIP3    H155250   5.569   2.220   2.005  2.2473  1.2387  1.4144
11253TIP3    H255251   5.549   2.345   2.087 -3.5615  0.6182  1.3785
11254TIP3   OH255252   1.545   5.628   5.301  0.1923 -0.5929  0.2277
11254TIP3    H155253   1.451   5.614   5.311  0.1097 -0.2830 -0.0740
11254TIP3    H255254   1.570   5.572   5.228  0.3741 -1.1923  0.7434
11255TIP3   OH255255   5.394   0.808  16.759  0.0806  0.3968 -0.0313
11255TIP3    H155256   5.426   0.718  16.773 -1.9871 -0.4005 -0.1487
11255TIP3    H255257   5.444   0.861  16.822  0.7472 -0.9544  0.6195
11256TIP3   OH255258   3.240   4.100  11.900 -0.7243 -0.2082 -0.1456
11256TIP3    H155259   3.284   4.048  11.967 -0.4508  1.3754  0.9435
11256TIP3    H255260   3.308   4.157  11.866 -1.3042  0.3282 -0.4211
11257TIP3   OH255261   1.648   4.471   4.141  0.2144  0.0819  0.6475
11257TIP3    H155262   1.649   4.561   4.173 -0.2715  0.6989 -0.9431
11257TIP3    H255263   1.575   4.469   4.078  0.1603 -1.4501  0.7208
11258TIP3   OH255264   6.771   5.126   5.652 -0.0585  0.3537  0.6855
11258TIP3    H155265   6.691   5.074   5.661  0.1143 -0.1866 -0.6032
11258TIP3    H255266   6.776   5.177   5.733 -0.4995 -1.2693  1.7981
11259TIP3   OH255267   0.311   5.944   3.786 -0.1901 -0.3141 -0.0750
11259TIP3    H155268   0.329   6.002   3.712  2.6419 -0.9367  0.0094
11259TIP3    H255269   0.305   6.003   3.862 -1.7463  0.1931 -0.5531
11260TIP3   OH255270   2.519   4.531   1.962  0.0490  0.1591 -0.3045
11260TIP3    H155271   2.474   4.563   2.040  0.6026 -1.5162  0.7386
11260TIP3    H255272   2.612   4.538   1.982  0.2222  0.4530 -1.1432
11261TIP3   OH255273   2.698   0.277   4.394  0.1317 -0.1056  0.4798
11261TIP3    H155274   2.643   0.354   4.379 -0.2197 -0.7158 -1.8601
11261TIP3    H255275   2.783   0.313   4.419 -0.3094  1.0061  0.4378
11262TIP3   OH255276   2.166   5.169   0.550  0.0271  0.2460  0.0400
11262TIP3    H155277   2.258   5.162   0.521  0.0523 -0.4119  0.2495
11262TIP3    H255278   2.170   5.156   0.644 -0.1552  1.4742  0.2267
11263TIP3   OH255279   5.726   4.544  13.825  0.0653 -0.2853 -0.2599
11263TIP3    H155280   5.795   4.575  13.766 -0.5030 -0.9853 -1.3335
11263TIP3    H255281   5.657   4.610  13.817  0.1435 -0.1829 -0.0853
11264TIP3   OH255282   0.810   2.920  15.748  0.1662 -0.1014  0.3298
11264TIP3    H155283   0.715   2.923  15.736  0.2664  0.3765 -0.4215
11264TIP3    H255284   0.829   2.987  15.813  0.2317  1.5739 -1.3460
11265TIP3   OH255285   5.639   6.369  15.614 -0.2575 -0.5899 -0.2053
11265TIP3    H155286   5.574   6.439  15.622 -0.6768 -1.1426  1.4631
11265TIP3    H255287   5.640   6.326  15.699  0.2099 -2.4468 -1.0857
11266TIP3   OH255288   6.329   4.628   4.784 -0.2457  0.2350  0.0369
11266TIP3    H155289   6.406   4.597   4.737  1.2457  3.2338  0.2664
11266TIP3    H255290   6.335   4.588   4.871 -0.0194 -1.0009 -0.5271
11267TIP3   OH255291   6.669   0.348  12.680  0.2737  0.3317  0.4061
11267TIP3    H155292   6.681   0.354  12.775 -0.1616 -0.3708  0.5112
11267TIP3    H255293   6.678   0.255  12.660  3.9751  0.7933 -0.7563
11268TIP3   OH255294   6.738   2.319  16.200 -0.4185  0.7617 -0.2395
11268TIP3    H155295   6.656   2.345  16.157 -0.1210  2.2131  0.0461
11268TIP3    H255296   6.806   2.368  16.155  0.2281  0.1301  0.0253
11269TIP3   OH255297   5.889   2.065  14.561 -0.2060 -0.4052  0.4277
11269TIP3    H155298   5.838   2.053  14.481 -3.0704  0.1248  2.0433
11269TIP3    H255299   5.927   1.978  14.577 -1.3590 -1.1024 -0.3789
11270TIP3   OH255300   2.380   4.131   1.688  0.4472 -0.3008 -0.1354
11270TIP3    H155301   2.310   4.192   1.712  0.2431 -1.0363  1.2402
11270TIP3    H255302   2.337   4.047   1.677  1.3745 -1.5057  3.8341
11271TIP3   OH255303   0.816   1.855  15.453  0.6642 -0.1169 -0.3380
11271TIP3    H155304   0.868   1.891  15.524  0.0215  0.6076 -0.2192
11271TIP3    H255305   0.755   1.926  15.429  0.8964 -0.3253 -1.6322
11272TIP3   OH255306   6.451   0.083   2.545  0.0531 -0.0164  0.1892
11272TIP3    H155307   6.468   0.142   2.618 -0.7945  0.0198  0.3628
11272TIP3    H255308   6.388   0.129   2.490  1.3197  0.3296 -1.0369
11273TIP3   OH255309   0.851   4.780  11.599 -0.0436 -0.2737 -0.9857
11273TIP3    H155310   0.821   4.773  11.690  0.2640 -0.7075 -0.9171
11273TIP3    H255311   0.942   4.806  11.605  0.5361 -2.1377 -1.1133
11274TIP3   OH255312   6.794   2.832   6.239 -0.4059  0.1192  0.5113
11274TIP3    H155313   6.791   2.802   6.148 -0.9787  0.0558  0.5506
11274TIP3    H255314   6.776   2.926   6.234  2.2955  0.7218  0.2935
11275TIP3   OH255315   6.174   2.635   0.214 -0.0750  0.1093 -0.8959
11275TIP3    H155316   6.215   2.574   0.275  0.7231  0.0020 -1.5137
11275TIP3    H255317   6.165   2.717   0.263 -1.8743 -0.6876  0.1915
11276TIP3   OH255318   0.517   0.416  15.918  0.0281  0.4324  0.3775
11276TIP3    H155319   0.479   0.423  15.830 -0.5264  0.8537  0.6492
11276TIP3    H255320   0.449   0.448  15.977 -0.5218 -2.0820  1.2095
11277TIP3   OH255321   4.622   3.955  12.417 -0.3574  0.3185 -0.0314
11277TIP3    H155322   4.573   3.919  12.490 -0.8167 -0.7341 -0.8287
11277TIP3    H255323   4.556   3.997  12.362 -0.2629 -0.3308 -0.6596
11278TIP3   OH255324   0.798   4.787   5.721  0.3065  0.2023  0.4197
11278TIP3    H155325   0.711   4.753   5.741  0.6746 -0.6597  0.6123
11278TIP3    H255326   0.856   4.711   5.729  0.9490  0.5518 -0.6278
11279TIP3   OH255327   6.268   2.619   1.834  0.0257  0.1073 -0.0420
11279TIP3    H155328   6.239   2.580   1.917 -1.8376 -0.0726 -0.7306
11279TIP3    H255329   6.200   2.683   1.813  1.6800  1.8796 -0.2822
11280TIP3   OH255330   1.499   0.474   3.702  0.1283  0.7144 -0.0325
11280TIP3    H155331   1.430   0.540   3.693  0.7910  1.4060 -0.1258
11280TIP3    H255332   1.524   0.477   3.794 -1.7781 -1.4148  0.6359
11281TIP3   OH255333   3.951   5.069   5.018  0.5951  0.1208  0.0158
11281TIP3    H155334   3.883   5.108   5.074  1.9180  3.8571 -0.7299
11281TIP3    H255335   3.946   5.118   4.937  2.5116 -1.3172 -1.0443
11282TIP3   OH255336   4.034   2.253   5.802  0.0283  0.4143  0.4955
11282TIP3    H155337   4.065   2.170   5.766  0.0145  0.3634  0.6010
11282TIP3    H255338   4.108   2.313   5.790  0.8858 -0.1814  2.4349
11283TIP3   OH255339   6.301   3.754  11.411 -0.1063  0.4429  0.3787
11283TIP3    H155340   6.300   3.813  11.486 -1.1043  1.4154 -0.3714
11283TIP3    H255341   6.326   3.809  11.337  3.1988 -0.9631  0.2973
11284TIP3   OH255342   6.113   4.395   1.833  0.5293  0.2382  0.7531
11284TIP3    H155343   6.090   4.477   1.877  0.6809 -0.0758  1.4295
11284TIP3    H255344   6.139   4.336   1.904 -0.8315 -0.8330  0.4186
11285TIP3   OH255345   2.088   4.221  15.137 -0.2790  0.1386 -0.3072
11285TIP3    H155346   2.107   4.302  15.185 -2.5056  0.5732 -0.0149
11285TIP3    H255347   2.086   4.153  15.205  1.0294 -0.0732 -0.4693
11286TIP3   OH255348   1.285   3.395   0.176  0.7219 -0.4060 -0.3026
11286TIP3    H155349   1.368   3.350   0.190  1.4971  1.2701  0.7974
11286TIP3    H255350   1.309   3.486   0.158 -0.8627  0.0897 -0.1416
11287TIP3   OH255351   0.670   5.559  13.880 -0.3639  0.6613 -0.4364
11287TIP3    H155352   0.755   5.595  13.855  0.5762 -0.6847  0.6667
11287TIP3    H255353   0.652   5.492  13.814 -0.4502  0.7519 -0.5064
11288TIP3   OH255354   6.237   5.896  11.487  0.7947  0.6908  0.8136
11288TIP3    H155355   6.305   5.914  11.553  0.1213  0.7079  1.5165
11288TIP3    H255356   6.253   5.961  11.418  0.5371  1.7311  1.7010
11289TIP3   OH255357   1.122   6.005   0.243 -0.0217 -0.4362  0.4137
11289TIP3    H155358   1.163   5.995   0.157 -0.0945 -1.2855  0.4745
11289TIP3    H255359   1.035   5.968   0.233 -0.8531  1.4379  0.2661
11290TIP3   OH255360   4.611   1.085   2.854  1.1309  0.1888  0.2967
11290TIP3    H155361   4.516   1.098   2.855  0.9010 -1.2005  2.0836
11290TIP3    H255362   4.647   1.172   2.835 -0.4900  0.5515 -1.3232
11291TIP3   OH255363   5.598   3.119   5.084  0.0183  0.7652  0.8782
11291TIP3    H155364   5.619   3.049   5.022  0.3979  0.1763  1.6507
11291TIP3    H255365   5.526   3.167   5.043 -1.7853 -1.4040  1.2802
11292TIP3   OH255366   6.501   3.345   1.729 -0.1312  0.3696  0.1767
11292TIP3    H155367   6.526   3.252   1.724  0.8216  0.4984  1.7446
11292TIP3    H255368   6.431   3.348   1.794  2.0078  1.0585  2.6111
11293TIP3   OH255369   5.258   3.887   5.641  0.0626  0.3932  0.2868
11293TIP3    H155370   5.209   3.942   5.703  1.6125  1.6693  0.4378
11293TIP3    H255371   5.290   3.948   5.575 -0.2775 -0.7382 -0.9642
11294TIP3   OH255372   3.411   3.041  11.605 -0.0735 -0.4954  0.0340
11294TIP3    H155373   3.352   3.115  11.621  0.5752 -0.1389  0.8819
11294TIP3    H255374   3.377   2.971  11.661  0.7513 -0.0279  1.1782
11295TIP3   OH255375   1.758   1.271   0.851  0.3383  0.3043  0.3278
11295TIP3    H155376   1.725   1.361   0.850  0.9739  0.5441  0.1702
11295TIP3    H255377   1.780   1.255   0.943 -1.9238 -0.5224  0.7977
11296TIP3   OH255378   5.000   4.566   2.183 -0.3740  0.3329 -0.2526
11296TIP3    H155379   4.977   4.596   2.271  0.9557 -0.1583  0.2973
11296TIP3    H255380   5.069   4.627   2.155  0.8992 -0.9138  0.0426
11297TIP3   OH255381   2.494   5.093  12.962 -0.3610  0.0624 -0.0827
11297TIP3    H155382   2.398   5.091  12.969 -0.4242 -1.0729 -0.9985
11297TIP3    H255383   2.518   5.002  12.943  0.6788  0.7790 -2.4932
11298TIP3   OH255384   6.329   2.375   0.040 -0.0014  0.3278 -0.3004
11298TIP3    H155385   6.322   2.335  -0.047 -0.5373 -0.5346  0.1144
11298TIP3    H255386   6.238   2.396   0.064  0.1519  0.6532  0.0033
11299TIP3   OH255387   0.549   2.150  13.837 -0.1260  0.1160 -0.5720
11299TIP3    H155388   0.489   2.225  13.835 -1.0295 -0.6098 -1.4945
11299TIP3    H255389   0.598   2.158  13.755  1.0676  0.7047  0.1779
11300TIP3   OH255390   3.702   6.765  17.187  0.4301 -0.0270  0.3789
11300TIP3    H155391   3.645   6.772  17.111  1.4486  1.9249 -0.2581
11300TIP3    H255392   3.768   6.700  17.162  0.5645  0.3632 -0.2817
11301TIP3   OH255393   5.132   5.725  15.996  0.1557 -0.8325  0.1236
11301TIP3    H155394   5.067   5.721  16.066 -0.8337 -1.1852 -0.7885
11301TIP3    H255395   5.087   5.689  15.920  0.6506  1.0058 -1.1074
11302TIP3   OH255396   3.613   6.029   4.932 -0.3327 -0.1429 -0.3022
11302TIP3    H155397   3.595   5.975   5.008 -1.4944 -0.1642 -0.5713
11302TIP3    H255398   3.703   6.060   4.945 -0.7914  0.5465  1.4902
11303TIP3   OH255399   4.852   2.763  15.464 -0.5221 -0.1715 -0.4440
11303TIP3    H155400   4.903   2.795  15.538  0.6452 -2.0573 -0.3676
11303TIP3    H255401   4.916   2.749  15.394 -1.5059  0.9255 -1.6358
11304TIP3   OH255402   0.980   3.421   2.466  0.7599 -0.2664  0.2834
11304TIP3    H155403   1.000   3.463   2.549  2.2376 -1.0973  0.3833
11304TIP3    H255404   1.053   3.362   2.451 -0.3165 -1.3969 -0.7748
11305TIP3   OH255405   4.465   3.892  11.162 -0.3018  0.5992  0.3291
11305TIP3    H155406   4.547   3.879  11.209 -1.1720 -0.8668  1.5446
11305TIP3    H255407   4.413   3.950  11.218  0.2734  2.4710 -0.9758
11306TIP3   OH255408   3.822   1.386   3.538 -0.6918 -1.0435  0.1796
11306TIP3    H155409   3.755   1.453   3.553  0.3518  0.6130 -1.9627
11306TIP3    H255410   3.821   1.372   3.443  3.5640  0.9833 -0.4228
11307TIP3   OH255411   4.737   4.335  14.299 -0.5699  0.5631  0.9950
11307TIP3    H155412   4.727   4.264  14.235  1.0648 -0.7959  2.1610
11307TIP3    H255413   4.807   4.306  14.356 -1.5470  2.0102  3.0616
11308TIP3   OH255414   1.825   0.774  16.149  0.6826  0.0848  0.3702
11308TIP3    H155415   1.864   0.859  16.132  2.3027 -0.4135  1.3197
11308TIP3    H255416   1.753   0.792  16.209 -0.1878  0.9569 -0.8782
11309TIP3   OH255417   3.939   0.515   3.755 -0.0290 -0.2337 -0.3725
11309TIP3    H155418   3.992   0.555   3.686 -0.9897  0.1614 -0.9155
11309TIP3    H255419   3.906   0.588   3.806 -1.0460 -0.3656 -0.8058
11310TIP3   OH255420   6.303   2.317   3.836 -0.1136 -0.3202 -0.0486
11310TIP3    H155421   6.372   2.261   3.801  0.3273 -0.3484  0.8321
11310TIP3    H255422   6.328   2.405   3.809 -0.5698 -0.4812 -1.0519
11311TIP3   OH255423   3.028   4.454   5.832 -0.4334  0.3105 -0.3697
11311TIP3    H155424   3.099   4.424   5.889  0.0831 -0.0841 -1.2112
11311TIP3    H255425   2.953   4.401   5.858  0.0091 -0.4368 -0.6111
11312TIP3   OH255426   5.073   4.346   2.032  0.1834  0.3313 -0.4487
11312TIP3    H155427   5.034   4.373   1.949  0.8189  0.5898 -0.6665
11312TIP3    H255428   5.069   4.424   2.087 -0.0222  0.2265 -0.3122
11313TIP3   OH255429   3.277   5.711  11.214 -0.1618 -0.3924  0.4151
11313TIP3    H155430   3.249   5.791  11.261  1.2671  0.0265  0.6033
11313TIP3    H255431   3.370   5.703  11.235  0.6192 -0.0663 -2.5349
11314TIP3   OH255432   5.387   2.811  14.700 -0.0458  0.5298  0.2723
11314TIP3    H155433   5.410   2.766  14.781  0.5748  1.9766  0.9533
11314TIP3    H255434   5.344   2.891  14.729  1.0561  1.5518 -0.7624
11315TIP3   OH255435   1.352   5.316   2.133 -0.1404 -0.9202  0.2999
11315TIP3    H155436   1.262   5.284   2.146  0.1782 -1.5269  1.0959
11315TIP3    H255437   1.378   5.280   2.049 -0.7720 -0.4134 -0.1283
11316TIP3   OH255438   5.014   2.316  15.476  0.7391  0.5357  0.4285
11316TIP3    H155439   4.959   2.238  15.485 -0.7059  1.7075  2.7262
11316TIP3    H255440   5.074   2.312  15.551 -0.4323  2.3564  1.5374
11317TIP3   OH255441   2.133   4.546  11.933  0.0348 -0.0528  0.2517
11317TIP3    H155442   2.180   4.505  12.005  0.8956  1.6734  0.7118
11317TIP3    H255443   2.193   4.613  11.900 -0.8066 -0.0228 -1.3333
11318TIP3   OH255444   0.129   3.546  12.498  0.4705  0.3040  0.6985
11318TIP3    H155445   0.073   3.601  12.445  0.1721 -0.7696 -0.1443
11318TIP3    H255446   0.144   3.596  12.578 -1.9930  0.4606  1.1228
11319TIP3   OH255447   6.265   5.033   0.046 -0.4488  0.5776 -0.0610
11319TIP3    H155448   6.275   5.072   0.134 -0.4022  0.9341 -0.2212
11319TIP3    H255449   6.345   5.059   0.000 -0.2069 -0.0939 -0.0295
11320TIP3   OH255450   5.727   3.795   5.255 -0.4357  0.2770 -0.4001
11320TIP3    H155451   5.659   3.730   5.236  0.1238 -0.9347  1.5004
11320TIP3    H255452   5.781   3.796   5.176 -0.1551 -2.0001 -0.3096
11321TIP3   OH255453   6.353   1.454   3.316 -0.7838 -0.3143 -0.0198
11321TIP3    H155454   6.261   1.480   3.317 -0.6583  0.1199  1.2076
11321TIP3    H255455   6.379   1.464   3.224 -2.2216 -1.4439 -0.5984
11322TIP3   OH255456   5.453   0.090  12.945  0.3328  0.0245  0.0620
11322TIP3    H155457   5.510   0.060  12.874 -0.1310  1.1020 -0.7862
11322TIP3    H255458   5.458   0.020  13.010 -1.0902 -2.1653 -2.0167
11323TIP3   OH255459   0.456   4.453  10.535  0.1342  0.0973 -0.2120
11323TIP3    H155460   0.412   4.530  10.570  0.0499  0.1845 -0.5072
11323TIP3    H255461   0.442   4.385  10.601  2.0329  0.8901  1.1202
11324TIP3   OH255462   1.515   3.107  16.204  0.8414  0.3256 -0.3780
11324TIP3    H155463   1.515   3.087  16.111  1.0275 -2.6931  0.1940
11324TIP3    H255464   1.433   3.069  16.237  1.9203 -0.8331  1.0797
11325TIP3   OH255465   0.105   5.337  14.068 -0.4707 -0.2290  0.4944
11325TIP3    H155466   0.047   5.310  14.140  1.0292  0.7185  2.1450
11325TIP3    H255467   0.131   5.426  14.091  1.1863 -0.4258 -0.4665
11326TIP3   OH255468   3.565   0.646  10.999  0.0327 -0.2127 -0.1319
11326TIP3    H155469   3.638   0.626  11.057  1.8749  2.2083 -1.4220
11326TIP3    H255470   3.584   0.598  10.918  0.9449  1.3352 -0.8951
11327TIP3   OH255471   4.645   6.418   0.129 -0.6970 -0.3866 -0.1860
11327TIP3    H155472   4.727   6.387   0.093 -0.1237 -0.0037  0.7448
11327TIP3    H255473   4.663   6.507   0.158 -1.5200 -0.1950 -0.2222
11328TIP3   OH255474   2.017   2.317   6.546 -0.1280 -0.4670 -0.0087
11328TIP3    H155475   2.005   2.370   6.467  0.0895 -0.7466 -0.2313
11328TIP3    H255476   1.958   2.356   6.610 -0.4223 -0.3347 -0.3569
11329TIP3   OH255477   6.730   5.213   5.928  0.2077  0.1570 -0.1257
11329TIP3    H155478   6.784   5.278   5.972 -0.2871 -0.2443  1.1302
11329TIP3    H255479   6.640   5.239   5.948 -0.0100 -0.4840 -0.2372
11330TIP3   OH255480   0.514   3.509  11.927 -0.4057  0.4533 -0.2527
11330TIP3    H155481   0.576   3.560  11.876  1.0345 -0.0650  0.9059
11330TIP3    H255482   0.440   3.568  11.941  0.4044  1.5564 -0.5366
11331TIP3   OH255483   4.130   3.616  14.653  0.1570 -0.0185 -0.0157
11331TIP3    H155484   4.052   3.560  14.657  0.5605 -0.5193  1.3006
11331TIP3    H255485   4.103   3.689  14.598 -0.9893 -0.5695 -0.2352
11332TIP3   OH255486   4.496   2.236   4.653 -0.0662  0.2935  0.0696
11332TIP3    H155487   4.493   2.277   4.740 -0.3683 -0.3989  0.3941
11332TIP3    H255488   4.589   2.221   4.637  0.2672  2.8588 -0.9175
11333TIP3   OH255489   3.216   6.733  15.805 -0.3718  0.4825 -0.1590
11333TIP3    H155490   3.292   6.675  15.803  0.1380  1.0557  1.3664
11333TIP3    H255491   3.239   6.805  15.747  0.4472  0.8580  0.6046
11334TIP3   OH255492   4.949   3.353  13.613  0.4269  0.5058  0.2964
11334TIP3    H155493   5.010   3.321  13.680  0.5858  1.4439  0.6110
11334TIP3    H255494   4.873   3.383  13.663  0.2022  0.4584 -0.0126
11335TIP3   OH255495   1.516   1.347   2.627  0.3835 -0.6311 -0.3422
11335TIP3    H155496   1.462   1.416   2.591  1.3166 -0.5734 -1.7297
11335TIP3    H255497   1.513   1.360   2.722 -2.1702 -0.7828 -0.3457
11336TIP3   OH255498   2.567   3.965   4.269  0.5073  0.2578  0.1671
11336TIP3    H155499   2.583   3.982   4.176  1.9226  0.6327  0.4507
11336TIP3    H255500   2.654   3.967   4.309  0.1777 -1.9694  1.1827
11337TIP3   OH255501   3.975   4.173   2.697 -0.0831 -0.4527 -0.1912
11337TIP3    H155502   3.996   4.212   2.782 -0.8098  1.9436 -1.0492
11337TIP3    H255503   3.881   4.188   2.686 -0.4300 -2.5659 -0.5643
11338TIP3   OH255504   2.396   3.589  12.213  0.5908 -0.0461 -0.3201
11338TIP3    H155505   2.436   3.675  12.221 -1.9239  1.2261 -0.4354
11338TIP3    H255506   2.347   3.593  12.130 -0.1925 -1.2784  0.0549
11339TIP3   OH255507   2.668   2.321  12.164  0.2602  0.2562  0.0299
11339TIP3    H155508   2.616   2.290  12.089  0.1902  0.3053  0.0574
11339TIP3    H255509   2.634   2.272  12.239 -0.0640  0.6161  0.1269
11340TIP3   OH255510   6.503   4.248   5.803 -0.0993 -0.2511  0.2690
11340TIP3    H155511   6.582   4.254   5.857  1.9684 -2.1698 -2.2586
11340TIP3    H255512   6.503   4.329   5.752 -0.7660  0.5041  1.4129
11341TIP3   OH255513   5.580   2.755  13.658 -0.0899  0.1337  0.2280
11341TIP3    H155514   5.672   2.781  13.662 -0.5860  2.4384 -1.4076
11341TIP3    H255515   5.545   2.776  13.744  1.2938 -2.8384  1.6710
11342TIP3   OH255516   1.877   3.349  12.989 -0.0281 -0.2489 -0.1207
11342TIP3    H155517   1.926   3.397  12.923 -1.0041  2.2588  0.8382
11342TIP3    H255518   1.832   3.417  13.039 -0.9517 -2.1676  1.8209
11343TIP3   OH255519   3.301   1.123  12.031  0.2901  0.5655 -0.2887
11343TIP3    H155520   3.286   1.059  12.100  0.5162  0.4383 -0.3568
11343TIP3    H255521   3.213   1.147  12.001  0.1871  0.7152  0.1271
11344TIP3   OH255522   5.553   5.758  11.741  0.5444  0.4807  0.3057
11344TIP3    H155523   5.590   5.774  11.654  1.2746 -0.2177  0.4749
11344TIP3    H255524   5.510   5.840  11.764 -0.3844  0.4203 -1.0635
11345TIP3   OH255525   5.308   4.916  15.398  0.5315 -0.8105  1.0219
11345TIP3    H155526   5.335   4.853  15.330 -0.4609  0.7325 -0.9069
11345TIP3    H255527   5.344   4.999  15.369  2.0907 -0.4440  3.7105
11346TIP3   OH255528   2.183   3.197  11.753 -0.2908  0.6682  0.6588
11346TIP3    H155529   2.257   3.225  11.701 -1.3202  0.0406 -1.2402
11346TIP3    H255530   2.196   3.103  11.765 -0.7786  0.5454  0.2742
11347TIP3   OH255531   4.879   2.234  13.291 -0.4801 -0.2346  0.4039
11347TIP3    H155532   4.906   2.179  13.365 -0.0966 -1.7726 -0.8204
11347TIP3    H255533   4.784   2.221  13.285 -0.7377  0.9490  1.4008
11348TIP3   OH255534   5.375   5.374   2.600  0.0265 -0.1755  0.4348
11348TIP3    H155535   5.320   5.297   2.588  0.7427 -0.8714  1.4819
11348TIP3    H255536   5.418   5.386   2.516  0.8078 -1.6532  0.5845
11349TIP3   OH255537   1.113   1.944   0.636 -0.2784 -0.3136 -0.2777
11349TIP3    H155538   1.023   1.930   0.610  0.4829 -0.8470 -2.9148
11349TIP3    H255539   1.124   1.891   0.715 -2.1899 -0.3989 -0.0296
11350TIP3   OH255540   6.095   2.728  14.521 -0.3257 -0.1686 -0.1125
11350TIP3    H155541   6.190   2.736  14.534  0.1018 -2.3760 -1.2946
11350TIP3    H255542   6.086   2.695  14.431 -2.3186  1.1192 -0.4631
11351TIP3   OH255543   6.513   4.123  12.941 -0.3272  0.0235  0.1750
11351TIP3    H155544   6.492   4.205  12.985 -0.2405  0.9429 -1.4321
11351TIP3    H255545   6.434   4.070  12.949 -0.9927  0.9336 -0.2419
11352TIP3   OH255546   5.910   6.232   0.389 -0.2722  0.2134 -0.5068
11352TIP3    H155547   5.895   6.297   0.320  3.3011  1.9737  0.1099
11352TIP3    H255548   5.883   6.276   0.470  0.2981  0.1673 -0.2882
11353TIP3   OH255549   0.117   2.494  14.589 -0.5985 -0.6498 -0.2860
11353TIP3    H155550   0.073   2.425  14.638 -0.0221  0.6557  2.2190
11353TIP3    H255551   0.088   2.575  14.630  0.4080  0.5145 -1.7491
11354TIP3   OH255552   3.049   1.067  12.832  0.2101  0.2405  0.0568
11354TIP3    H155553   3.003   0.997  12.786 -0.9623 -1.9097  4.1201
11354TIP3    H255554   2.980   1.116  12.877  1.3667  1.5940  0.4451
11355TIP3   OH255555   3.953   6.015   5.758 -0.1630  0.1764  0.0458
11355TIP3    H155556   4.003   5.941   5.794 -0.6174 -0.5413 -0.7540
11355TIP3    H255557   4.020   6.073   5.721  0.0735 -1.1744 -1.7499
11356TIP3   OH255558   3.355   3.845  12.045 -0.0097  0.9332 -0.1196
11356TIP3    H155559   3.381   3.776  12.106 -2.7243  1.4905  1.8826
11356TIP3    H255560   3.423   3.911  12.054 -0.3552  1.0681  2.5560
11357TIP3   OH255561   6.351   5.323  11.939 -0.0636  0.1993  0.0727
11357TIP3    H155562   6.394   5.257  11.994 -1.4276 -0.1983  0.7177
11357TIP3    H255563   6.421   5.359  11.886  0.8383 -1.3355  0.1448
11358TIP3   OH255564   0.665   3.428  10.773  0.2821 -0.3519 -0.0716
11358TIP3    H155565   0.719   3.370  10.827  0.8171  0.3662  0.1771
11358TIP3    H255566   0.683   3.400  10.683  1.3814  0.1283 -0.0206
11359TIP3   OH255567   4.812   0.043   1.359 -1.0527  0.2012 -0.4868
11359TIP3    H155568   4.865  -0.004   1.423 -0.0985  0.0141 -1.3715
11359TIP3    H255569   4.732  -0.009   1.350 -0.7437 -0.3276 -0.2051
11360TIP3   OH255570   2.321   2.249  14.518 -0.5202 -0.1249  0.3599
11360TIP3    H155571   2.412   2.229  14.496 -0.6436  0.0236 -0.2842
11360TIP3    H255572   2.269   2.207  14.450 -0.9949 -0.9938  1.2331
11361TIP3   OH255573   6.171   0.161  15.583  0.4310  0.3034 -0.8872
11361TIP3    H155574   6.167   0.245  15.628 -1.2564  0.7640 -1.7963
11361TIP3    H255575   6.237   0.111  15.631  0.9792  1.8892  0.0901
11362TIP3   OH255576   3.622   6.680  11.095 -0.0639 -0.2190 -0.0649
11362TIP3    H155577   3.629   6.773  11.115 -2.5473  0.0254 -0.0715
11362TIP3    H255578   3.644   6.636  11.178 -1.4043  0.4883  0.7036
11363TIP3   OH255579   2.622   5.082  13.320 -0.6305 -0.0714  0.3166
11363TIP3    H155580   2.540   5.131  13.314 -1.0956 -0.9980 -1.2873
11363TIP3    H255581   2.603   4.997  13.282  1.4325  0.1718 -1.5033
11364TIP3   OH255582   5.839   3.916   1.220  0.2266 -0.4647  0.2034
11364TIP3    H155583   5.802   3.829   1.207  2.3272 -1.1982 -1.5125
11364TIP3    H255584   5.848   3.952   1.131  0.7093  0.9268  0.7854
11365TIP3   OH255585   4.915   2.761   3.602  0.4823  0.4288 -0.0290
11365TIP3    H155586   4.945   2.693   3.663  0.3270 -2.4230 -2.8452
11365TIP3    H255587   4.991   2.819   3.591  1.6986 -1.0387  0.2908
11366TIP3   OH255588   0.855   1.675   1.631 -0.4858 -0.9579 -0.6522
11366TIP3    H155589   0.920   1.630   1.577 -1.5582 -2.0286 -1.1073
11366TIP3    H255590   0.834   1.612   1.700  0.9486  0.4303  1.1582
11367TIP3   OH255591   3.731   6.600  14.784  0.1850 -0.1537  0.5183
11367TIP3    H155592   3.811   6.653  14.788  0.0348  0.1793 -0.6114
11367TIP3    H255593   3.725   6.573  14.693 -1.5656  0.6845  0.3606
11368TIP3   OH255594   6.279   0.911  12.117 -0.3414  0.2229 -0.4115
11368TIP3    H155595   6.207   0.907  12.053 -0.1867 -0.5274 -0.5501
11368TIP3    H255596   6.252   0.853  12.187  0.6140 -0.9386 -0.9793
11369TIP3   OH255597   4.281   3.402  11.844  0.1624  0.3979  0.1363
11369TIP3    H155598   4.234   3.483  11.862  0.5361  0.4341  0.9734
11369TIP3    H255599   4.219   3.350  11.793 -0.3093  0.9601  0.1263
11370TIP3   OH255600   3.727   5.870  12.437  0.8067 -0.3551 -0.3576
11370TIP3    H155601   3.673   5.802  12.396  0.5093 -0.8073  0.7293
11370TIP3    H255602   3.683   5.952  12.414  0.7634 -0.5755 -1.0946
11371TIP3   OH255603   6.486   0.781  11.645  0.2951  0.1599 -0.1752
11371TIP3    H155604   6.476   0.768  11.551 -1.2171 -1.1599  0.1145
11371TIP3    H255605   6.521   0.698  11.678 -0.3555  0.1637  0.5617
11372TIP3   OH255606   2.449   0.455  12.289  0.1786 -0.3592  0.6588
11372TIP3    H155607   2.519   0.427  12.349  0.5761  1.6696  1.2388
11372TIP3    H255608   2.478   0.541  12.257 -1.6834  0.1797  0.2902
11373TIP3   OH255609   4.492   1.896   4.954 -0.1603 -0.0511  0.1310
11373TIP3    H155610   4.442   1.822   4.989 -0.1256 -0.7000 -1.0961
11373TIP3    H255611   4.581   1.883   4.987 -0.2223 -0.4095  0.1678
11374TIP3   OH255612   6.498   0.757  13.095 -0.0694  1.0368  0.2040
11374TIP3    H155613   6.450   0.692  13.147 -0.2003  0.1449 -0.9859
11374TIP3    H255614   6.502   0.834  13.151  1.2567 -0.3939  2.2425
11375TIP3   OH255615   5.025   6.512  14.989 -0.3313 -0.1415  0.0032
11375TIP3    H155616   5.076   6.454  14.933 -1.1348 -0.6194 -0.2398
11375TIP3    H255617   4.954   6.544  14.934 -0.8395 -0.2173  0.6021
11376TIP3   OH255618   0.947   3.815  13.143  0.1444 -0.2364 -0.1975
11376TIP3    H155619   0.944   3.833  13.238  2.3692  1.4347 -0.3453
11376TIP3    H255620   0.881   3.873  13.106 -0.8402 -1.0017  0.3201
11377TIP3   OH255621   2.928   1.727  12.749 -0.5951  0.0765  0.0011
11377TIP3    H155622   2.978   1.651  12.780  0.2845  0.3739 -0.6377
11377TIP3    H255623   2.853   1.731  12.808 -1.3577 -2.0432 -0.7141
11378TIP3   OH255624   5.181   0.240  13.673  0.4960 -0.8035  0.1133
11378TIP3    H155625   5.185   0.263  13.766 -0.1540  1.0335 -0.2770
11378TIP3    H255626   5.196   0.145  13.671 -1.4971 -1.2452  2.2634
11379TIP3   OH255627   5.483   2.860   3.288  0.8150 -0.0750 -0.4851
11379TIP3    H155628   5.563   2.814   3.315  0.2579 -0.1159  1.1755
11379TIP3    H255629   5.509   2.952   3.283  0.8049  0.0165  0.8141
11380TIP3   OH255630   2.807   5.025   5.830 -0.2894  0.9387  0.2027
11380TIP3    H155631   2.899   5.050   5.844  0.9243 -2.2073 -1.2273
11380TIP3    H255632   2.771   5.018   5.918  0.9699  1.8094  0.8186
11381TIP3   OH255633   1.848   0.874   5.611 -0.0169  0.5582  0.0370
11381TIP3    H155634   1.884   0.963   5.621 -1.7471  1.2704  0.2055
11381TIP3    H255635   1.777   0.884   5.548 -0.6287 -0.5914  0.5188
11382TIP3   OH255636   5.081   3.082   1.032  0.2455  0.3526 -0.1647
11382TIP3    H155637   5.122   3.045   1.110  0.6359  1.2039  0.0500
11382TIP3    H255638   5.150   3.135   0.992 -0.0019  0.0628 -1.0000
11383TIP3   OH255639   5.753   3.714   5.538  0.0248 -0.3952  0.0052
11383TIP3    H155640   5.674   3.729   5.590 -1.2332  1.0468 -2.1663
11383TIP3    H255641   5.734   3.754   5.454  3.5246  1.0170 -0.2707
11384TIP3   OH255642   1.049   0.561  16.711  0.0777 -0.1506  0.0420
11384TIP3    H155643   1.080   0.624  16.776  0.3571  0.3182 -0.5350
11384TIP3    H255644   1.119   0.497  16.704  1.1511  1.1202 -1.5481
11385TIP3   OH255645   4.968   6.629   6.416  0.1269  0.1947 -0.4596
11385TIP3    H155646   4.899   6.566   6.435 -0.2418  0.5865 -0.4685
11385TIP3    H255647   5.013   6.643   6.499  0.4534 -0.3595 -0.5399
11386TIP3   OH255648   1.341   6.067  16.617 -0.2098  0.2088  0.2161
11386TIP3    H155649   1.343   6.006  16.544 -1.2630  1.4539 -0.9154
11386TIP3    H255650   1.358   6.013  16.695  1.4364 -1.0644 -0.9657
11387TIP3   OH255651   1.251   5.276   2.676  0.3463  0.0303  0.2435
11387TIP3    H155652   1.176   5.305   2.625  0.9306  0.7289 -0.2441
11387TIP3    H255653   1.320   5.261   2.611  0.6835 -0.4250  0.6982
11388TIP3   OH255654   2.699   6.231  15.639  0.0404  0.0971  0.1999
11388TIP3    H155655   2.684   6.202  15.549  0.6376  1.1294 -0.2535
11388TIP3    H255656   2.699   6.151  15.690  1.4052 -0.7006 -0.9689
11389TIP3   OH255657   3.143   2.083   3.764  0.1090 -0.0113 -0.2681
11389TIP3    H155658   3.139   2.072   3.859 -0.2963 -0.2091 -0.3091
11389TIP3    H255659   3.225   2.039   3.738  0.2779  0.1457  0.0026
11390TIP3   OH255660   3.712   4.764  12.831  0.3070 -0.0403  0.4000
11390TIP3    H155661   3.740   4.691  12.776 -0.3527 -0.9799  1.2614
11390TIP3    H255662   3.716   4.840  12.774  1.3834 -0.6841 -0.4175
11391TIP3   OH255663   1.996   4.986  13.552  0.5791  0.6140  0.5819
11391TIP3    H155664   1.907   4.955  13.568  0.1094  0.4302 -1.9363
11391TIP3    H255665   1.992   5.080  13.571  0.0703  0.4711  1.2205
11392TIP3   OH255666   4.339   6.445   0.911  0.2150 -0.1316 -0.1473
11392TIP3    H155667   4.259   6.405   0.943  0.1853  0.2083  0.2063
11392TIP3    H255668   4.410   6.398   0.956  0.2083 -0.2919 -0.3030
11393TIP3   OH255669   5.021   3.757  12.115  0.1072  0.3343 -0.0613
11393TIP3    H155670   5.071   3.730  12.038 -0.0383  0.4331 -0.1925
11393TIP3    H255671   4.930   3.751  12.087  0.0897  1.7805 -0.3789
11394TIP3   OH255672   1.816   1.958  14.867  0.5565  0.0578 -0.0506
11394TIP3    H155673   1.798   2.042  14.909  1.9743  0.6804 -0.6200
11394TIP3    H255674   1.760   1.895  14.912  0.6485  1.0295  1.4662
11395TIP3   OH255675   3.263   4.372  13.249  0.7312 -0.2656  0.0566
11395TIP3    H155676   3.286   4.307  13.315 -1.7394 -1.1471  0.1556
11395TIP3    H255677   3.210   4.324  13.185  0.5720  1.2259 -0.9840
11396TIP3   OH255678   3.606   1.015   2.700 -0.0977  0.2742 -1.1463
11396TIP3    H155679   3.612   0.944   2.764 -1.7456  0.9652 -0.1714
11396TIP3    H255680   3.682   1.002   2.643  1.4237 -0.3664  0.9299
11397TIP3   OH255681   4.756   5.112   6.424  0.3768 -0.3290  0.1864
11397TIP3    H155682   4.850   5.116   6.443  0.6938 -2.9695 -0.4749
11397TIP3    H255683   4.725   5.037   6.474 -1.8300  1.5121  1.8237
11398TIP3   OH255684   0.375   1.353   1.610  0.1764 -0.1782 -0.3583
11398TIP3    H155685   0.435   1.393   1.673  0.3445 -2.0177  0.7218
11398TIP3    H255686   0.298   1.409   1.611  0.8733  0.8063  0.1235
11399TIP3   OH255687   4.492   4.651  16.279 -0.3415 -0.9706 -0.0361
11399TIP3    H155688   4.496   4.698  16.196  0.8254 -0.1780  0.4403
11399TIP3    H255689   4.399   4.638  16.295 -0.9459  2.8726  0.6907
11400TIP3   OH255690   3.499   5.724  15.892  0.4250  0.1343  0.1704
11400TIP3    H155691   3.438   5.791  15.924  0.4581 -0.2361  1.0612
11400TIP3    H255692   3.585   5.755  15.920  0.5943  0.3772 -0.5944
11401TIP3   OH255693   2.921   3.481  15.989 -0.0900  0.2488  0.2118
11401TIP3    H155694   2.943   3.573  16.003 -0.1758  0.3459 -0.2755
11401TIP3    H255695   2.922   3.442  16.077 -2.0897  1.1556  0.7046
11402TIP3   OH255696   4.003   6.249   6.385 -0.1848 -0.6494  0.7700
11402TIP3    H155697   3.947   6.320   6.355  0.0011 -0.8837 -0.1620
11402TIP3    H255698   3.949   6.200   6.447 -0.0765  0.6872  1.9549
11403TIP3   OH255699   6.770   0.195  13.864  0.4000  0.3101 -0.7203
11403TIP3    H155700   6.849   0.237  13.897  0.5699  0.4912 -1.3521
11403TIP3    H255701   6.800   0.138  13.794  0.0221  0.0296 -0.6579
11404TIP3   OH255702   0.911   3.726  11.264 -0.3884  0.0022 -0.0423
11404TIP3    H155703   0.955   3.806  11.293  0.5053 -0.4247 -0.1618
11404TIP3    H255704   0.945   3.711  11.176 -1.3033  0.0197 -0.4104
11405TIP3   OH255705   6.100   6.277  15.706 -0.0536 -0.4493 -0.0488
11405TIP3    H155706   6.044   6.257  15.631  0.4366  0.1781 -0.5901
11405TIP3    H255707   6.188   6.251  15.679  0.2197  0.3023  0.0798
11406TIP3   OH255708   6.095   0.206  11.001 -0.2453 -0.4168 -0.4704
11406TIP3    H155709   6.062   0.169  10.920 -0.7336 -0.0751 -0.4353
11406TIP3    H255710   6.034   0.175  11.068 -0.3170 -0.0368 -0.3560
11407TIP3   OH255711   5.024   4.197   5.233 -0.0167  0.0586 -0.1984
11407TIP3    H155712   5.046   4.175   5.324  0.3867 -0.1278 -0.3408
11407TIP3    H255713   5.097   4.253   5.204 -0.3259  0.4195 -0.2929
11408TIP3   OH255714   0.464   0.058   3.290 -0.3420 -0.3781  0.0926
11408TIP3    H155715   0.470   0.091   3.379 -2.6385  0.7383 -0.1050
11408TIP3    H255716   0.542   0.094   3.246  1.2568 -1.6089  1.7796
11409TIP3   OH255717   0.803   5.747  12.225 -0.6076  0.4401  0.1884
11409TIP3    H155718   0.820   5.831  12.182  2.1267  0.0182  0.2593
11409TIP3    H255719   0.841   5.682  12.165  0.7373 -0.3896  1.8405
11410TIP3   OH255720   3.680   5.707  13.088 -0.0507 -0.1695 -0.0655
11410TIP3    H155721   3.623   5.674  13.157  0.5301 -0.0735  0.4726
11410TIP3    H255722   3.651   5.661  13.009 -1.8512  0.9793 -0.1219
11411TIP3   OH255723   1.026   1.147  14.960 -0.1475  0.1117 -0.3373
11411TIP3    H155724   1.120   1.131  14.975 -0.1699 -0.2093 -0.5295
11411TIP3    H255725   1.005   1.094  14.883  0.1647  2.3940 -2.1103
11412TIP3   OH255726   1.593   3.807  12.276 -0.2387 -0.0948 -0.1412
11412TIP3    H155727   1.645   3.883  12.249 -0.4050  1.1011  2.5334
11412TIP3    H255728   1.653   3.755  12.330 -0.9190 -0.3267  0.4095
11413TIP3   OH255729   2.635   4.908   5.362 -0.2717  0.4376 -0.0590
11413TIP3    H155730   2.693   4.860   5.422  0.0999 -0.8759 -1.4072
11413TIP3    H255731   2.601   4.980   5.415  1.3087  0.2950  1.2579
11414TIP3   OH255732   4.945   4.030  14.766  0.3409  0.1978 -0.0996
11414TIP3    H155733   4.994   3.960  14.807 -0.5883  0.6914  1.9873
11414TIP3    H255734   5.011   4.095  14.742  0.9818 -0.4438 -0.1087
11415TIP3   OH255735   4.705   1.050  12.760  0.2275 -0.0201  0.4538
11415TIP3    H155736   4.761   0.973  12.766  0.4525  0.2517  2.1789
11415TIP3    H255737   4.751   1.118  12.809 -0.9532  0.6046  0.7435
11416TIP3   OH255738   3.585   2.487  12.274  0.3113  0.0683  0.5488
11416TIP3    H155739   3.602   2.485  12.180 -0.1756  1.4116  0.3989
11416TIP3    H255740   3.578   2.396  12.300 -1.6786 -0.3272 -1.1291
11417TIP3   OH255741   0.955   0.828   5.694 -0.0549  0.4607  0.2914
11417TIP3    H155742   1.040   0.786   5.681 -0.0823  0.9180 -1.7341
11417TIP3    H255743   0.972   0.921   5.683 -0.9046  0.5041 -0.9566
11418TIP3   OH255744   0.506   3.539   2.352 -0.2509  0.1129 -0.6519
11418TIP3    H155745   0.489   3.626   2.317 -0.0094  0.0279 -0.9886
11418TIP3    H255746   0.548   3.492   2.280  0.0518 -0.1345 -0.3173
11419TIP3   OH255747   3.148   1.155  14.219 -0.7147 -0.5694 -0.2099
11419TIP3    H155748   3.119   1.070  14.183 -0.1501 -0.4767 -0.9157
11419TIP3    H255749   3.090   1.170  14.293  0.4284 -2.5396  1.1939
11420TIP3   OH255750   6.138   6.293   2.027 -0.4988  0.0234 -0.1054
11420TIP3    H155751   6.198   6.313   1.956 -0.8057 -0.4721 -0.5136
11420TIP3    H255752   6.140   6.370   2.084  1.7602 -0.6010  0.7702
11421TIP3   OH255753   5.954   5.802  16.969  0.1359  0.7608 -0.4103
11421TIP3    H155754   5.992   5.860  16.903  1.8711 -0.7208 -0.7966
11421TIP3    H255755   6.015   5.806  17.042  1.6786 -2.2935 -1.3517
11422TIP3   OH255756   0.633   3.685   6.017  0.0537 -0.1096 -0.4076
11422TIP3    H155757   0.596   3.773   6.026 -0.4238 -0.4147  0.7955
11422TIP3    H255758   0.565   3.627   6.052  0.8364 -0.8513 -0.0922
11423TIP3   OH255759   1.272   6.806  16.619  0.5434  0.8088  0.1178
11423TIP3    H155760   1.333   6.879  16.631  1.9689 -0.5251  1.3203
11423TIP3    H255761   1.288   6.775  16.531 -0.3666  2.1511 -0.5637
11424TIP3   OH255762   5.594   0.910  14.526 -0.1262 -0.5945 -0.0959
11424TIP3    H155763   5.553   0.845  14.469  1.7548 -1.7023 -0.2529
11424TIP3    H255764   5.533   0.984  14.525 -0.7460 -1.0482 -2.5515
11425TIP3   OH255765   3.655   3.768   1.201 -0.1398  1.0214  0.1382
11425TIP3    H155766   3.715   3.823   1.251 -0.0351  1.2958 -0.2873
11425TIP3    H255767   3.710   3.729   1.133 -0.6502  2.0982 -0.9122
11426TIP3   OH255768   4.553   0.639   1.038 -0.4522 -0.4672  0.1962
11426TIP3    H155769   4.589   0.697   0.972 -1.6661 -0.6697 -0.6552
11426TIP3    H255770   4.624   0.577   1.056  1.1568  1.6301  1.6791
11427TIP3   OH255771   4.242   5.634  13.027  0.6117 -0.0444  0.2668
11427TIP3    H155772   4.312   5.680  12.981  0.7880 -1.2220 -0.6820
11427TIP3    H255773   4.165   5.688  13.013  1.3927  1.5970  1.8308
11428TIP3   OH255774   6.274   6.721   3.012  0.5991 -0.2290  0.7096
11428TIP3    H155775   6.269   6.762   2.926 -1.1800 -0.4725  0.6627
11428TIP3    H255776   6.233   6.784   3.071  0.2706 -0.7791  1.0807
11429TIP3   OH255777   3.390   4.416   5.125 -0.2817  0.1302  0.0537
11429TIP3    H155778   3.402   4.482   5.056  1.0438 -0.1085  0.0315
11429TIP3    H255779   3.332   4.351   5.086  0.5272 -0.0507 -0.8967
11430TIP3   OH255780   4.166   4.952  15.554 -0.2668  0.0575 -0.1437
11430TIP3    H155781   4.253   4.977  15.586 -0.7517  2.4174 -0.4702
11430TIP3    H255782   4.181   4.917  15.467  0.2456  2.2647 -1.0010
11431TIP3   OH255783   5.657   1.553   1.178 -0.1347  0.2337 -0.1437
11431TIP3    H155784   5.741   1.582   1.144  0.1315  0.2117  0.4764
11431TIP3    H255785   5.668   1.555   1.273 -0.9424  0.5663 -0.0472
11432TIP3   OH255786   6.706   4.541   3.158  0.0646 -0.3714 -0.1713
11432TIP3    H155787   6.739   4.619   3.114  1.5307 -1.1879 -0.5716
11432TIP3    H255788   6.635   4.509   3.102 -0.2755  0.4204 -0.2081
11433TIP3   OH255789   5.947   5.655   0.243  0.1164 -0.2094  0.0649
11433TIP3    H155790   5.933   5.659   0.149  1.8401  2.7081 -0.1751
11433TIP3    H255791   5.898   5.729   0.278 -1.1893 -1.7283  1.6395
11434TIP3   OH255792   1.644   6.534  14.270  0.1837 -0.4044 -0.0357
11434TIP3    H155793   1.549   6.540  14.275  0.2343  0.3227  0.2366
11434TIP3    H255794   1.669   6.602  14.207  0.4655 -1.1231 -0.7088
11435TIP3   OH255795   4.285   1.103  16.907  0.2463 -0.3339  0.1512
11435TIP3    H155796   4.201   1.147  16.893  0.5055 -0.2253 -1.1764
11435TIP3    H255797   4.274   1.017  16.866  0.4510 -0.7188  0.8822
11436TIP3   OH255798   3.653   3.409   1.206  0.0607  0.3925  0.4229
11436TIP3    H155799   3.693   3.324   1.226 -1.7436 -0.5577  0.2339
11436TIP3    H255800   3.639   3.407   1.111 -0.4349  0.6867  0.4844
11437TIP3   OH255801   6.568   2.987  16.412  0.5140 -0.0438  0.1318
11437TIP3    H155802   6.639   2.933  16.379 -0.5551 -1.3417 -0.1623
11437TIP3    H255803   6.583   2.992  16.507  0.4905 -1.1086  0.2023
11438TIP3   OH255804   5.330   0.959   3.993  0.1283 -0.3386 -0.2254
11438TIP3    H155805   5.318   0.947   4.087 -2.1297  1.7626 -0.1284
11438TIP3    H255806   5.260   0.907   3.954  0.6368 -0.6662 -0.7043
11439TIP3   OH255807   4.951   1.542  13.013 -0.2029  0.1197  0.1729
11439TIP3    H155808   4.945   1.635  13.032 -0.7472  0.1705 -0.2303
11439TIP3    H255809   4.927   1.535  12.920 -0.9680 -0.5074  0.4037
11440TIP3   OH255810   4.429   3.145   0.597  0.5838 -0.3531  0.4672
11440TIP3    H155811   4.365   3.089   0.552  0.5240  0.8043 -0.9348
11440TIP3    H255812   4.444   3.100   0.680 -1.0858 -1.3278  0.2993
11441TIP3   OH255813   5.227   0.431   4.023  0.0930 -0.3178 -0.1850
11441TIP3    H155814   5.292   0.393   4.081 -0.2331  0.8205  0.9749
11441TIP3    H255815   5.149   0.377   4.033  0.9940 -2.1310 -2.1240
11442TIP3   OH255816   3.838   1.146  11.242  0.0095 -0.5581 -0.4095
11442TIP3    H155817   3.783   1.132  11.320  0.1859  1.5522  0.1403
11442TIP3    H255818   3.928   1.139  11.274  0.0815  0.2383 -0.4249
11443TIP3   OH255819   1.225   0.082  12.627 -0.3359 -0.4215  0.3713
11443TIP3    H155820   1.185   0.168  12.621 -0.3218 -0.4826 -0.8743
11443TIP3    H255821   1.152   0.022  12.637 -0.3796 -0.3184  0.6835
11444TIP3   OH255822   6.587   4.907   2.405 -0.5272  0.3628 -0.0017
11444TIP3    H155823   6.573   4.958   2.485 -1.6911  0.1599 -0.0585
11444TIP3    H255824   6.586   4.816   2.434  0.6581  0.3309 -0.0293
11445TIP3   OH255825   1.255   2.102  14.206  0.4303  0.6516  0.0951
11445TIP3    H155826   1.167   2.139  14.197  0.2300  1.1981  3.2260
11445TIP3    H255827   1.244   2.032  14.271  1.9242 -0.9508 -1.2751
11446TIP3   OH255828   1.251   4.850   0.700  0.0742 -0.3804  0.2314
11446TIP3    H155829   1.201   4.835   0.619  0.8810 -0.2374 -0.3016
11446TIP3    H255830   1.228   4.776   0.756 -3.5581  1.4211  1.4616
11447TIP3   OH255831   2.956   4.759   0.673  0.4658  0.4675  0.0780
11447TIP3    H155832   2.888   4.787   0.735  2.0341  1.1275  1.6128
11447TIP3    H255833   3.018   4.710   0.727 -0.4979 -3.3462 -1.9210
11448TIP3   OH255834   5.722   1.625   2.368 -0.0265 -0.1218  0.3633
11448TIP3    H155835   5.633   1.592   2.380  0.5911 -1.6287  1.1170
11448TIP3    H255836   5.745   1.663   2.453  0.3951 -0.7019  0.5239
11449TIP3   OH255837   5.705   5.997   4.436 -0.0659  0.0926  0.6726
11449TIP3    H155838   5.755   5.948   4.370 -0.6246 -0.0884  0.3760
11449TIP3    H255839   5.724   6.089   4.417 -0.5007  0.0563  0.0243
11450TIP3   OH255840   4.763   6.478   3.276 -0.0066  0.0422  0.4541
11450TIP3    H155841   4.734   6.517   3.194 -1.1607 -1.1499  0.2838
11450TIP3    H255842   4.732   6.388   3.274  1.0987 -0.4060  1.6228
11451TIP3   OH255843   3.284   0.848  12.894 -0.5610 -0.1104 -0.0201
11451TIP3    H155844   3.216   0.912  12.875  1.7465  2.1693 -1.3673
11451TIP3    H255845   3.334   0.888  12.966  0.2991 -0.9226 -0.1506
11452TIP3   OH255846   2.614   5.162  16.426  0.3560  0.4890  0.2364
11452TIP3    H155847   2.604   5.068  16.444 -2.1891  0.7656  0.7304
11452TIP3    H255848   2.628   5.166  16.332 -3.1161 -0.3573 -0.4772
11453TIP3   OH255849   3.603   2.489  16.235  0.9919 -0.2623  0.0116
11453TIP3    H155850   3.637   2.524  16.318  0.0798  1.7755 -0.3978
11453TIP3    H255851   3.682   2.464  16.186  1.6850  0.6342  0.6197
11454TIP3   OH255852   4.832   0.599  16.920  0.4979  0.0268 -0.2133
11454TIP3    H155853   4.859   0.520  16.967 -0.1322 -0.3834 -0.5176
11454TIP3    H255854   4.823   0.666  16.988  0.0125 -0.4472  0.2020
11455TIP3   OH255855   1.293   5.871  13.078 -0.1347  0.4330 -0.7980
11455TIP3    H155856   1.213   5.854  13.028 -0.7037  0.9267 -0.0753
11455TIP3    H255857   1.282   5.820  13.159 -1.7406  3.7517  1.2971
11456TIP3   OH255858   3.231   2.709  15.488 -0.3527 -0.1384  0.4740
11456TIP3    H155859   3.221   2.636  15.549  3.9630 -0.5844  0.9465
11456TIP3    H255860   3.286   2.674  15.418 -1.1991  1.7275 -1.2420
11457TIP3   OH255861   5.811   2.552  11.534  0.0963  0.1174  0.1399
11457TIP3    H155862   5.825   2.643  11.561 -0.9080  0.6215 -0.9286
11457TIP3    H255863   5.723   2.552  11.496  0.2757 -1.2025 -0.3171
11458TIP3   OH255864   5.509   3.742  16.163 -0.4874 -0.1019 -0.1475
11458TIP3    H155865   5.525   3.653  16.196 -1.5384  0.2520  1.3926
11458TIP3    H255866   5.444   3.731  16.094 -0.3422 -0.5553 -0.2171
11459TIP3   OH255867   4.963   0.692  11.607  0.2422 -0.7208 -0.1652
11459TIP3    H155868   4.931   0.778  11.635  0.2415 -0.3343 -1.3068
11459TIP3    H255869   5.026   0.667  11.674  0.4251  0.2863  0.0471
11460TIP3   OH255870   0.021   5.399   4.974 -0.4065  0.0029  0.0859
11460TIP3    H155871  -0.040   5.468   4.945 -1.4079 -1.4537 -1.4358
11460TIP3    H255872   0.026   5.411   5.069 -1.3462  1.5468 -0.0188
11461TIP3   OH255873   6.549   4.823  10.372 -0.1249  0.1957  0.1447
11461TIP3    H155874   6.457   4.845  10.386 -0.3357  0.3904 -1.4064
11461TIP3    H255875   6.565   4.746  10.427 -0.8138  1.0172  1.5281
11462TIP3   OH255876   0.551   6.649   3.547 -0.2872 -0.1898 -0.3308
11462TIP3    H155877   0.535   6.560   3.578 -1.5777 -0.3639 -1.4491
11462TIP3    H255878   0.646   6.658   3.550 -0.1422 -1.5728 -0.1142
11463TIP3   OH255879   3.867   4.124   3.463  0.4977  0.1108  0.0049
11463TIP3    H155880   3.783   4.170   3.474  0.5348  0.0101  0.7273
11463TIP3    H255881   3.847   4.033   3.486  0.2425 -0.4276 -2.1486
11464TIP3   OH255882   4.298   3.781   0.837 -0.1493 -0.4045  0.1908
11464TIP3    H155883   4.373   3.724   0.826  1.3941  1.3717  0.8658
11464TIP3    H255884   4.234   3.751   0.772  0.6299 -2.7075  0.3987
11465TIP3   OH255885   6.074   2.917   2.252  0.5538  0.1476  0.2275
11465TIP3    H155886   6.016   2.960   2.189 -0.8952 -1.3349  0.4726
11465TIP3    H255887   6.088   2.983   2.320  1.6056  1.5439 -1.2597
11466TIP3   OH255888   1.123   3.626   0.758 -0.3314 -0.6064 -0.0993
11466TIP3    H155889   1.051   3.674   0.798  0.5380  0.8573 -0.2287
11466TIP3    H255890   1.185   3.693   0.729  1.3947 -1.8211  0.5488
11467TIP3   OH255891   6.511   2.007   1.980 -0.5328  0.1508  0.3658
11467TIP3    H155892   6.596   1.980   1.944 -1.2215 -1.2058 -0.2996
11467TIP3    H255893   6.528   2.022   2.073  0.7598  1.3832 -0.0376
11468TIP3   OH255894   5.811   6.491   2.565  0.5327 -0.1281 -0.4208
11468TIP3    H155895   5.899   6.493   2.602  0.9763 -0.3163 -1.4495
11468TIP3    H255896   5.767   6.420   2.611  1.4527 -1.1330 -1.0750
11469TIP3   OH255897   3.497   1.182   4.669 -0.3240 -0.0812 -0.1034
11469TIP3    H155898   3.477   1.222   4.584 -0.5268  1.4625  0.6335
11469TIP3    H255899   3.567   1.236   4.705 -0.3689 -0.6056  0.7957
11470TIP3   OH255900   2.728   6.352   2.458 -0.1168  0.6934  0.6500
11470TIP3    H155901   2.802   6.413   2.458 -0.6840  1.4312 -0.4307
11470TIP3    H255902   2.763   6.271   2.422  0.5792  0.4621  1.8243
11471TIP3   OH255903   4.972   5.619   0.104 -0.5349  0.2056 -0.1028
11471TIP3    H155904   4.988   5.683   0.173 -2.1985  0.3417  0.1967
11471TIP3    H255905   5.033   5.547   0.123  0.3353  1.0564  0.3905
11472TIP3   OH255906   4.516   5.512   1.140 -0.0845  0.1049 -0.6214
11472TIP3    H155907   4.602   5.508   1.183 -0.5890 -0.3553  0.3947
11472TIP3    H255908   4.532   5.560   1.059  0.7434  1.9005  0.5321
11473TIP3   OH255909   5.487   0.602  16.974  0.0185 -0.9393 -0.0214
11473TIP3    H155910   5.563   0.563  16.932 -0.5622 -0.8843 -1.1676
11473TIP3    H255911   5.485   0.563  17.062  2.0621  0.0078  0.4923
11474TIP3   OH255912   4.887   4.921  14.341 -0.1142 -0.0237 -0.3748
11474TIP3    H155913   4.842   4.916  14.425  0.7628  3.3117  0.4671
11474TIP3    H255914   4.978   4.941  14.364  0.5574 -0.9213 -2.1117
11475TIP3   OH255915   0.137   3.667   0.868  0.4455 -0.5899  0.0753
11475TIP3    H155916   0.168   3.651   0.779 -0.4580 -1.0917 -0.1683
11475TIP3    H255917   0.147   3.583   0.912 -2.3300 -1.4057 -0.5904
11476TIP3   OH255918   0.469   0.881  16.178  0.3100  1.0159 -0.5211
11476TIP3    H155919   0.399   0.832  16.221  0.5061 -0.8217 -2.1535
11476TIP3    H255920   0.549   0.855  16.224  0.0158  3.3834  1.5776
11477TIP3   OH255921   3.823   2.332  10.728 -0.2514 -1.0455 -0.7075
11477TIP3    H155922   3.851   2.417  10.762 -2.4167 -0.3551 -0.5049
11477TIP3    H255923   3.850   2.269  10.794 -0.1785 -0.2964 -0.0141
11478TIP3   OH255924   3.730   1.666   4.448 -0.3731  0.4324  0.2391
11478TIP3    H155925   3.784   1.676   4.526 -1.8866  1.4411  1.2069
11478TIP3    H255926   3.724   1.755   4.412 -0.8572  0.2185 -0.2233
11479TIP3   OH255927   3.006   0.643   1.127  0.3220 -0.1897 -0.4784
11479TIP3    H155928   3.069   0.575   1.106 -0.5723 -0.4110 -2.6611
11479TIP3    H255929   2.937   0.633   1.062 -1.6749  0.4489  1.4142
11480TIP3   OH255930   4.050   5.989  15.172 -0.0258  0.7462  0.7959
11480TIP3    H155931   3.987   5.917  15.174 -0.0548  0.7221 -0.1466
11480TIP3    H255932   4.134   5.948  15.151 -0.5058  1.1737 -2.7213
11481TIP3   OH255933   0.300   0.354  12.666  0.2291 -0.5988  0.0115
11481TIP3    H155934   0.373   0.390  12.614 -0.8781  1.1121 -0.4426
11481TIP3    H255935   0.273   0.276  12.617 -0.4726  0.7033 -1.7744
11482TIP3   OH255936   5.239   4.069   1.476  0.7047 -0.4389  0.7935
11482TIP3    H155937   5.202   4.047   1.390  0.4867 -0.4766  0.8948
11482TIP3    H255938   5.329   4.093   1.458  0.7898 -0.8848  0.6077
11483TIP3   OH255939   0.138   4.236   5.176  0.0739 -0.5782 -1.0298
11483TIP3    H155940   0.106   4.326   5.181  0.4768 -0.5042  0.4435
11483TIP3    H255941   0.079   4.195   5.112 -0.8049  0.4399 -0.9196
11484TIP3   OH255942   0.841   0.545  14.073  0.1372  0.3252  0.3542
11484TIP3    H155943   0.756   0.502  14.067 -0.6750  1.9310 -0.2006
11484TIP3    H255944   0.839   0.591  14.157  0.3298  0.6206  0.1996
11485TIP3   OH255945   1.745   0.732   3.335  0.7546 -0.5802 -0.3758
11485TIP3    H155946   1.703   0.658   3.379  0.3205 -0.1395 -0.0406
11485TIP3    H255947   1.837   0.727   3.361  0.9854 -1.6941 -1.3092
11486TIP3   OH255948   2.439   2.971   2.685  0.5550 -0.1427 -0.0908
11486TIP3    H155949   2.407   2.886   2.715  1.2418 -1.5401 -2.9177
11486TIP3    H255950   2.535   2.961   2.683  0.6295  0.6145 -0.6611
11487TIP3   OH255951   2.937   4.242   2.965  0.3835  0.3938 -0.5817
11487TIP3    H155952   3.002   4.313   2.958  1.7786 -0.6035  1.1355
11487TIP3    H255953   2.854   4.283   2.942  1.4086  2.1124 -1.4434
11488TIP3   OH255954   0.691   1.025   5.141  0.4797 -0.0052  0.2250
11488TIP3    H155955   0.751   1.078   5.194  1.0508  0.7214 -1.1083
11488TIP3    H255956   0.708   0.935   5.169  1.6327  0.2589  0.4263
11489TIP3   OH255957   0.277   1.159  12.402  0.4588  0.6211 -0.3202
11489TIP3    H155958   0.243   1.079  12.441  0.5841  1.3346  1.3198
11489TIP3    H255959   0.199   1.205  12.370  0.3009  0.2788 -0.4301
11490TIP3   OH255960   2.575   5.156  11.258  0.7321  0.1784 -0.0747
11490TIP3    H155961   2.630   5.086  11.223  0.9697  0.7072 -0.7876
11490TIP3    H255962   2.523   5.185  11.183 -0.6772 -0.4483  0.6274
11491TIP3   OH255963   1.552   2.044  11.043 -0.2178 -0.4550  0.5466
11491TIP3    H155964   1.500   2.099  10.985 -1.7489 -0.8329  1.4835
11491TIP3    H255965   1.642   2.075  11.032 -1.0723  2.8670  1.6554
11492TIP3   OH255966   3.426   5.848  13.285  0.2541  0.6005 -0.0049
11492TIP3    H155967   3.340   5.880  13.314 -0.1540  0.8094 -1.3709
11492TIP3    H255968   3.416   5.753  13.282 -0.9151  0.7104 -2.8714
11493TIP3   OH255969   0.379   4.631  13.452  0.0119 -0.2344  0.6271
11493TIP3    H155970   0.472   4.612  13.465 -0.0674  0.3338  2.1821
11493TIP3    H255971   0.335   4.551  13.482 -0.0392 -0.1620  0.7444
11494TIP3   OH255972   4.165   6.582   4.795 -0.0834 -0.4685 -0.1227
11494TIP3    H155973   4.158   6.632   4.714  1.9289  0.2549  0.1014
11494TIP3    H255974   4.211   6.502   4.770 -0.4808 -0.7768  0.1101
11495TIP3   OH255975   2.582   5.808   4.682  0.6285  0.2493  0.6438
11495TIP3    H155976   2.556   5.771   4.766  2.2545 -1.1220  0.5983
11495TIP3    H255977   2.653   5.869   4.704  0.0198  1.0475  0.4099
11496TIP3   OH255978   4.729   6.587   2.746 -0.3895 -0.1186 -0.5884
11496TIP3    H155979   4.743   6.679   2.725 -0.6352  0.0706  0.0399
11496TIP3    H255980   4.816   6.553   2.763 -0.1717 -0.3127 -2.0065
11497TIP3   OH255981   4.311   5.348  12.467  0.0028  0.1987 -0.9580
11497TIP3    H155982   4.356   5.294  12.531 -1.0450  0.0163 -0.3458
11497TIP3    H255983   4.284   5.287  12.398  0.3333  0.2440 -1.1311
11498TIP3   OH255984   3.624   3.862  10.442  0.4167  0.3786  0.2184
11498TIP3    H155985   3.715   3.866  10.471  0.2147  0.6855  0.8242
11498TIP3    H255986   3.620   3.785  10.385  0.8301 -0.2137  0.9760
11499TIP3   OH255987   4.406   3.905  13.129 -0.0727  0.2287 -0.7926
11499TIP3    H155988   4.395   3.817  13.093 -4.4366 -1.1138  2.8634
11499TIP3    H255989   4.463   3.893  13.205  0.8277  1.0099 -1.3199
11500TIP3   OH255990   6.638   4.911   4.436  0.0257  0.1071  0.4596
11500TIP3    H155991   6.568   4.910   4.371  0.4521 -0.7584 -0.0017
11500TIP3    H255992   6.605   4.967   4.506 -3.2025 -3.8727  2.5141
11501TIP3   OH255993   2.580   3.970  14.740 -0.1435 -0.1868 -0.1302
11501TIP3    H155994   2.666   3.928  14.733 -1.1264 -2.0604 -2.6088
11501TIP3    H255995   2.524   3.919  14.681 -2.5163  2.1186 -0.0533
11502TIP3   OH255996   4.088   4.206  13.031 -0.3433  0.1157  0.5032
11502TIP3    H155997   3.999   4.235  13.049 -0.1459  0.1270  1.5032
11502TIP3    H255998   4.125   4.274  12.974 -1.3930 -0.5700 -1.0902
11503TIP3   OH255999   2.897   5.794   6.554  0.8317  0.1541 -0.1527
11503TIP3    H156000   2.806   5.771   6.540  1.4705 -2.1135 -1.0162
11503TIP3    H256001   2.913   5.867   6.494 -0.4223  0.6966  0.1377
11504TIP3   OH256002   0.095   6.596   5.231 -0.3357  0.7428 -0.0393
11504TIP3    H156003   0.012   6.571   5.190 -0.1584 -0.1213  0.1162
11504TIP3    H256004   0.080   6.586   5.325  0.3144 -0.6660 -0.0570
11505TIP3   OH256005   3.219   5.820   4.500  0.0385  0.6345 -0.1634
11505TIP3    H156006   3.285   5.856   4.442  0.5213 -1.4608 -1.0212
11505TIP3    H256007   3.160   5.771   4.443 -1.3087  1.1000  0.7721
11506TIP3   OH256008   6.685   0.494   3.189 -0.2688 -0.0651 -0.5772
11506TIP3    H156009   6.595   0.516   3.213  0.2837  2.2930 -0.4768
11506TIP3    H256010   6.728   0.578   3.178  2.2485 -1.1344  0.4988
11507TIP3   OH256011   6.445   1.008  13.710 -0.3718  0.2297  0.0356
11507TIP3    H156012   6.410   1.058  13.783  0.4574 -1.7238  1.8767
11507TIP3    H256013   6.535   0.987  13.735 -0.4197 -1.4277 -1.0141
11508TIP3   OH256014   2.701   5.360  17.034  0.0034  0.4400  0.0947
11508TIP3    H156015   2.734   5.276  17.003 -0.6647 -0.4178  1.6482
11508TIP3    H256016   2.724   5.363  17.127 -0.8594  1.5287  0.2975
11509TIP3   OH256017   1.199   0.054  16.323  0.3139 -0.6512 -0.2413
11509TIP3    H156018   1.180  -0.008  16.252  0.1183 -0.0351 -0.7356
11509TIP3    H256019   1.121   0.109  16.329 -0.2916 -1.6082  1.4502
11510TIP3   OH256020   5.660   2.310   2.274  0.0271  0.5133 -0.3847
11510TIP3    H156021   5.754   2.299   2.258  0.0720 -0.0355  0.2361
11510TIP3    H256022   5.655   2.342   2.364 -0.4424 -0.7286  0.0505
11511TIP3   OH256023   2.211   3.440   5.684  0.3868  0.0606 -0.3395
11511TIP3    H156024   2.304   3.434   5.662  0.3326 -1.5319 -0.3114
11511TIP3    H256025   2.172   3.488   5.612  1.0831 -0.1234 -0.8556
11512TIP3   OH256026   0.647   3.014   3.339 -0.4479 -0.0674 -0.1461
11512TIP3    H156027   0.664   3.048   3.427  1.2223 -1.8092  0.2787
11512TIP3    H256028   0.730   2.975   3.312 -1.2923 -0.7177 -1.9772
11513TIP3   OH256029   6.042   2.650   0.698 -0.5447  0.1985  0.0907
11513TIP3    H156030   5.953   2.671   0.669 -1.3091 -0.3079  1.9182
11513TIP3    H256031   6.059   2.709   0.771 -0.0803 -0.9068  0.9050
11514TIP3   OH256032   6.372   2.744  11.882  0.1657 -0.8466 -0.5253
11514TIP3    H156033   6.430   2.810  11.920 -0.5007 -0.4148 -0.2345
11514TIP3    H256034   6.340   2.784  11.801  1.5048 -1.7246 -1.5259
11515TIP3   OH256035   5.233   4.114   3.489  0.4425 -0.2741  0.0216
11515TIP3    H156036   5.188   4.125   3.573  2.0002 -0.1276  0.8822
11515TIP3    H256037   5.222   4.021   3.468 -0.2114 -0.2467  0.2212
11516TIP3   OH256038   6.029   5.365  15.374  0.1105  0.4466  0.6501
11516TIP3    H156039   6.084   5.396  15.302  0.5699 -0.7753  0.4535
11516TIP3    H256040   5.945   5.408  15.360  0.3290  0.5683 -0.3729
11517TIP3   OH256041   4.599   2.901  12.340  0.2480  0.7133  0.2993
11517TIP3    H156042   4.617   2.994  12.326 -0.6689  1.0847  1.4461
11517TIP3    H256043   4.504   2.894  12.335  0.2627 -0.0524  0.8558
11518TIP3   OH256044   2.925   1.685  13.269 -0.0217 -0.0952 -1.0097
11518TIP3    H156045   2.938   1.647  13.356  0.1281 -1.3822 -1.5784
11518TIP3    H256046   2.838   1.657  13.243 -0.4797  1.1470 -0.8644
11519TIP3   OH256047   6.599   2.936   1.986  0.2877 -0.1227 -0.4021
11519TIP3    H156048   6.557   2.852   2.003  1.6289 -1.0256 -1.3655
11519TIP3    H256049   6.609   2.976   2.072 -0.6927 -0.7698  0.0274
11520TIP3   OH256050   1.807   0.597  15.704 -0.4952  0.1959 -0.5109
11520TIP3    H156051   1.740   0.603  15.636 -1.2752  1.3047  0.3148
11520TIP3    H256052   1.775   0.653  15.775  0.9080  0.0954  0.2534
11521TIP3   OH256053   2.448   0.933   5.074  0.5148 -0.6702  0.1524
11521TIP3    H156054   2.537   0.948   5.043  0.5721 -1.6134 -0.1588
11521TIP3    H256055   2.455   0.856   5.130 -0.2573 -1.2978 -0.6006
11522TIP3   OH256056   6.332   0.951   1.132 -0.0668 -0.3928 -0.4248
11522TIP3    H156057   6.312   0.996   1.050  1.0655 -0.0232 -0.5248
11522TIP3    H256058   6.402   1.004   1.171 -0.6245 -0.5396  0.8079
11523TIP3   OH256059   3.020   4.521  13.580  0.1951 -0.1032 -0.4074
11523TIP3    H156060   3.007   4.485  13.493 -1.2677  0.4143 -0.4241
11523TIP3    H256061   3.092   4.469  13.617 -2.0979 -3.4057 -0.2178
11524TIP3   OH256062   2.261   0.152  15.330  0.0598 -0.1169 -0.0069
11524TIP3    H156063   2.317   0.076  15.312  1.9391  0.8272  1.4824
11524TIP3    H256064   2.195   0.119  15.391  0.5698 -0.6709  0.2579
11525TIP3   OH256065   3.981   3.030  14.443 -0.1856 -0.2061  1.2286
11525TIP3    H156066   4.037   3.098  14.405 -1.8332  0.9112  0.6691
11525TIP3    H256067   3.981   3.049  14.537  0.2987 -0.1610  1.2216
11526TIP3   OH256068   5.593   1.576  11.725 -0.4204  0.1982 -0.2942
11526TIP3    H156069   5.676   1.591  11.771 -0.7884  0.0633  0.4304
11526TIP3    H256070   5.608   1.495  11.675 -0.5291 -0.5809  0.8866
11527TIP3   OH256071   6.304   2.436   4.474  0.3885 -0.1457  0.4720
11527TIP3    H156072   6.338   2.401   4.392 -0.4405  1.5607 -0.6629
11527TIP3    H256073   6.380   2.471   4.520  0.8763 -1.2473  0.5286
11528TIP3   OH256074   6.700   0.604  16.732 -0.9932  0.0049  0.2813
11528TIP3    H156075   6.747   0.681  16.764 -0.5933  0.2559 -0.8881
11528TIP3    H256076   6.611   0.614  16.767 -0.5146  0.1289  1.5132
11529TIP3   OH256077   3.343   4.448  11.160  0.1785  0.0085 -0.0262
11529TIP3    H156078   3.310   4.536  11.142  1.2739  0.2594 -0.9221
11529TIP3    H256079   3.438   4.455  11.147  0.4675 -0.9416  1.3848
11530TIP3   OH256080   2.833   4.243  11.189  0.1369 -0.4031 -0.1098
11530TIP3    H156081   2.750   4.252  11.237 -0.7273  0.1125 -1.6232
11530TIP3    H256082   2.833   4.318  11.129  0.0093 -2.2367 -2.5816
11531TIP3   OH256083   2.560   5.444  15.381 -0.2545  0.3720  0.1260
11531TIP3    H156084   2.571   5.537  15.359 -1.8453  0.8713  1.2685
11531TIP3    H256085   2.576   5.398  15.299 -1.6401  1.8308 -1.0217
11532TIP3   OH256086   4.501   3.221  15.793 -0.5323  0.3006 -0.3650
11532TIP3    H156087   4.560   3.288  15.827 -0.9797  1.1801 -1.2766
11532TIP3    H256088   4.532   3.205  15.703 -1.2857  0.2987 -0.6271
11533TIP3   OH256089   1.264   3.798   0.377 -0.1736 -0.3025  0.3319
11533TIP3    H156090   1.319   3.800   0.456  0.3881 -0.2731 -0.0536
11533TIP3    H256091   1.215   3.880   0.380 -0.0498 -0.2339  0.5742
11534TIP3   OH256092   3.203   0.666   6.070 -0.4632  0.0157  0.1331
11534TIP3    H156093   3.248   0.750   6.080  0.2912 -0.2779 -0.6356
11534TIP3    H256094   3.172   0.645   6.158  0.2638  0.5932  0.5419
11535TIP3   OH256095   1.760   4.897  13.020 -0.3114  0.1018  0.4884
11535TIP3    H156096   1.682   4.847  13.044 -0.4518  0.2444  0.3339
11535TIP3    H256097   1.818   4.889  13.096 -0.3732 -0.2103  0.5052
11536TIP3   OH256098   3.202   4.977   2.897  0.1493  0.2948 -0.5304
11536TIP3    H156099   3.153   4.909   2.851  2.2761 -0.2036 -2.2126
11536TIP3    H256100   3.234   5.035   2.828 -0.6512  2.3981  0.7858
11537TIP3   OH256101   5.510   2.393  16.892 -0.0378 -0.0194  1.1083
11537TIP3    H156102   5.504   2.446  16.812 -1.2692  0.2370  1.3526
11537TIP3    H256103   5.553   2.312  16.864 -0.2734  0.1528  0.2278
11538TIP3   OH256104   2.654   3.776  16.068 -1.0896  0.3435 -0.1462
11538TIP3    H156105   2.745   3.772  16.097 -0.7009  3.0046 -0.7304
11538TIP3    H256106   2.637   3.690  16.028  1.1648 -0.1820 -0.0885
11539TIP3   OH256107   3.022   6.673   3.507 -0.3338 -0.0344 -0.8158
11539TIP3    H156108   2.951   6.671   3.571 -0.5519  1.9798 -0.9340
11539TIP3    H256109   3.079   6.744   3.537  0.8497 -0.6421 -1.5501
11540TIP3   OH256110   4.148   2.325  12.548 -0.2102 -0.2187  0.3331
11540TIP3    H156111   4.147   2.335  12.643 -2.2410  1.2081  0.2144
11540TIP3    H256112   4.061   2.352  12.519  0.3202 -0.6824 -1.9424
11541TIP3   OH256113   0.033   1.580  16.719 -0.8033  0.5030  0.1966
11541TIP3    H156114   0.046   1.668  16.684 -0.7347  0.2800 -0.3621
11541TIP3    H256115   0.004   1.593  16.809 -1.9751  1.1216 -0.2563
11542TIP3   OH256116   5.438   5.102   4.963  0.0512  0.0227 -0.0209
11542TIP3    H156117   5.481   5.099   4.877  1.1672 -0.3838  0.5426
11542TIP3    H256118   5.350   5.066   4.946  0.2505 -0.0497 -0.9930
11543TIP3   OH256119   0.549   3.290   5.108 -0.1291  0.2959  0.3833
11543TIP3    H156120   0.542   3.355   5.179  0.1613  2.2258 -1.2640
11543TIP3    H256121   0.626   3.238   5.130  0.9553  1.9536  0.6831
11544TIP3   OH256122   1.000   0.709  15.030 -0.1900 -0.2628  0.8287
11544TIP3    H156123   0.934   0.777  15.012 -0.2966 -0.8681 -1.4227
11544TIP3    H256124   0.960   0.629  14.997  2.0019 -0.4816 -1.6108
11545TIP3   OH256125   2.278   5.573  14.557 -0.6408 -0.6464  0.0125
11545TIP3    H156126   2.211   5.508  14.537 -1.0116 -1.4543  3.2095
11545TIP3    H256127   2.360   5.524  14.558 -0.8132 -0.9622  1.6059
11546TIP3   OH256128   5.521   0.699  14.748  0.0589  0.5520  0.1339
11546TIP3    H156129   5.615   0.717  14.753 -0.0337  0.9689  0.3289
11546TIP3    H256130   5.479   0.784  14.761 -0.3835  0.1595  1.3577
11547TIP3   OH256131   5.965   1.263   3.804  0.5868  0.1668 -0.0981
11547TIP3    H156132   5.978   1.177   3.765  1.2379  0.6701 -1.0098
11547TIP3    H256133   6.025   1.264   3.879  1.6943  0.3664 -0.9602
11548TIP3   OH256134   0.041   0.115  14.580  0.2835  0.0616 -0.2702
11548TIP3    H156135   0.099   0.085  14.511 -2.6631  0.7965 -3.3643
11548TIP3    H256136  -0.015   0.039  14.599 -0.8142  0.6637 -0.9499
11549TIP3   OH256137   1.998   1.354   6.295 -0.0659  0.2378  0.0730
11549TIP3    H156138   1.924   1.311   6.338 -1.8393  0.4096 -2.5548
11549TIP3    H256139   1.989   1.446   6.318 -1.1247  0.3641 -0.7466
11550TIP3   OH256140   5.680   1.458   4.081 -0.0272 -0.1944 -0.5856
11550TIP3    H156141   5.663   1.385   4.022 -1.7965  0.9307 -1.5141
11550TIP3    H256142   5.724   1.417   4.156 -0.8371 -2.1844 -1.1311
11551TIP3   OH256143   2.221   3.736  15.932 -0.2642 -0.0338  0.1781
11551TIP3    H156144   2.136   3.738  15.977 -0.3387  0.0692  0.0358
11551TIP3    H256145   2.271   3.806  15.974 -0.6278  0.6209 -0.4640
11552TIP3   OH256146   4.147   0.416  13.865  0.2370 -0.1901  0.2862
11552TIP3    H156147   4.066   0.381  13.828  0.9767 -1.6994  0.0188
11552TIP3    H256148   4.153   0.505  13.831 -2.7088  1.0395  2.5103
11553TIP3   OH256149   3.143   4.635  13.267 -0.0329  0.6639  0.6485
11553TIP3    H156150   3.227   4.654  13.309  0.2868  1.0033 -0.1161
11553TIP3    H256151   3.140   4.540  13.260  0.1326  0.6315  0.9874
11554TIP3   OH256152   1.609   4.366  12.956  0.7250  0.1540 -0.2653
11554TIP3    H156153   1.550   4.441  12.960 -0.7159 -0.8919 -1.1647
11554TIP3    H256154   1.641   4.365  12.866 -1.4461 -1.8320 -1.1367
11555TIP3   OH256155   5.570   0.288  12.260  0.2825  0.4840  0.2804
11555TIP3    H156156   5.640   0.223  12.276 -0.5005 -0.5225 -0.2478
11555TIP3    H256157   5.550   0.323  12.346  1.1781  0.5163  0.4897
11556TIP3   OH256158   3.919   4.003  14.771 -0.4956  0.4108 -0.5497
11556TIP3    H156159   3.984   3.990  14.841  0.2670  0.8338 -1.1620
11556TIP3    H256160   3.971   4.007  14.691 -1.2527  1.1640 -1.0143
11557TIP3   OH256161   2.144   4.255   0.628 -0.3014  0.4203  0.5508
11557TIP3    H156162   2.196   4.289   0.701  3.5147 -1.3237 -1.1029
11557TIP3    H256163   2.169   4.309   0.553 -2.5982  0.8748  0.0327
11558TIP3   OH256164   4.196   5.925   4.125  0.4035  0.5157 -0.1196
11558TIP3    H156165   4.237   5.882   4.199 -0.1194 -0.1317 -0.1997
11558TIP3    H256166   4.269   5.951   4.068  0.8100  1.0527  0.6260
11559TIP3   OH256167   1.975   5.041  14.148  0.5484 -0.1444 -0.6708
11559TIP3    H156168   2.058   5.035  14.194  1.1264  0.4308 -1.6073
11559TIP3    H256169   1.997   5.028  14.056 -0.4297 -0.2071 -0.9137
11560TIP3   OH256170   3.087   2.681   0.705 -0.0350 -0.1938  0.4718
11560TIP3    H156171   3.089   2.607   0.765 -2.1189 -0.2369  0.5605
11560TIP3    H256172   3.040   2.648   0.628 -0.1652  0.7580  0.1280
11561TIP3   OH256173   3.800   1.823  16.356  0.0772 -0.1060  0.1201
11561TIP3    H156174   3.771   1.901  16.308 -1.2854 -0.3464  0.5128
11561TIP3    H256175   3.884   1.849  16.394  1.5410 -0.0871 -2.8089
11562TIP3   OH256176   2.472   1.103  15.847  0.0204  0.4304  0.5146
11562TIP3    H156177   2.500   1.121  15.937  2.0987 -0.8561  0.2099
11562TIP3    H256178   2.411   1.030  15.855 -1.3279  1.5705  0.9967
11563TIP3   OH256179   5.495   1.671  11.458 -0.4887  0.3991  0.2591
11563TIP3    H156180   5.515   1.585  11.420 -0.3609 -0.3072  1.8359
11563TIP3    H256181   5.551   1.676  11.536 -1.5552  1.2858  0.9992
11564TIP3   OH256182   0.268   3.526  16.878 -0.0439 -0.0738 -0.6955
11564TIP3    H156183   0.187   3.530  16.827  0.9488  0.3799 -2.3188
11564TIP3    H256184   0.331   3.576  16.826  0.9327  0.7850  1.2157
11565TIP3   OH256185   6.673   6.758  14.510  0.4962  0.0832  0.0633
11565TIP3    H156186   6.722   6.688  14.553  0.8722 -0.3409 -1.0221
11565TIP3    H256187   6.677   6.737  14.417  0.0610  1.2031 -0.2309
11566TIP3   OH256188   3.117   5.039   1.875 -1.0622  0.2569 -0.5192
11566TIP3    H156189   3.043   5.089   1.842 -1.3972 -0.3200 -0.6454
11566TIP3    H256190   3.084   4.950   1.885 -0.3362 -0.0433 -0.7519
11567TIP3   OH256191   1.479   6.698   4.342  0.0263  0.1465  0.6360
11567TIP3    H156192   1.524   6.769   4.388  2.1090 -1.0361  0.5387
11567TIP3    H256193   1.535   6.622   4.355 -1.2258 -1.0797 -0.7828
11568TIP3   OH256194   4.715   5.679   4.982 -0.4282  0.0579  0.3390
11568TIP3    H156195   4.681   5.762   5.014 -2.8246 -1.3604  1.7780
11568TIP3    H256196   4.640   5.620   4.983  1.2839 -2.2800 -0.0716
11569TIP3   OH256197   2.277   2.831   1.075  0.4721 -0.4985  0.0321
11569TIP3    H156198   2.276   2.858   0.983 -2.6674 -0.9512 -0.1696
11569TIP3    H256199   2.286   2.736   1.072 -2.1493 -0.8059 -0.0231
11570TIP3   OH256200   0.206   1.751  14.861  0.1872  0.2907 -0.0828
11570TIP3    H156201   0.149   1.790  14.795 -0.0008  0.9459  0.4508
11570TIP3    H256202   0.205   1.657  14.842 -2.3676  0.0415  0.8503
11571TIP3   OH256203   1.049   1.550  15.409  0.6025 -0.1147  0.7608
11571TIP3    H156204   1.112   1.563  15.479  1.4190 -1.3243  0.2839
11571TIP3    H256205   1.093   1.493  15.347 -1.0764 -1.3166  0.5830
11572TIP3   OH256206   5.407   6.419   0.660  0.4842  0.4530  0.1316
11572TIP3    H156207   5.316   6.437   0.634  0.0500 -0.1727  1.1549
11572TIP3    H256208   5.445   6.375   0.584  0.0968  1.1761 -0.5037
11573TIP3   OH256209   5.701   1.781  15.598  0.4067 -0.4444 -0.2012
11573TIP3    H156210   5.622   1.824  15.565 -1.3819 -1.2085  2.7375
11573TIP3    H256211   5.703   1.696  15.553  0.1688 -0.0151 -1.0481
11574TIP3   OH256212   3.369   3.604   5.018  0.1350 -0.0059  0.1306
11574TIP3    H156213   3.372   3.686   5.068  1.1059 -0.0943  0.2368
11574TIP3    H256214   3.439   3.613   4.954 -1.1239  0.1366 -1.2946
11575TIP3   OH256215   0.001   4.700   2.620  0.4170 -0.7790  0.1173
11575TIP3    H156216   0.063   4.627   2.624 -0.1640 -1.2770  0.2784
11575TIP3    H256217   0.049   4.775   2.655  0.9660 -1.1274  0.1152
11576TIP3   OH256218   1.325   4.663   4.931 -0.5062  0.5255  0.1488
11576TIP3    H156219   1.345   4.577   4.969 -0.3150  0.2094 -0.6520
11576TIP3    H256220   1.376   4.725   4.984 -0.4762  0.1254  0.5904
11577TIP3   OH256221   3.926   4.616  16.410  0.1129 -1.1102  0.5983
11577TIP3    H156222   3.866   4.689  16.396  0.4380 -1.1853 -1.5351
11577TIP3    H256223   3.876   4.554  16.463 -1.4510 -0.8163 -0.4591
11578TIP3   OH256224   2.586   1.949  13.904  0.0472 -0.3108  0.0708
11578TIP3    H156225   2.681   1.955  13.915 -0.1547  1.9137  1.2196
11578TIP3    H256226   2.560   2.035  13.871 -1.6194 -0.6945  0.2732
11579TIP3   OH256227   0.090   4.971   2.921 -0.2435  0.3278  0.5122
11579TIP3    H156228   0.125   4.982   3.009  0.8742  0.8404  0.0174
11579TIP3    H256229   0.121   4.886   2.892 -1.7669 -0.4767  1.1046
11580TIP3   OH256230   5.010   2.214   1.075  0.0611  0.2347  0.4591
11580TIP3    H156231   5.089   2.160   1.086 -0.8584 -1.1639  0.4711
11580TIP3    H256232   4.938   2.152   1.081 -1.0371  1.4202 -0.0267
11581TIP3   OH256233   1.681   1.536   0.780 -0.1220 -0.5898  0.0089
11581TIP3    H156234   1.608   1.596   0.797  0.9516  1.4509 -2.1423
11581TIP3    H256235   1.757   1.579   0.819  0.7423 -0.2758 -1.9145
11582TIP3   OH256236   4.404   4.050  13.509  0.2999 -0.1154  0.4949
11582TIP3    H156237   4.362   4.056  13.423 -0.5059 -0.2837  0.8668
11582TIP3    H256238   4.481   3.996  13.493  0.0578 -0.3056 -0.0884
11583TIP3   OH256239   6.309   3.773   0.343 -0.0425 -0.3019  0.3313
11583TIP3    H156240   6.363   3.804   0.416  1.4230  0.9683 -1.2303
11583TIP3    H256241   6.354   3.694   0.312  0.5263  0.3354 -0.4965
11584TIP3   OH256242   5.516   3.420  16.137 -0.5409  0.8490  0.4087
11584TIP3    H156243   5.475   3.355  16.080  0.5686 -0.6959  1.2990
11584TIP3    H256244   5.600   3.382  16.161 -1.0274  1.3175  3.2137
11585TIP3   OH256245   4.417   0.671  12.167 -0.0576  0.5151  0.3854
11585TIP3    H156246   4.462   0.740  12.118 -0.9620  1.8463  1.3736
11585TIP3    H256247   4.411   0.598  12.105  1.5879  1.0305 -0.4465
11586TIP3   OH256248   4.589   5.561   2.076  0.0256  0.2103 -0.2895
11586TIP3    H156249   4.647   5.526   2.143 -2.1512 -1.3091  0.9345
11586TIP3    H256250   4.501   5.558   2.115 -1.3122 -0.4335 -3.0480
11587TIP3   OH256251   4.248   0.992   4.027  0.2774  0.3773 -0.0436
11587TIP3    H156252   4.183   1.009   4.096 -1.5449  1.8940 -1.9947
11587TIP3    H256253   4.263   0.898   4.030  0.2723  0.3794  2.3736
11588TIP3   OH256254   1.569   1.416  12.710 -0.1485  0.2059  0.1185
11588TIP3    H156255   1.649   1.415  12.657  1.5434  0.8485  2.5053
11588TIP3    H256256   1.556   1.508  12.733 -0.3556 -0.1386  1.4607
11589TIP3   OH256257   0.613   5.126  14.064  0.5937  0.8342  0.0161
11589TIP3    H156258   0.535   5.182  14.062 -0.1275 -0.1553 -0.9792
11589TIP3    H256259   0.647   5.135  14.153 -0.9019  0.9922  0.6002
11590TIP3   OH256260   4.158   4.325   2.509  0.2323  0.3876 -0.3163
11590TIP3    H156261   4.148   4.255   2.573 -0.0793  0.8252  0.1271
11590TIP3    H256262   4.223   4.383   2.548  0.1688  0.5671 -0.4773
11591TIP3   OH256263   3.887   3.055   2.875 -0.2018  0.0857 -0.2880
11591TIP3    H156264   3.923   3.111   2.807  0.5504  0.7882  0.6590
11591TIP3    H256265   3.804   3.025   2.839  1.6415 -2.3371 -2.9199
11592TIP3   OH256266   1.545   2.269   1.576  0.0417  0.0519 -0.4880
11592TIP3    H156267   1.584   2.253   1.490 -2.8436 -0.6551 -1.7560
11592TIP3    H256268   1.522   2.183   1.609 -2.1398  0.5139 -0.6790
11593TIP3   OH256269   5.914   3.448  14.029 -0.0581  0.3179 -1.0013
11593TIP3    H156270   5.893   3.487  13.944  0.0960 -0.4823 -1.4113
11593TIP3    H256271   6.009   3.452  14.034 -0.0744  0.4643 -0.8182
11594TIP3   OH256272   1.540   5.134   4.128  0.1238 -0.2710 -0.9810
11594TIP3    H156273   1.630   5.129   4.159 -0.7343 -2.8287  1.4813
11594TIP3    H256274   1.524   5.227   4.116  2.5460  0.3841  0.2521
11595TIP3   OH256275   4.439   3.984   1.694  0.4672  0.0233 -0.1875
11595TIP3    H156276   4.487   3.910   1.730 -0.1861  0.3302  1.3805
11595TIP3    H256277   4.508   4.047   1.670  1.0367 -1.1301 -1.7306
11596TIP3   OH256278   6.395   3.353  15.966 -0.1456  0.0542 -0.3836
11596TIP3    H156279   6.437   3.438  15.960 -0.5419  0.2576 -0.3325
11596TIP3    H256280   6.448   3.303  16.029  0.3333  0.1123 -0.7369
11597TIP3   OH256281   3.038   1.760   4.117 -0.2037 -0.0137 -0.0052
11597TIP3    H156282   3.012   1.684   4.065 -0.8076 -0.1079  0.4234
11597TIP3    H256283   3.120   1.790   4.077  0.2531 -1.1283  0.0654
11598TIP3   OH256284   2.352   3.085   2.431  0.4574 -0.1209  0.5299
11598TIP3    H156285   2.259   3.108   2.428  0.8938  1.6989 -0.7364
11598TIP3    H256286   2.366   3.050   2.519 -2.0472 -3.4575 -0.2109
11599TIP3   OH256287   2.992   6.635   4.405  0.9009  0.2525  0.0551
11599TIP3    H156288   3.029   6.712   4.361  2.3379 -0.4852 -0.0841
11599TIP3    H256289   2.900   6.657   4.417  1.3721  2.1987  0.4684
11600TIP3   OH256290   3.871   2.557  13.204  0.5090 -0.4151 -0.0151
11600TIP3    H156291   3.844   2.506  13.127  1.3883 -2.6263  1.0272
11600TIP3    H256292   3.965   2.540  13.212  1.0084  2.0137  0.0228
11601TIP3   OH256293   0.498   3.531   1.545 -0.1267 -0.2118  0.5934
11601TIP3    H156294   0.415   3.517   1.589 -1.0429  1.7482 -0.3723
11601TIP3    H256295   0.529   3.615   1.580  0.4926  0.0034 -0.4295
11602TIP3   OH256296   6.416   5.328  16.756  0.0178  0.7423  0.4244
11602TIP3    H156297   6.327   5.341  16.723  0.5069  1.0050 -0.8570
11602TIP3    H256298   6.453   5.262  16.697  0.9572  1.3050  0.3692
11603TIP3   OH256299   0.845   4.099   1.722 -0.7561  0.2887  0.5195
11603TIP3    H156300   0.827   4.030   1.659 -0.7165  0.3517  0.4388
11603TIP3    H256301   0.808   4.067   1.805 -1.2300  0.4192  0.3588
11604TIP3   OH256302   2.557   0.902   2.548 -0.8143  0.7206  0.4048
11604TIP3    H156303   2.479   0.862   2.510 -0.0121 -4.1546  3.0524
11604TIP3    H256304   2.525   0.983   2.589 -3.9539  0.0939 -0.5470
11605TIP3   OH256305   1.876   4.388   5.168  0.2419  0.4287 -0.5302
11605TIP3    H156306   1.813   4.326   5.204  2.0040 -1.7978 -1.0395
11605TIP3    H256307   1.959   4.366   5.212  1.2606  1.3475 -1.8985
11606TIP3   OH256308   6.586   0.053   4.418 -0.1406  0.1140 -0.1399
11606TIP3    H156309   6.506   0.074   4.370 -0.5680  1.6561  1.1721
11606TIP3    H256310   6.655   0.097   4.369 -0.0443 -1.2316 -1.2836
11607TIP3   OH256311   1.527   0.171   5.699  0.2911 -0.0723 -0.2062
11607TIP3    H156312   1.590   0.238   5.723 -0.9836  0.4713  1.9431
11607TIP3    H256313   1.526   0.111   5.774 -0.2247 -1.2512 -1.1144
11608TIP3   OH256314   4.016   1.856   6.513  0.0848 -0.0847 -1.0555
11608TIP3    H156315   4.007   1.925   6.579 -3.3154 -1.4976  0.2032
11608TIP3    H256316   4.094   1.807   6.540  2.3044  2.7758 -1.7166
11609TIP3   OH256317   4.610   4.415  15.289 -0.0221 -0.4188 -0.4816
11609TIP3    H156318   4.555   4.463  15.227  0.6623  0.5596 -0.3552
11609TIP3    H256319   4.611   4.469  15.368  1.2184 -0.3276 -0.5329
11610TIP3   OH256320   5.117   2.914   3.918 -0.2278  0.1788  0.6683
11610TIP3    H156321   5.059   2.858   3.970 -1.1614  0.2409 -0.2661
11610TIP3    H256322   5.180   2.949   3.982  0.7981 -2.4040  1.1715
11611TIP3   OH256323   3.294   2.493   3.625  0.0902 -0.2925 -0.1684
11611TIP3    H156324   3.278   2.574   3.576 -1.5587 -0.3613  0.2217
11611TIP3    H256325   3.357   2.445   3.571  1.7653  1.5906  0.0055
11612TIP3   OH256326   1.366   6.593   5.379 -0.1526  0.1540 -0.0824
11612TIP3    H156327   1.409   6.612   5.462 -0.8674  0.8482  0.1551
11612TIP3    H256328   1.320   6.675   5.358 -0.8914 -0.3824 -0.5891
11613TIP3   OH256329   3.454   4.550  16.207  0.0717  0.1190 -0.4494
11613TIP3    H156330   3.458   4.518  16.117 -1.3647 -1.4291 -0.0142
11613TIP3    H256331   3.496   4.481  16.259 -1.8726 -0.5042  0.3665
11614TIP3   OH256332   5.646   0.675  11.600  0.3094 -0.2901 -0.5066
11614TIP3    H156333   5.556   0.646  11.616  0.3188 -0.8332 -1.3721
11614TIP3    H256334   5.699   0.620  11.658  0.0774  0.2095  0.1980
11615TIP3   OH256335   1.919   0.696  12.999  0.2529  0.6099 -0.4054
11615TIP3    H156336   1.980   0.729  12.932  0.8916  1.2318  0.4607
11615TIP3    H256337   1.940   0.747  13.077 -0.5439 -0.0507  0.2514
11616TIP3   OH256338   0.678   2.802   2.701  0.4348  0.4862 -0.3428
11616TIP3    H156339   0.602   2.783   2.647 -0.1922  0.0043  0.6827
11616TIP3    H256340   0.699   2.894   2.682 -2.2714  1.6169  1.5717
11617TIP3   OH256341   2.442   4.885  11.464 -0.4631  0.0869  0.4883
11617TIP3    H156342   2.522   4.853  11.507 -1.2897 -1.4837  0.9231
11617TIP3    H256343   2.461   4.880  11.371 -0.8917 -2.7125  0.4925
11618TIP3   OH256344   1.567   6.578  11.836 -0.0369  0.3950  0.0706
11618TIP3    H156345   1.650   6.531  11.828  0.4991  1.4202 -0.5455
11618TIP3    H256346   1.572   6.648  11.771 -1.3136  0.5828  0.1409
11619TIP3   OH256347   6.623   5.450  15.912  0.7568 -0.3467 -0.9963
11619TIP3    H156348   6.688   5.380  15.908  0.1924 -1.0639  1.0565
11619TIP3    H256349   6.560   5.420  15.978  0.4772  2.0573 -0.0856
11620TIP3   OH256350   2.391   1.171   4.655  0.2324 -0.0807 -0.2610
11620TIP3    H156351   2.362   1.162   4.746 -2.0598 -1.0680 -1.0220
11620TIP3    H256352   2.319   1.216   4.611 -0.0288 -2.1645 -2.1582
11621TIP3   OH256353   5.167   4.485  13.031 -0.1889  0.0440  0.4361
11621TIP3    H156354   5.123   4.509  13.112  2.4794  0.9521  1.7651
11621TIP3    H256355   5.199   4.396  13.047  1.9412  0.8866  1.2326
11622TIP3   OH256356   5.151   1.924   1.817  0.1634  0.3821  0.5994
11622TIP3    H156357   5.194   1.884   1.892  1.6606 -0.7685 -0.8015
11622TIP3    H256358   5.116   1.851   1.767  1.3753  0.9060 -1.0923
11623TIP3   OH256359   6.813   6.411   2.854 -0.4612  0.2329  0.3012
11623TIP3    H156360   6.868   6.414   2.933  0.4273 -1.1468 -0.2244
11623TIP3    H256361   6.743   6.474   2.871  0.2713  0.7001  1.7661
11624TIP3   OH256362   5.152   0.248   3.523 -0.0983 -0.5236  0.2135
11624TIP3    H156363   5.073   0.302   3.527  0.6251  0.6012 -0.1444
11624TIP3    H256364   5.198   0.280   3.445  0.9520 -0.8139  0.7005
11625TIP3   OH256365   4.308   6.159   0.618  0.0013 -0.0071  0.1126
11625TIP3    H156366   4.238   6.119   0.670  0.2080 -1.7078 -0.8321
11625TIP3    H256367   4.301   6.253   0.636 -0.0436 -0.4694  3.0430
11626TIP3   OH256368   3.636   5.408   2.550  0.2788 -0.2984  0.2198
11626TIP3    H156369   3.637   5.356   2.631 -0.2362  1.2802  1.2949
11626TIP3    H256370   3.552   5.388   2.510 -0.3545  0.3928  1.1385
11627TIP3   OH256371   1.578   1.461   1.650  0.2941  0.4617 -0.9155
11627TIP3    H156372   1.567   1.435   1.559 -1.4727  0.8285 -0.8410
11627TIP3    H256373   1.606   1.552   1.646 -0.6385  0.7467 -1.0935
11628TIP3   OH256374   4.950   1.829   2.214  0.1806 -0.3643  0.1392
11628TIP3    H156375   4.990   1.916   2.209 -0.8034  0.1159  0.3651
11628TIP3    H256376   4.949   1.799   2.123  0.1542  0.0395  0.0010
11629TIP3   OH256377   4.404   5.600  12.371  0.2266 -0.1667 -0.4782
11629TIP3    H156378   4.453   5.613  12.452  1.6439 -2.9035 -0.7777
11629TIP3    H256379   4.351   5.522  12.387  0.5394 -0.7648 -2.1482
11630TIP3   OH256380   0.418   3.405   4.722 -0.3926 -0.0975 -0.3228
11630TIP3    H156381   0.390   3.410   4.630 -0.5628 -1.4895 -0.3767
11630TIP3    H256382   0.510   3.432   4.721 -0.9810  2.0953 -0.5284
11631TIP3   OH256383   6.558   2.239  14.396 -0.3989  0.2277 -0.3354
11631TIP3    H156384   6.492   2.308  14.401  0.6169  1.1293  2.2454
11631TIP3    H256385   6.508   2.160  14.375 -1.7590  1.4634 -2.0167
11632TIP3   OH256386   3.310   0.176   0.284  0.2673 -0.1017 -0.5030
11632TIP3    H156387   3.310   0.104   0.346  0.3474 -0.6012 -1.0754
11632TIP3    H256388   3.229   0.224   0.303  0.3734 -0.1477  0.0914
11633TIP3   OH256389   3.018   2.686   1.069  0.3432  0.2368  0.2888
11633TIP3    H156390   3.106   2.722   1.060  1.4035 -1.9742  1.2310
11633TIP3    H256391   2.984   2.724   1.150  1.1769 -0.3171  0.9057
11634TIP3   OH256392   4.041   6.831  11.616  0.0595 -0.3839 -0.4299
11634TIP3    H156393   4.094   6.843  11.537 -1.1834  2.8580 -0.9021
11634TIP3    H256394   4.080   6.890  11.680 -1.7823  0.6206 -0.1910
11635TIP3   OH256395   4.131   4.890  12.768 -0.6884  0.2561 -0.1937
11635TIP3    H156396   4.141   4.849  12.682 -0.4193  1.8871 -0.9693
11635TIP3    H256397   4.090   4.822  12.822 -2.7857 -0.1518 -2.1357
11636TIP3   OH256398   4.177   6.687   2.322  0.1296 -0.4274  0.5423
11636TIP3    H156399   4.252   6.693   2.262  0.1547  0.0928  0.6172
11636TIP3    H256400   4.102   6.671   2.264  0.3634 -1.4513  0.5125
11637TIP3   OH256401   0.492   4.213   0.889 -0.5162  0.8115  0.4237
11637TIP3    H156402   0.453   4.232   0.974 -0.8821  1.9965  0.0161
11637TIP3    H256403   0.580   4.251   0.894 -0.3758  0.4854  0.4297
11638TIP3   OH256404   3.203   6.406   2.876  0.3904  0.5130 -0.2822
11638TIP3    H156405   3.204   6.502   2.877 -1.1059  0.5487 -0.3245
11638TIP3    H256406   3.200   6.382   2.969 -1.1902  0.5662 -0.3063
11639TIP3   OH256407   3.980   4.521   6.056  0.3941 -0.0377  0.2899
11639TIP3    H156408   4.050   4.508   5.993  0.2651 -1.6241  0.4290
11639TIP3    H256409   3.947   4.609   6.039 -1.3822 -1.2694 -3.6475
11640TIP3   OH256410   4.169   2.916  13.460 -0.4186  0.0453 -0.6234
11640TIP3    H156411   4.141   2.963  13.538 -0.7412 -0.8859 -0.1603
11640TIP3    H256412   4.089   2.877  13.425  0.2086 -2.8949  0.8762
11641TIP3   OH256413   1.512   3.626  12.070  0.0611  0.2281  0.0528
11641TIP3    H156414   1.419   3.631  12.044 -0.1172 -1.6926  0.1731
11641TIP3    H256415   1.519   3.684  12.145 -1.1408  0.1212  0.2715
11642TIP3   OH256416   5.341   3.062  14.026 -0.0444 -0.8938 -0.0134
11642TIP3    H156417   5.430   3.086  13.999 -0.3394 -0.7588 -0.8832
11642TIP3    H256418   5.327   3.111  14.108  0.4383 -0.4032 -0.2204
11643TIP3   OH256419   1.130   0.351   1.462  0.2770  0.1100  0.3447
11643TIP3    H156420   1.148   0.365   1.555 -2.2260  0.3984  0.8542
11643TIP3    H256421   1.142   0.257   1.448  1.2569  0.1617  0.7959
11644TIP3   OH256422   3.225   3.497  14.067  0.4028 -0.9177 -0.2206
11644TIP3    H156423   3.252   3.588  14.084  0.4079 -0.2284 -3.3199
11644TIP3    H256424   3.135   3.493  14.099 -1.0043  1.4822 -3.2704
11645TIP3   OH256425   1.414   3.489  13.120 -0.3669 -0.5827 -0.0756
11645TIP3    H156426   1.356   3.566  13.113 -1.7819 -1.5920  0.1072
11645TIP3    H256427   1.389   3.448  13.202  1.1802 -0.6315  0.3952
11646TIP3   OH256428   6.080   3.605  11.149 -0.3235  0.1313  0.3595
11646TIP3    H156429   6.166   3.643  11.128  0.6813 -0.6824  2.5880
11646TIP3    H256430   6.036   3.674  11.199 -1.2171  0.7376 -1.2153
11647TIP3   OH256431   4.491   6.822   3.667  0.4086  0.0054  0.3123
11647TIP3    H156432   4.554   6.863   3.608  0.1349  1.2633  0.8659
11647TIP3    H256433   4.423   6.787   3.609  0.7083  0.2292 -0.1802
11648TIP3   OH256434   6.748   1.243   1.908  0.1888  0.3588 -0.0214
11648TIP3    H156435   6.794   1.216   1.988 -1.4626 -1.2312  0.4530
11648TIP3    H256436   6.769   1.176   1.844 -1.2906 -0.3009  0.1559
11649TIP3   OH256437   4.299   3.257   6.466  0.2399  0.4222  0.2263
11649TIP3    H156438   4.334   3.346   6.474  2.9217 -0.6261  1.0368
11649TIP3    H256439   4.331   3.226   6.381 -0.5857  0.1550 -0.0004
11650TIP3   OH256440   2.338   1.891   0.312  0.1103 -0.0697 -0.7027
11650TIP3    H156441   2.395   1.818   0.336 -0.6626 -0.7624 -0.9259
11650TIP3    H256442   2.397   1.957   0.275  1.1988  0.5296  1.8887
11651TIP3   OH256443   0.257   5.219   0.991 -0.1921 -0.1173 -0.3329
11651TIP3    H156444   0.253   5.312   0.968  0.4852 -0.6159 -2.6662
11651TIP3    H256445   0.250   5.218   1.087  0.5072  2.3743 -0.1875
11652TIP3   OH256446   4.721   1.606   3.963 -0.5567  0.2776 -0.2290
11652TIP3    H156447   4.742   1.533   3.904  0.9553  0.1697  0.4095
11652TIP3    H256448   4.664   1.567   4.030  0.2051 -0.3114  0.0826
11653TIP3   OH256449   3.178   2.870  16.596  0.5355 -0.2218  0.4031
11653TIP3    H156450   3.146   2.956  16.623 -2.5952 -1.2303  0.3299
11653TIP3    H256451   3.188   2.877  16.501 -1.0332 -0.2335  0.2006
11654TIP3   OH256452   4.247   1.517   2.719 -0.5123 -0.0160  0.1093
11654TIP3    H156453   4.202   1.594   2.686  0.2760  0.5340  0.2985
11654TIP3    H256454   4.185   1.478   2.781 -1.2703 -0.0416 -0.6431
11655TIP3   OH256455   6.693   4.142   2.619  0.1514  0.7205 -0.0016
11655TIP3    H156456   6.746   4.188   2.684 -0.5742  0.1443  1.0336
11655TIP3    H256457   6.603   4.155   2.648 -0.3383  1.9623 -1.9070
11656TIP3   OH256458   6.631   5.201   2.560  0.3196  0.4067  0.0150
11656TIP3    H156459   6.642   5.264   2.631 -0.6747  0.4649  0.1301
11656TIP3    H256460   6.601   5.121   2.603 -1.2167  0.7205 -0.4054
11657TIP3   OH256461   6.426   5.392  13.293 -0.0265 -0.2628  0.1673
11657TIP3    H156462   6.519   5.403  13.315  0.5390 -1.7704 -1.3180
11657TIP3    H256463   6.398   5.315  13.342 -0.3221 -0.2012  0.0994
11658TIP3   OH256464   3.949   1.237  13.620  0.3507  0.4863  0.1897
11658TIP3    H156465   3.988   1.154  13.645 -0.2123  0.4772  1.0577
11658TIP3    H256466   4.024   1.296  13.606  0.7130  0.6653  2.4853
11659TIP3   OH256467   2.334   1.916  17.091  0.3863 -0.6963 -0.0115
11659TIP3    H156468   2.296   1.885  17.008 -0.5043  0.4939 -0.0737
11659TIP3    H256469   2.269   1.892  17.157  0.0687  0.3029  0.0434
11660TIP3   OH256470   0.739   5.354   4.911 -0.4657 -0.6105  0.2242
11660TIP3    H156471   0.816   5.366   4.967 -1.6465 -0.4169  1.9000
11660TIP3    H256472   0.712   5.264   4.927 -0.2299 -0.8970 -0.8845
11661TIP3   OH256473   0.193   4.838  14.405  0.3016  0.3952 -0.4969
11661TIP3    H156474   0.115   4.784  14.389  0.7720 -0.6407  0.5855
11661TIP3    H256475   0.262   4.775  14.425  1.5996  1.2483 -2.0158
11662TIP3   OH256476   0.699   3.292   0.023  0.1251 -0.3730  0.4280
11662TIP3    H156477   0.650   3.351   0.080 -1.1613 -1.8557  0.9397
11662TIP3    H256478   0.780   3.339   0.003  0.5294  0.3516  3.2676
11663TIP3   OH256479   1.462   3.593   3.245 -0.7184  0.6026 -0.5390
11663TIP3    H156480   1.533   3.559   3.191  0.8472 -1.6006  2.6104
11663TIP3    H256481   1.398   3.523   3.248 -0.1975  0.1606  1.3459
11664TIP3   OH256482   1.267   5.406  11.591 -0.3911 -0.0530  0.2768
11664TIP3    H156483   1.347   5.456  11.611 -0.9878  0.4965  1.3879
11664TIP3    H256484   1.296   5.337  11.531  0.9143  0.1500  0.6490
11665TIP3   OH256485   2.490   0.391  13.042 -0.3970 -1.0054  0.2913
11665TIP3    H156486   2.483   0.370  12.949  0.3898 -1.9145  0.4246
11665TIP3    H256487   2.427   0.462  13.056 -0.0373 -0.3913 -1.0729
11666TIP3   OH256488   6.074   0.369   5.805 -0.0458  0.1461 -0.3058
11666TIP3    H156489   6.090   0.277   5.783  1.5190 -0.3081  2.3803
11666TIP3    H256490   5.993   0.368   5.856 -0.6785  0.4565 -1.2759
11667TIP3   OH256491   4.384   6.384   4.455  0.4819  0.1802  0.3743
11667TIP3    H156492   4.437   6.392   4.376 -1.2829  0.8264 -0.8202
11667TIP3    H256493   4.365   6.290   4.462  0.5384  0.1380 -0.0479
11668TIP3   OH256494   4.139   2.516   1.668 -0.2895  0.1019 -0.0892
11668TIP3    H156495   4.200   2.446   1.646 -0.2565  0.9001 -2.8910
11668TIP3    H256496   4.074   2.474   1.725  1.6498 -1.2608  1.2530
11669TIP3   OH256497   3.278   1.853   5.311  0.5267 -0.3561  0.2850
11669TIP3    H156498   3.336   1.892   5.376 -0.5612 -1.3464  1.9013
11669TIP3    H256499   3.227   1.928   5.277  1.3127  0.2084  0.3242
11670TIP3   OH256500   0.286   3.411  13.259 -0.3873  0.3351 -0.0941
11670TIP3    H156501   0.294   3.368  13.174  0.7877 -0.6287  0.4887
11670TIP3    H256502   0.194   3.399  13.283 -0.0217 -2.2610  0.2422
11671TIP3   OH256503   5.933   5.911   0.372  0.2549  0.0899  0.2020
11671TIP3    H156504   5.986   5.946   0.300 -0.2663  0.0254 -0.2150
11671TIP3    H256505   5.912   5.988   0.425 -2.4835  0.8325 -1.7236
11672TIP3   OH256506   2.319   0.822  12.632 -0.2891  0.0816  0.4231
11672TIP3    H156507   2.234   0.804  12.591  0.1556 -2.7504  0.5312
11672TIP3    H256508   2.356   0.894  12.581 -1.3642 -0.8135 -1.7608
11673TIP3   OH256509   2.353   5.323   3.175 -0.5212 -0.2588 -0.0432
11673TIP3    H156510   2.422   5.293   3.234  0.9851  4.2549  0.8624
11673TIP3    H256511   2.274   5.320   3.228 -0.7504 -3.1816 -0.3388
11674TIP3   OH256512   3.081   0.486   3.562 -0.9584  0.0748 -0.3470
11674TIP3    H156513   3.089   0.501   3.656 -0.8491 -3.5024  0.3318
11674TIP3    H256514   3.123   0.562   3.522 -2.6721  2.6936  2.3666
11675TIP3   OH256515   5.724   4.010   0.169  0.3476 -0.6232  0.2839
11675TIP3    H156516   5.799   3.984   0.114  0.1118 -0.5369 -0.0848
11675TIP3    H256517   5.710   4.102   0.149  2.6037  0.5055  3.2670
11676TIP3   OH256518   4.867   2.898  15.042 -0.4423 -0.0092 -0.3002
11676TIP3    H156519   4.943   2.884  15.099  0.1749 -0.2639 -1.1674
11676TIP3    H256520   4.793   2.863  15.092 -0.4032  2.2722  1.5556
11677TIP3   OH256521   1.911   6.784   0.000  0.0462  0.2527  0.5368
11677TIP3    H156522   1.888   6.873  -0.025  0.0000  0.3038  0.7552
11677TIP3    H256523   1.986   6.762  -0.054 -0.9249 -0.1671 -0.7047
11678TIP3   OH256524   5.202   0.245  14.603  0.2367 -0.5013 -0.4271
11678TIP3    H156525   5.296   0.239  14.583  1.1536 -0.7136  3.1930
11678TIP3    H256526   5.170   0.313  14.544  2.5318 -0.7643 -2.1356
11679TIP3   OH256527   4.224   6.315   2.448 -0.1055 -0.3218  0.8072
11679TIP3    H156528   4.275   6.273   2.378  1.4126 -0.0172  1.6907
11679TIP3    H256529   4.188   6.242   2.498 -0.6824 -0.5435  0.0738
11680TIP3   OH256530   6.122   6.535  17.120  0.3244  0.5685 -0.1892
11680TIP3    H156531   6.048   6.575  17.167  0.7406  1.9146 -0.6378
11680TIP3    H256532   6.198   6.555  17.174  0.1937 -3.1286  1.7431
11681TIP3   OH256533   6.233   5.796  14.709  0.0606 -0.0125  0.1151
11681TIP3    H156534   6.243   5.882  14.749  2.7807 -0.4351  0.5709
11681TIP3    H256535   6.262   5.735  14.777  1.1959 -1.0100 -1.2120
11682TIP3   OH256536   5.363   4.842  14.104 -0.0300  0.5967 -0.2552
11682TIP3    H156537   5.298   4.833  14.174  0.0095  0.8659 -0.1794
11682TIP3    H256538   5.447   4.838  14.149  0.0397 -0.7116 -0.4652
11683TIP3   OH256539   6.716   2.133  16.807  0.2222  0.5119  0.0952
11683TIP3    H156540   6.735   2.226  16.811  1.2099  0.3840 -0.9236
11683TIP3    H256541   6.801   2.090  16.822 -0.3455 -0.2557  1.2968
11684TIP3   OH256542   4.507   1.262  16.254  0.1121  0.1597  0.5349
11684TIP3    H156543   4.594   1.250  16.294 -0.1328 -2.8834  0.4448
11684TIP3    H256544   4.451   1.289  16.326  0.3906 -1.8389  1.5911
11685TIP3   OH256545   0.092   2.740  14.136  0.2495 -0.0659 -0.1287
11685TIP3    H156546   0.020   2.749  14.198 -0.9936 -2.8291 -0.9776
11685TIP3    H256547   0.164   2.703  14.187  0.1406  0.1757  0.2019
11686TIP3   OH256548   6.042   2.174  13.744  0.2990 -0.7410  0.4590
11686TIP3    H156549   6.060   2.201  13.834 -0.0782 -0.3403  0.4176
11686TIP3    H256550   5.948   2.193  13.731  0.3730 -0.6948 -0.0469
11687TIP3   OH256551   0.410   3.921   6.310 -0.0850 -0.2454  0.0074
11687TIP3    H156552   0.476   3.852   6.312  0.4488  0.2674  1.1813
11687TIP3    H256553   0.461   4.002   6.301 -0.7280 -0.0150 -1.8850
11688TIP3   OH256554   1.541   4.135   1.648 -0.3068 -0.9541  0.5307
11688TIP3    H156555   1.482   4.134   1.573  2.0635 -2.3541 -1.4798
11688TIP3    H256556   1.528   4.051   1.691 -0.2385 -0.9883  0.4843
11689TIP3   OH256557   5.535   6.718   4.052 -0.1627 -0.0600  0.5536
11689TIP3    H156558   5.465   6.775   4.018 -0.0591 -0.3938 -0.2531
11689TIP3    H256559   5.567   6.671   3.974  1.1195  0.2513  0.8715
11690TIP3   OH256560   5.707   6.275   2.692  0.6357  0.3055  0.4688
11690TIP3    H156561   5.710   6.228   2.775  0.6191 -1.3743 -0.4554
11690TIP3    H256562   5.730   6.210   2.626  0.5268  1.5762 -0.8684
11691TIP3   OH256563   5.103   6.803  14.539 -0.4910 -0.1847  0.1407
11691TIP3    H156564   5.157   6.881  14.547 -0.7792  0.0981 -0.6248
11691TIP3    H256565   5.088   6.775  14.629  1.2330 -0.4853  0.3770
11692TIP3   OH256566   2.052   0.314   1.219 -0.1742 -0.0526  0.6434
11692TIP3    H156567   1.993   0.343   1.289 -1.3993 -0.5912 -0.1394
11692TIP3    H256568   2.007   0.240   1.178  0.8886 -0.2565 -0.2171
11693TIP3   OH256569   4.568   0.292   0.966 -0.5157 -0.3520 -0.1882
11693TIP3    H156570   4.500   0.252   1.020 -1.3452 -1.8078 -2.1836
11693TIP3    H256571   4.522   0.319   0.886  0.7851  1.0761 -0.4952
11694TIP3   OH256572   5.571   4.571  14.835 -0.2496  0.4175 -0.1249
11694TIP3    H156573   5.537   4.629  14.768  0.0646 -0.0262 -0.6746
11694TIP3    H256574   5.649   4.615  14.868 -1.1373  1.2806  0.9085
11695TIP3   OH256575   5.191   2.276   1.444  0.5886 -0.0073 -0.1344
11695TIP3    H156576   5.276   2.282   1.402  1.0804 -2.6732  0.3432
11695TIP3    H256577   5.206   2.223   1.523 -1.1335  1.2174  1.0994
11696TIP3   OH256578   6.313   1.545  10.986 -0.2464 -0.3866 -0.2269
11696TIP3    H156579   6.318   1.455  10.954 -0.7572 -0.1887 -0.8903
11696TIP3    H256580   6.245   1.586  10.932 -0.4615  0.2214  0.4891
11697TIP3   OH256581   3.988   0.547   5.646  0.5781  0.1922  0.3102
11697TIP3    H156582   3.946   0.501   5.574 -0.1031 -0.5134  1.1405
11697TIP3    H256583   3.961   0.499   5.724  0.7769  1.3271  1.0970
11698TIP3   OH256584   0.392   3.814   2.980  0.2025  0.3981  0.6715
11698TIP3    H156585   0.380   3.890   2.922 -0.9194  0.0135  0.3717
11698TIP3    H256586   0.322   3.822   3.045  0.8567  0.2904  1.4051
11699TIP3   OH256587   3.454   4.860   2.778  0.0654  0.2287  0.0676
11699TIP3    H156588   3.510   4.934   2.802 -0.5018  0.5774  0.3210
11699TIP3    H256589   3.371   4.877   2.823 -0.5119  0.1226 -0.9413
11700TIP3   OH256590   5.512   3.590  12.584 -0.1544  0.3193 -0.3522
11700TIP3    H156591   5.581   3.649  12.555 -0.5795  0.2042 -1.6898
11700TIP3    H256592   5.437   3.647  12.602 -0.1431  0.3185 -0.3039
11701TIP3   OH256593   2.814   1.323   3.275  0.0747  0.3861 -0.5507
11701TIP3    H156594   2.719   1.327   3.262  0.0816  2.2722 -0.2254
11701TIP3    H256595   2.830   1.377   3.352  1.4081 -0.0957 -0.4614
11702TIP3   OH256596   6.677   6.817  16.837 -0.2151 -0.1210  0.3422
11702TIP3    H156597   6.680   6.819  16.933 -1.9579 -0.0112  0.4145
11702TIP3    H256598   6.596   6.861  16.814  0.4967  0.4509 -1.2370
11703TIP3   OH256599   5.979   4.122   2.973 -0.5088  0.2127 -0.3646
11703TIP3    H156600   5.953   4.033   2.994  0.6463 -0.4815 -1.7661
11703TIP3    H256601   5.978   4.167   3.058  1.7851 -1.8900  0.8961
11704TIP3   OH256602   4.448   1.957   3.197 -0.1029 -0.1061 -0.4890
11704TIP3    H156603   4.516   1.889   3.193 -0.8769 -0.8881 -0.6556
11704TIP3    H256604   4.492   2.036   3.167  1.5004  0.0611  2.0478
11705TIP3   OH256605   1.936   2.752  16.198 -0.4881  0.6281  0.3318
11705TIP3    H156606   2.005   2.702  16.156 -1.8216  0.7319 -2.1485
11705TIP3    H256607   1.954   2.744  16.292  0.4370 -2.8819 -0.0064
11706TIP3   OH256608   3.179   4.283  14.718  0.1830  0.0534  0.3338
11706TIP3    H156609   3.262   4.240  14.700  0.2068  0.2906 -0.1445
11706TIP3    H256610   3.154   4.252  14.805  1.9907  1.8364  1.6037
11707TIP3   OH256611   2.169   2.692  15.790 -0.3017  0.1644  0.2360
11707TIP3    H156612   2.242   2.751  15.773  1.1109 -1.5943 -0.2051
11707TIP3    H256613   2.091   2.738  15.758  0.6383  1.9942  0.5114
11708TIP3   OH256614   3.485   3.644  15.178 -0.9007  0.1836 -0.3697
11708TIP3    H156615   3.479   3.549  15.187 -2.8757  0.1232 -1.7684
11708TIP3    H256616   3.492   3.658  15.083  0.5301  1.4286 -0.1268
11709TIP3   OH256617   5.035   1.657   0.128  0.1655 -0.3881 -0.0388
11709TIP3    H156618   5.053   1.582   0.071 -0.8236 -0.3554 -0.4172
11709TIP3    H256619   5.003   1.618   0.209 -1.9952 -0.3657 -0.8356
11710TIP3   OH256620   1.334   1.776  15.212  0.1720  0.2174  0.1406
11710TIP3    H156621   1.365   1.721  15.140 -2.0144 -0.9558 -0.0105
11710TIP3    H256622   1.293   1.850  15.168 -0.2850  0.0005  0.1932
11711TIP3   OH256623   5.461   1.492   4.708  0.2150 -0.0654 -0.4365
11711TIP3    H156624   5.366   1.489   4.722  0.3000 -1.4379  0.0942
11711TIP3    H256625   5.498   1.482   4.796  0.8527  0.5344 -0.6316
11712TIP3   OH256626   5.814   5.163   4.303  0.1517 -0.0584  0.3391
11712TIP3    H156627   5.721   5.151   4.325  0.0319  0.9436  0.4405
11712TIP3    H256628   5.854   5.190   4.386  0.7133 -1.3318  0.5009
11713TIP3   OH256629   1.085   1.721   1.423  0.7530  0.0831  0.0138
11713TIP3    H156630   1.047   1.638   1.393  2.8708 -1.8513  2.2587
11713TIP3    H256631   1.055   1.786   1.359 -2.5590 -2.0170 -0.7969
11714TIP3   OH256632   0.644   1.563   4.759 -0.5942  0.0104  0.5138
11714TIP3    H156633   0.564   1.564   4.707 -0.8541  0.5388  0.9114
11714TIP3    H256634   0.651   1.652   4.795  0.9950  0.4425 -0.7512
11715TIP3   OH256635   3.074   0.469  16.484  0.5462 -0.2042 -0.3705
11715TIP3    H156636   2.989   0.444  16.520  0.7337  0.5017  0.6116
11715TIP3    H256637   3.087   0.410  16.410  0.0293 -1.5770  0.5902
11716TIP3   OH256638   6.486   1.052  15.553  0.2152  0.0688  0.6434
11716TIP3    H156639   6.498   0.990  15.481  1.1765  0.2991  0.5934
11716TIP3    H256640   6.400   1.092  15.536  1.0677  1.2251 -1.2542
11717TIP3   OH256641   3.357   3.606   3.750 -0.1721 -0.0108 -0.2701
11717TIP3    H156642   3.347   3.681   3.692  0.9634 -1.5980 -2.6720
11717TIP3    H256643   3.436   3.625   3.800  1.3085 -0.4130 -2.3315
11718TIP3   OH256644   6.734   0.538  12.490  0.0817  0.3180 -0.1211
11718TIP3    H156645   6.717   0.470  12.555 -1.3255  1.0981  0.3667
11718TIP3    H256646   6.722   0.620  12.538  1.4991  0.9407 -0.7592
11719TIP3   OH256647   3.931   0.780  17.059 -0.2166 -0.4152 -0.0068
11719TIP3    H156648   4.019   0.797  17.091 -0.3364  1.3259 -0.4748
11719TIP3    H256649   3.887   0.865  17.065 -2.2528 -1.4847  1.3668
11720TIP3   OH256650   0.690   2.580  14.716 -0.1285  0.1069  0.5132
11720TIP3    H156651   0.680   2.625  14.632 -2.7099  0.8240  1.1045
11720TIP3    H256652   0.749   2.636  14.767  0.3349  0.3972 -0.3339
11721TIP3   OH256653   0.712   0.642   0.285 -0.0668 -0.2361  0.3334
11721TIP3    H156654   0.667   0.727   0.291 -1.1832 -0.7960  0.2096
11721TIP3    H256655   0.662   0.585   0.343  0.5710 -0.8562  0.2769
11722TIP3   OH256656   4.879   5.296  12.860 -0.4986  0.1379 -0.1396
11722TIP3    H156657   4.798   5.283  12.810  0.4629 -0.5326 -1.5947
11722TIP3    H256658   4.947   5.303  12.793  0.4456  2.4269  0.9750
11723TIP3   OH256659   0.204   0.237   0.198 -0.8523 -0.3289  0.0970
11723TIP3    H156660   0.118   0.197   0.181 -0.5604 -1.2580  0.7612
11723TIP3    H256661   0.210   0.242   0.293 -0.5670  0.6258  0.0335
11724TIP3   OH256662   4.186   2.794  15.920 -0.2007 -0.4210 -0.3856
11724TIP3    H156663   4.203   2.820  15.829  0.9277  0.1282 -0.0327
11724TIP3    H256664   4.177   2.699  15.916 -0.1855 -0.4016 -1.0676
11725TIP3   OH256665   1.608   4.075  16.405 -0.1985  0.8166  0.0009
11725TIP3    H156666   1.531   4.129  16.389 -1.6478 -1.2819 -0.5584
11725TIP3    H256667   1.681   4.125  16.368 -1.7978  1.3774 -2.6736
11726TIP3   OH256668   4.095   0.909  14.728  0.3287 -1.3727  0.6700
11726TIP3    H156669   4.002   0.892  14.746  0.0690 -2.1802 -1.1616
11726TIP3    H256670   4.104   0.893  14.634  2.3945 -1.6074  0.8631
11727TIP3   OH256671   1.781   2.363   4.790 -0.2774  0.0160  0.0039
11727TIP3    H156672   1.782   2.276   4.830  0.4229  1.0292  2.3723
11727TIP3    H256673   1.752   2.422   4.860 -1.8770  1.5936 -1.8585
11728TIP3   OH256674   1.805   2.172  16.657  0.4210  0.4417 -0.1677
11728TIP3    H156675   1.857   2.238  16.610  0.5460  0.0975 -0.5190
11728TIP3    H256676   1.746   2.223  16.713  0.8749  0.8454 -0.0482
11729TIP3   OH256677   4.697   4.564   6.408  0.3586 -0.1862  0.1526
11729TIP3    H156678   4.639   4.510   6.462  1.5062 -1.7493 -0.0841
11729TIP3    H256679   4.769   4.505   6.385  0.4192  0.7197 -2.2542
11730TIP3   OH256680   0.130   1.440  16.481  0.0464 -0.3424 -0.0084
11730TIP3    H156681   0.103   1.510  16.541 -2.1924  0.1998 -1.5345
11730TIP3    H256682   0.054   1.425  16.425  1.7131 -1.4715 -2.1391
11731TIP3   OH256683   6.430   4.331  13.075  0.2859  0.3877  0.2101
11731TIP3    H156684   6.391   4.380  13.003  0.2291 -1.3722 -1.0245
11731TIP3    H256685   6.372   4.348  13.149 -2.2906 -1.2455 -1.2839
11732TIP3   OH256686   4.394   3.576   6.072  0.5889  0.1435 -0.7159
11732TIP3    H156687   4.441   3.510   6.123  0.3992  0.8275  0.3795
11732TIP3    H256688   4.445   3.656   6.084  0.3899  0.3763 -1.3958
11733TIP3   OH256689   1.534   6.566   2.855  0.2261 -0.6044  0.3364
11733TIP3    H156690   1.500   6.482   2.823 -0.7879 -0.2616  0.4678
11733TIP3    H256691   1.533   6.558   2.950  2.0962 -1.1776  0.3555
11734TIP3   OH256692   5.895   4.443  16.733 -0.0464  0.1102 -0.4577
11734TIP3    H156693   5.926   4.532  16.718  0.3585 -0.2343 -1.7956
11734TIP3    H256694   5.820   4.452  16.792  0.9769  1.1903  0.7199
11735TIP3   OH256695   3.491   2.642  12.911  0.1740  0.0916 -0.2834
11735TIP3    H156696   3.540   2.661  12.991 -0.0869 -0.9831  0.1497
11735TIP3    H256697   3.455   2.727  12.885  0.3344  0.4801  0.6954
11736TIP3   OH256698   3.255   6.326   4.626  0.2774 -0.2336  0.2500
11736TIP3    H156699   3.232   6.321   4.533  0.1734 -0.1148  0.2697
11736TIP3    H256700   3.190   6.272   4.670  0.8036 -0.9502  0.1730
11737TIP3   OH256701   5.660   5.627  14.839 -0.0079 -0.1561 -0.4937
11737TIP3    H156702   5.579   5.627  14.787  0.5115 -2.7778 -1.5072
11737TIP3    H256703   5.710   5.553  14.803  2.1780  0.4600  1.1141
11738TIP3   OH256704   4.606   0.560  11.564 -0.0648 -0.3342 -0.3369
11738TIP3    H156705   4.541   0.624  11.535 -1.1440  0.8868  3.9286
11738TIP3    H256706   4.553   0.490  11.604  1.1829 -0.8895  0.3864
11739TIP3   OH256707   6.058   4.154   2.303 -0.3370 -0.0110 -0.0365
11739TIP3    H156708   5.979   4.104   2.322 -0.7353  0.0280 -1.4846
11739TIP3    H256709   6.115   4.093   2.257 -0.4284  0.5664 -0.9464
11740TIP3   OH256710   0.293   1.115  15.981  0.0990  0.2688 -0.4134
11740TIP3    H156711   0.287   1.056  16.056 -2.1013 -0.2722 -0.9498
11740TIP3    H256712   0.309   1.201  16.019  0.6550 -0.2453  0.5541
11741TIP3   OH256713   1.496   6.498  13.470  0.3161  1.0363  0.4417
11741TIP3    H156714   1.524   6.500  13.561 -0.0077  1.4297  0.5336
11741TIP3    H256715   1.500   6.589  13.441  0.3560  0.9235  0.0801
11742TIP3   OH256716   6.060   0.654   1.085 -0.0158 -0.1849  0.0552
11742TIP3    H156717   6.029   0.569   1.055 -0.4577 -0.0201  0.0225
11742TIP3    H256718   6.154   0.653   1.071 -0.0640 -0.5491 -0.2388
11743TIP3   OH256719   6.679   3.831  16.280  0.1374  0.4356 -0.3532
11743TIP3    H156720   6.694   3.750  16.232  1.3913  0.2765  0.2710
11743TIP3    H256721   6.745   3.892  16.245  0.5882  0.5372  0.6434
11744TIP3   OH256722   0.234   5.881   5.702 -0.2351  0.1346  0.0811
11744TIP3    H156723   0.215   5.975   5.700  0.0493  0.2495  1.5616
11744TIP3    H256724   0.290   5.866   5.626 -0.2811  1.1595 -0.1656
11745TIP3   OH256725   6.571   0.164  11.895 -0.1480 -0.5285  0.1529
11745TIP3    H156726   6.510   0.173  11.822  0.5111  0.3157 -0.3039
11745TIP3    H256727   6.653   0.135  11.855  0.5558  1.0639  0.3865
11746TIP3   OH256728   2.419   4.352  15.961 -0.5107  0.1191 -0.9530
11746TIP3    H156729   2.456   4.269  15.931  0.9807  0.4381 -0.0755
11746TIP3    H256730   2.434   4.412  15.889  0.6218  0.2108 -0.6648
11747TIP3   OH256731   3.308   1.623   4.771 -0.5536 -0.4558 -0.5238
11747TIP3    H156732   3.293   1.576   4.689  1.1985 -1.0961 -0.5386
11747TIP3    H256733   3.337   1.710   4.744  1.0267 -0.9911 -0.6540
11748TIP3   OH256734   5.792   2.774  12.317 -0.3686 -0.4762  0.1469
11748TIP3    H156735   5.768   2.718  12.243 -0.7028 -2.1731  1.4641
11748TIP3    H256736   5.766   2.723  12.394 -2.1323  2.1804  1.4258
11749TIP3   OH256737   0.031   2.493  13.301 -0.3017 -0.1620  0.1842
11749TIP3    H156738   0.027   2.589  13.295 -0.1609 -0.0388  1.5251
11749TIP3    H256739  -0.052   2.462  13.267 -0.3316  0.4395 -0.2962
11750TIP3   OH256740   6.349   6.558   1.770 -0.0125 -0.2479 -0.2662
11750TIP3    H156741   6.385   6.571   1.858  1.8437 -1.3103 -0.8315
11750TIP3    H256742   6.328   6.464   1.767  1.8111 -0.6661 -1.5754
11751TIP3   OH256743   2.948   2.730  16.370 -0.7038  0.1107  0.2851
11751TIP3    H156744   2.964   2.824  16.366  0.1785 -0.0632 -1.3659
11751TIP3    H256745   2.854   2.721  16.354 -1.0321  0.7442  1.7123
11752TIP3   OH256746   0.409   2.122  11.406 -0.0103 -0.1473  0.1989
11752TIP3    H156747   0.486   2.069  11.386  0.2431  0.5387 -0.7847
11752TIP3    H256748   0.353   2.113  11.328 -1.2911 -1.2286  1.2051
11753TIP3   OH256749   0.348   1.792   1.234  0.2079  0.0547  0.2053
11753TIP3    H156750   0.431   1.838   1.243  0.1311 -0.0997  2.0108
11753TIP3    H256751   0.345   1.767   1.141  0.8554  2.4834 -0.5493
11754TIP3   OH256752   4.734   4.986   4.533 -0.5775  0.8438 -0.3346
11754TIP3    H156753   4.777   5.050   4.477  0.4510  1.4010  1.0199
11754TIP3    H256754   4.784   4.905   4.521 -0.6295  0.8428 -0.5424
11755TIP3   OH256755   0.967   2.407   2.266  0.5187 -0.0196 -0.4851
11755TIP3    H156756   0.920   2.386   2.185 -1.1291 -1.0501  0.6880
11755TIP3    H256757   0.991   2.321   2.303 -1.2270  0.2619  1.4862
11756TIP3   OH256758   4.825   3.349   3.716  0.4372 -0.1202  0.0958
11756TIP3    H156759   4.799   3.433   3.755 -0.7010 -0.5828  0.4015
11756TIP3    H256760   4.825   3.365   3.622 -0.4347  0.0621  0.1178
11757TIP3   OH256761   6.394   5.563   2.314 -0.8614 -0.2647  0.2974
11757TIP3    H156762   6.407   5.538   2.223 -2.8019  0.4824 -0.2445
11757TIP3    H256763   6.481   5.586   2.346 -0.1572 -0.4885 -1.3931
11758TIP3   OH256764   0.678   6.019   4.178  0.6283 -0.5021  0.6413
11758TIP3    H156765   0.733   6.050   4.250 -1.3536 -0.0748  2.0616
11758TIP3    H256766   0.610   5.966   4.220 -0.9372  0.2330 -0.8066
11759TIP3   OH256767   0.927   6.544   5.095  0.7571 -0.4962 -0.7205
11759TIP3    H156768   0.947   6.613   5.158 -0.5908 -1.7612  1.2199
11759TIP3    H256769   0.919   6.589   5.011  1.2103  1.4852  0.2431
11760TIP3   OH256770   5.250   1.940  14.009  0.4566  0.4437  0.4444
11760TIP3    H156771   5.227   1.859  14.055 -0.0928  1.2865  1.7261
11760TIP3    H256772   5.167   1.986  13.998  0.9696  1.7257  1.5666
11761TIP3   OH256773   4.987   5.126   3.471  0.6067 -0.4081 -0.3750
11761TIP3    H156774   5.071   5.103   3.511  0.8683  1.4625  0.2502
11761TIP3    H256775   4.990   5.221   3.462 -1.7250 -0.2022  0.3319
11762TIP3   OH256776   2.467   5.755   4.293 -0.5793 -0.0045 -0.2883
11762TIP3    H156777   2.461   5.724   4.203 -0.1864  1.3151 -0.8014
11762TIP3    H256778   2.399   5.822   4.299  0.3462  0.9345 -0.0606
11763TIP3   OH256779   1.453   6.141  14.239 -0.2669  0.0008 -0.2504
11763TIP3    H156780   1.362   6.135  14.210  0.0111  0.7431 -1.3342
11763TIP3    H256781   1.504   6.121  14.161  0.5034  0.3199  0.1649
11764TIP3   OH256782   4.521   6.371  12.921 -0.3364 -0.7669  0.2750
11764TIP3    H156783   4.558   6.421  12.994 -0.0347 -0.4482 -0.0892
11764TIP3    H256784   4.441   6.418  12.898 -0.2846 -0.7066  0.2182
11765TIP3   OH256785   0.763   4.946  15.409 -0.4658 -0.6840  1.0309
11765TIP3    H156786   0.777   4.927  15.316 -0.9464  0.5636  0.6705
11765TIP3    H256787   0.672   4.920  15.425 -0.0407 -1.9747  1.4723
11766TIP3   OH256788   0.434   1.899   5.837  0.2391  0.1941 -0.3971
11766TIP3    H156789   0.353   1.892   5.787 -0.1734  0.4090  0.2365
11766TIP3    H256790   0.406   1.901   5.929  1.0856 -2.3056  0.0003
11767TIP3   OH256791   0.864   1.144  12.263  0.1770 -0.5121  0.2096
11767TIP3    H156792   0.898   1.230  12.239 -0.0741 -0.6454 -0.6405
11767TIP3    H256793   0.777   1.161  12.298  1.1670 -0.1364  2.6689
11768TIP3   OH256794   6.335   4.515  14.211 -0.0714  0.1070  0.5863
11768TIP3    H156795   6.293   4.561  14.284  0.5205  1.4644  0.1040
11768TIP3    H256796   6.306   4.424  14.220 -0.8738  0.4643  1.8707
11769TIP3   OH256797   2.039   2.428  12.414 -0.1072 -0.4210  0.1552
11769TIP3    H156798   2.000   2.515  12.415  0.1205 -0.3094  1.8987
11769TIP3    H256799   2.121   2.440  12.365 -0.1351  0.3226  0.2693
11770TIP3   OH256800   6.423   1.624  12.413  0.1836  0.2843 -0.8786
11770TIP3    H156801   6.398   1.545  12.365  0.1879 -0.2538 -0.0128
11770TIP3    H256802   6.504   1.653  12.370  0.4588 -0.4702 -0.8866
11771TIP3   OH256803   1.420   3.600  17.057 -0.2118  0.0197  0.5486
11771TIP3    H156804   1.437   3.661  16.985 -0.3567  0.7327  1.0970
11771TIP3    H256805   1.415   3.657  17.134 -0.8255 -0.6480  1.0065
11772TIP3   OH256806   2.898   3.866  12.356 -0.4402 -0.0618 -0.9621
11772TIP3    H156807   2.973   3.878  12.298 -1.2822  0.9383 -1.8906
11772TIP3    H256808   2.889   3.771  12.366  1.0989 -0.1933 -0.5987
11773TIP3   OH256809   4.129   1.689  10.733 -0.0092  0.6051  0.8015
11773TIP3    H156810   4.179   1.749  10.787 -0.0326  0.6779  0.7424
11773TIP3    H256811   4.038   1.717  10.744 -0.0201  0.5808  0.7740
11774TIP3   OH256812   0.276   1.784   4.018  0.4693  0.0929 -0.1988
11774TIP3    H156813   0.241   1.758   3.933 -0.1765  0.3876 -0.0227
11774TIP3    H256814   0.220   1.855   4.047  1.1145  0.4667  0.1592
11775TIP3   OH256815   6.288   5.901   1.725  0.2688 -0.2766 -0.1140
11775TIP3    H156816   6.289   5.840   1.798  2.7017 -1.5086 -1.0517
11775TIP3    H256817   6.364   5.957   1.740  0.6930 -0.4213 -1.5615
11776TIP3   OH256818   3.687   5.350  12.685  0.8285  0.4523 -0.0564
11776TIP3    H156819   3.659   5.260  12.665  0.5853  0.5879 -0.3395
11776TIP3    H256820   3.770   5.340  12.731 -0.0487 -0.0158  1.5453
11777TIP3   OH256821   3.337   1.910   2.263  0.0238 -0.1134 -0.0867
11777TIP3    H156822   3.366   1.841   2.203 -0.5875 -0.4738  0.0143
11777TIP3    H256823   3.383   1.891   2.345  0.1207 -0.2041 -0.1618
11778TIP3   OH256824   4.327   0.959  16.510 -0.6528  0.2468 -0.5623
11778TIP3    H156825   4.295   0.914  16.588 -1.3640 -2.0348 -2.0780
11778TIP3    H256826   4.383   1.029  16.544 -0.4463 -1.0364  1.9633
11779TIP3   OH256827   2.176   2.895   5.285  0.0358 -0.5942 -0.3079
11779TIP3    H156828   2.212   2.959   5.346 -0.5265 -0.5206 -0.0477
11779TIP3    H256829   2.179   2.938   5.200  2.9866 -1.5279 -0.7801
11780TIP3   OH256830   3.011   0.391   5.738  0.0741 -0.4858 -0.4612
11780TIP3    H156831   2.974   0.428   5.818  1.2046  1.6590 -0.8634
11780TIP3    H256832   3.068   0.321   5.769  1.7019  1.2957  0.8176
11781TIP3   OH256833   0.627   5.168  13.230  0.0894  0.4028  0.7412
11781TIP3    H156834   0.637   5.225  13.305 -0.3739  1.4577  0.0250
11781TIP3    H256835   0.699   5.105  13.237  0.8514  1.3259  1.3264
11782TIP3   OH256836   3.530   3.477  12.560  0.5086  0.0213  0.3663
11782TIP3    H156837   3.564   3.423  12.631 -0.3013 -0.9329  0.0477
11782TIP3    H256838   3.471   3.539  12.603 -0.0832 -0.6399  0.5240
11783TIP3   OH256839   6.491   4.408   3.060  0.1828 -0.0249 -0.1936
11783TIP3    H156840   6.498   4.336   2.997  0.4936  0.0681 -0.2633
11783TIP3    H256841   6.397   4.424   3.066  0.0437 -0.9679  0.4264
11784TIP3   OH256842   4.890   5.747  11.444 -0.0623  0.4615 -0.1000
11784TIP3    H156843   4.938   5.725  11.523  1.4297  1.6788 -0.6263
11784TIP3    H256844   4.888   5.843  11.443  1.1146  0.5067 -2.1886
11785TIP3   OH256845   0.991   4.678   5.170 -0.8297  0.3037  0.6659
11785TIP3    H156846   0.965   4.762   5.133 -1.3559 -0.6393 -1.1927
11785TIP3    H256847   0.974   4.614   5.101  0.1585 -1.2624  1.7947
11786TIP3   OH256848   2.991   2.373  11.360 -0.2940 -0.4590  0.3714
11786TIP3    H156849   2.896   2.365  11.350 -0.8191  2.1070  2.2006
11786TIP3    H256850   3.002   2.439  11.429  2.8305  1.2085 -1.5129
11787TIP3   OH256851   5.417   5.535   0.276  0.4955 -0.1647  0.5024
11787TIP3    H156852   5.496   5.573   0.312  0.3372  1.4165 -0.6793
11787TIP3    H256853   5.412   5.570   0.187 -0.4985 -1.7905 -0.1314
11788TIP3   OH256854   1.277   2.673   5.561 -0.8096 -0.0634  0.6331
11788TIP3    H156855   1.249   2.583   5.548 -0.6456 -0.1613  0.9415
11788TIP3    H256856   1.240   2.698   5.646  0.8692 -0.5452  1.5624
11789TIP3   OH256857   1.167   1.471   4.692 -0.1291  1.3247 -0.4055
11789TIP3    H156858   1.203   1.445   4.608 -1.7293  0.5363 -0.8780
11789TIP3    H256859   1.078   1.500   4.672 -1.0121 -0.1174  1.1503
11790TIP3   OH256860   4.395   4.090  14.935  0.2741  0.2963 -0.0880
11790TIP3    H156861   4.484   4.109  14.905  0.7765 -0.3222  0.9466
11790TIP3    H256862   4.348   4.065  14.855  1.0436  0.5674 -0.6376
11791TIP3   OH256863   5.881   2.426  12.467 -0.0982 -0.6020 -0.3840
11791TIP3    H156864   5.924   2.346  12.436 -0.1344 -0.8586  0.2242
11791TIP3    H256865   5.942   2.496  12.444  1.3739 -1.0887  1.7609
11792TIP3   OH256866   1.558   3.879   3.247  0.0629  0.2692 -0.6707
11792TIP3    H156867   1.549   3.784   3.238 -0.6395  0.3813 -1.3750
11792TIP3    H256868   1.649   3.894   3.271 -0.3235 -0.7130  1.5776
11793TIP3   OH256869   3.437   2.288   1.679  0.0024  0.0868 -0.2496
11793TIP3    H156870   3.361   2.294   1.621 -0.1720  1.2662  0.0783
11793TIP3    H256871   3.401   2.270   1.765  0.2216 -1.0028 -0.3648
11794TIP3   OH256872   3.099   0.971   5.471  0.3175  0.4975 -0.3012
11794TIP3    H156873   3.114   0.876   5.479  2.5368  0.8150  0.0369
11794TIP3    H256874   3.035   0.991   5.540 -1.7631 -0.9996 -1.6659
11795TIP3   OH256875   4.396   1.300   3.222 -0.8230 -0.2549  0.4424
11795TIP3    H156876   4.358   1.250   3.295  0.3535 -0.8007  0.7046
11795TIP3    H256877   4.489   1.277   3.223 -0.4711  1.0614 -0.1710
11796TIP3   OH256878   1.516   0.043  13.756  0.2390  0.9812 -0.4806
11796TIP3    H156879   1.583   0.026  13.691 -0.0875  2.1286 -1.1378
11796TIP3    H256880   1.538   0.129  13.792 -0.2747  0.8991  0.0465
11797TIP3   OH256881   2.062   5.686   0.395 -0.7942  0.0808 -0.2013
11797TIP3    H156882   2.063   5.702   0.490  0.4513 -0.5639 -0.0805
11797TIP3    H256883   2.073   5.591   0.388 -1.0272  0.1109 -0.9960
11798TIP3   OH256884   6.120   2.893  11.357  0.4407  0.5325  0.1260
11798TIP3    H156885   6.193   2.847  11.398 -0.1761  1.7745  2.8558
11798TIP3    H256886   6.051   2.827  11.351  1.4203 -0.3997 -1.6017
11799TIP3   OH256887   5.695   0.493   5.617 -0.2431 -0.5169 -0.8410
11799TIP3    H156888   5.643   0.551   5.672  0.8883  1.8510 -2.0806
11799TIP3    H256889   5.762   0.457   5.675 -0.3381  0.2732 -0.2237
11800TIP3   OH256890   3.486   4.011   3.283  0.1969 -0.0635  0.5541
11800TIP3    H156891   3.511   3.979   3.196 -0.8407  1.4545 -0.3651
11800TIP3    H256892   3.392   3.997   3.288  0.2689 -0.2773  1.5090
11801TIP3   OH256893   2.538   5.552   2.155  0.4922  0.2276 -0.0911
11801TIP3    H156894   2.519   5.524   2.245 -0.0386  0.5756 -0.0845
11801TIP3    H256895   2.616   5.504   2.130  0.4553 -0.1182  0.4462
11802TIP3   OH256896   0.656   2.011  12.580  0.1371 -0.2107 -0.0455
11802TIP3    H156897   0.735   2.052  12.545 -0.2710  1.1902  0.6211
11802TIP3    H256898   0.688   1.933  12.624  0.8181 -1.2724 -2.2437
11803TIP3   OH256899   5.455   1.331   6.873  0.1965 -0.1986 -0.0781
11803TIP3    H156900   5.456   1.251   6.821 -0.5539 -0.5203  0.3840
11803TIP3    H256901   5.367   1.333   6.912  0.2637  0.7640  0.0483
11804TIP3   OH256902   0.490   2.405   1.894  0.4866 -0.3187  0.0992
11804TIP3    H156903   0.575   2.379   1.930  0.8532 -0.0395 -0.5467
11804TIP3    H256904   0.461   2.329   1.845  0.9491  0.0080 -0.7039
11805TIP3   OH256905   0.079   3.650   5.430 -0.5163  0.1114 -0.3193
11805TIP3    H156906   0.170   3.638   5.455 -0.5568 -0.2830 -0.3472
11805TIP3    H256907   0.044   3.713   5.493 -0.1137  0.5872 -0.5698
11806TIP3   OH256908   3.590   4.964   1.443  0.1338 -0.0718  0.4494
11806TIP3    H156909   3.523   4.936   1.506  0.1098  0.5169  0.6855
11806TIP3    H256910   3.539   4.993   1.367  0.1556 -0.4913  0.2663
11807TIP3   OH256911   3.490   5.228   3.555  0.1160  0.1887 -0.0591
11807TIP3    H156912   3.437   5.203   3.479 -1.2030 -0.8958  1.1607
11807TIP3    H256913   3.429   5.275   3.611  1.1094  1.0739  0.2892
11808TIP3   OH256914   1.810   2.168  11.020 -1.0414  0.1722  0.2631
11808TIP3    H156915   1.885   2.157  11.078 -0.3491  1.8768 -0.2309
11808TIP3    H256916   1.795   2.263  11.018 -3.7961 -0.1608  1.0420
11809TIP3   OH256917   4.304   6.658   1.314 -0.0715  0.6860 -0.1171
11809TIP3    H156918   4.386   6.673   1.266  0.1567 -1.8474 -0.6854
11809TIP3    H256919   4.236   6.694   1.258  0.4815  0.7846 -0.7358
11810TIP3   OH256920   3.172   4.519  12.923  0.0902 -1.0853  0.4738
11810TIP3    H156921   3.200   4.579  12.992  1.0843  1.0226 -1.6227
11810TIP3    H256922   3.100   4.563  12.880 -0.3651 -2.2574 -0.0026
11811TIP3   OH256923   6.395   2.520   5.270  0.2078 -0.3906  0.3121
11811TIP3    H156924   6.431   2.436   5.242 -0.1934 -0.6136  0.4764
11811TIP3    H256925   6.302   2.505   5.282  0.0383  0.2049 -0.1623
11812TIP3   OH256926   5.146   4.165  14.488  0.3062  0.0807  0.2569
11812TIP3    H156927   5.176   4.152  14.578 -0.0665  1.7708  0.6563
11812TIP3    H256928   5.204   4.109  14.435  0.4785 -1.0008  1.5245
11813TIP3   OH256929   6.796   5.494  11.928  0.3539  0.2977  0.0477
11813TIP3    H156930   6.792   5.501  11.833  1.0735 -0.2188 -0.0290
11813TIP3    H256931   6.767   5.405  11.947  2.1620 -0.3017  0.1451
11814TIP3   OH256932   0.229   3.443   4.193  0.3897 -0.2726  0.2416
11814TIP3    H156933   0.220   3.531   4.158 -1.9278 -0.0839  1.1519
11814TIP3    H256934   0.202   3.385   4.122 -1.2319 -0.0541  0.6573
11815TIP3   OH256935   2.025   0.155  13.698  0.1494 -0.1087  0.3758
11815TIP3    H156936   2.012   0.205  13.778  2.3148  1.8347 -0.3798
11815TIP3    H256937   2.093   0.091  13.719  0.0390 -0.2391  0.3407
11816TIP3   OH256938   6.702   1.463  12.229 -0.1553 -0.0707  0.2530
11816TIP3    H156939   6.713   1.512  12.310  2.3980  0.9953 -0.6396
11816TIP3    H256940   6.699   1.530  12.161  1.6889 -1.0299 -0.8453
11817TIP3   OH256941   0.039   1.981   2.874  0.6342  0.0029 -0.4373
11817TIP3    H156942   0.052   2.065   2.918 -0.6866 -0.1743  0.3202
11817TIP3    H256943   0.127   1.955   2.847  1.0084  1.8420 -1.1036
11818TIP3   OH256944   0.340   3.065  13.207  1.1134 -0.3685 -0.4239
11818TIP3    H156945   0.253   3.043  13.241  0.6918  2.3114  0.4116
11818TIP3    H256946   0.376   2.980  13.178 -1.8974 -1.5225 -1.2153
11819TIP3   OH256947   4.718   0.188   5.877 -0.2352 -0.1757  0.0986
11819TIP3    H156948   4.801   0.213   5.918  0.8473  0.3103 -2.2121
11819TIP3    H256949   4.663   0.266   5.885  0.3703  0.3096 -0.3334
11820TIP3   OH256950   3.743   1.284  15.496  0.0155 -0.2368 -0.3394
11820TIP3    H156951   3.759   1.277  15.402  1.2670  0.4795 -0.1965
11820TIP3    H256952   3.820   1.245  15.537  0.9909  2.2904  0.3797
11821TIP3   OH256953   6.760   0.597   5.665  0.0646 -0.0219  0.2511
11821TIP3    H156954   6.708   0.558   5.595 -0.4884 -0.3222  0.8112
11821TIP3    H256955   6.846   0.613   5.626 -0.8392  1.8355 -1.1383
11822TIP3   OH256956   4.652   2.517  14.354  0.1708  0.0079 -0.4332
11822TIP3    H156957   4.584   2.495  14.290 -0.3288 -0.6655  0.3102
11822TIP3    H256958   4.680   2.433  14.390 -0.8055  0.4332  1.4747
11823TIP3   OH256959   5.240   6.237  13.634  0.2644  0.2711 -0.7049
11823TIP3    H156960   5.251   6.160  13.689 -1.3262 -1.3391 -2.4818
11823TIP3    H256961   5.156   6.275  13.662  0.4538  0.6561 -0.6485
11824TIP3   OH256962   6.683   5.114   5.375 -0.3397 -0.1991 -0.4168
11824TIP3    H156963   6.614   5.052   5.399  0.1865 -0.0548  1.6957
11824TIP3    H256964   6.749   5.105   5.444  1.7600 -0.2749 -2.3015
11825TIP3   OH256965   0.994   0.062   1.760  0.4060  0.1303  0.3562
11825TIP3    H156966   0.996   0.152   1.727 -1.7239  0.3960  0.7467
11825TIP3    H256967   0.911   0.057   1.809  0.8833 -1.8054  1.0621
11826TIP3   OH256968   4.377   3.815  14.929 -0.0489 -0.5313 -0.1660
11826TIP3    H156969   4.284   3.817  14.906  0.1719 -0.2652 -1.0377
11826TIP3    H256970   4.400   3.907  14.941  0.3423 -0.5262 -0.9318
11827TIP3   OH256971   2.376   1.500  13.618 -0.3242  0.0512 -0.4871
11827TIP3    H156972   2.341   1.484  13.706 -0.6487  0.5332 -0.5286
11827TIP3    H256973   2.314   1.562  13.578 -1.5568 -1.9593 -1.9190
11828TIP3   OH256974   1.200   4.764  15.314 -0.1576  0.2260  0.1191
11828TIP3    H156975   1.255   4.814  15.374 -1.6561  0.1689  1.6119
11828TIP3    H256976   1.261   4.706  15.268  1.1338  0.7709  1.0822
11829TIP3   OH256977   3.297   5.890  15.998 -0.0278  0.2714  0.1169
11829TIP3    H156978   3.240   5.912  15.924 -0.1131  0.6549  0.2957
11829TIP3    H256979   3.300   5.969  16.051 -0.9566 -0.3666  1.1742
11830TIP3   OH256980   1.413   5.456  11.286  0.2184  0.3903  0.0629
11830TIP3    H156981   1.451   5.543  11.277  0.2781  0.3347 -0.2093
11830TIP3    H256982   1.487   5.400  11.312  0.0587  0.5397  0.8820
11831TIP3   OH256983   2.206   3.556   3.469  0.2467  0.2610 -0.0610
11831TIP3    H156984   2.208   3.601   3.384  1.0400 -0.7777 -0.6195
11831TIP3    H256985   2.258   3.477   3.455 -1.4974 -1.1062  0.7387
11832TIP3   OH256986   1.433   2.456  12.957  0.6222 -0.5482 -0.3196
11832TIP3    H156987   1.433   2.364  12.932  3.9013 -0.4881 -1.0215
11832TIP3    H256988   1.517   2.469  13.003  1.4652  2.5532 -2.4129
11833TIP3   OH256989   2.721   1.680   0.064  0.4246  0.1663 -0.2284
11833TIP3    H156990   2.737   1.592   0.100  0.9649  0.3566  0.0075
11833TIP3    H256991   2.666   1.664  -0.013  0.9692 -0.4304 -0.5062
11834TIP3   OH256992   3.900   2.081   3.621  0.3596 -0.3015 -0.7814
11834TIP3    H156993   3.996   2.076   3.628  0.5184  1.1968 -1.5062
11834TIP3    H256994   3.884   2.079   3.526 -0.3967 -1.3552 -0.6446
11835TIP3   OH256995   4.075   0.591  16.685  0.1680  0.0970  0.1675
11835TIP3    H156996   4.021   0.666  16.660  0.1535 -0.8764 -3.1334
11835TIP3    H256997   4.162   0.610  16.649  0.5264 -0.8379  0.5054
11836TIP3   OH256998   5.875   1.541  15.336 -0.8319  0.1549  0.0207
11836TIP3    H156999   5.931   1.599  15.387  0.6458 -1.6645  0.5714
11836TIP3    H257000   5.790   1.543  15.380 -0.5712  1.2596  0.4850
11837TIP3   OH257001   6.776   3.626  14.712 -0.0973 -0.3529  0.3710
11837TIP3    H157002   6.698   3.583  14.677 -0.2077 -0.1048  0.3044
11837TIP3    H257003   6.804   3.571  14.785 -0.2935 -0.4803  0.3511
11838TIP3   OH257004   5.743   0.956  14.262 -0.2110 -0.4625  0.3446
11838TIP3    H157005   5.711   0.873  14.228 -1.3767  0.0688  0.0844
11838TIP3    H257006   5.672   1.018  14.244 -0.2464  0.1531  2.4041
11839TIP3   OH257007   6.569   1.231   5.880 -0.3183 -0.1168  0.3850
11839TIP3    H157008   6.603   1.273   5.801 -1.4192  1.0313  0.4749
11839TIP3    H257009   6.590   1.292   5.951 -0.5359 -0.4832  0.7728
11840TIP3   OH257010   5.152   4.042   3.204 -0.0874 -0.2972  0.2030
11840TIP3    H157011   5.092   4.041   3.279 -2.0774 -2.2076 -1.2910
11840TIP3    H257012   5.203   3.962   3.214 -0.2961 -0.5128 -0.3993
11841TIP3   OH257013   4.156   5.585  14.368  0.3059 -0.6068 -0.3744
11841TIP3    H157014   4.144   5.588  14.273  0.5739 -0.6513 -0.4109
11841TIP3    H257015   4.238   5.537  14.380  1.4705  1.2687 -0.2243
11842TIP3   OH257016   1.647   2.059   5.599  0.5869 -0.5915  0.4319
11842TIP3    H157017   1.684   1.994   5.658  1.7264 -1.1080 -0.7847
11842TIP3    H257018   1.561   2.079   5.636 -0.2035 -3.4390  0.4078
11843TIP3   OH257019   6.761   5.874  12.914 -0.1739 -0.4847 -0.2200
11843TIP3    H157020   6.776   5.955  12.962 -1.9842  1.4093 -2.5686
11843TIP3    H257021   6.842   5.825  12.924  1.2784  1.9136  0.7483
11844TIP3   OH257022   5.920   2.985   5.976  0.1001 -0.5908 -0.5903
11844TIP3    H157023   5.959   3.009   5.892  1.5879 -0.9670 -0.0329
11844TIP3    H257024   5.940   3.059   6.034 -2.5205  0.5391 -0.9798
11845TIP3   OH257025   1.176   5.398   4.548  0.2348 -0.4692  0.1813
11845TIP3    H157026   1.129   5.438   4.620 -2.3990 -1.3348 -0.9235
11845TIP3    H257027   1.181   5.467   4.481  1.7909  0.0223  0.7541
11846TIP3   OH257028   6.462   4.558  15.953  0.3314  0.5719  0.2470
11846TIP3    H157029   6.489   4.482  16.004  1.0481  0.1403 -0.7263
11846TIP3    H257030   6.404   4.607  16.011 -2.4712 -2.1504 -0.0315
11847TIP3   OH257031   1.184   1.429   6.488  0.3320 -0.1635  0.4194
11847TIP3    H157032   1.207   1.341   6.457 -1.6896  0.0516 -1.9821
11847TIP3    H257033   1.166   1.417   6.582  1.8595 -1.9141  0.5415
11848TIP3   OH257034   5.764   6.061  10.885 -0.1973 -0.2504  0.2093
11848TIP3    H157035   5.840   6.089  10.835  0.9425 -1.6703  1.0627
11848TIP3    H257036   5.746   6.134  10.945 -0.0581  0.4448 -0.5867
11849TIP3   OH257037   2.681   1.217  13.075  0.0118  0.3423  0.5797
11849TIP3    H157038   2.685   1.265  13.157  1.4057 -0.7740  1.1972
11849TIP3    H257039   2.588   1.197  13.063 -0.2764  1.0514  1.5462
11850TIP3   OH257040   3.909   3.447  11.831 -0.3001 -0.0650  0.3044
11850TIP3    H157041   3.849   3.435  11.757 -1.2257 -2.2719  1.3268
11850TIP3    H257042   3.983   3.390  11.811  0.6474  1.2551 -0.0705
11851TIP3   OH257043   2.888   3.141  10.886  0.3406  0.3085 -1.2134
11851TIP3    H157044   2.793   3.144  10.904  0.9368 -0.5849  3.5910
11851TIP3    H257045   2.915   3.233  10.885 -0.2883  0.5351  0.0810
11852TIP3   OH257046   3.093   2.912  15.817  0.0326 -0.5213 -0.3053
11852TIP3    H157047   3.128   2.945  15.734 -0.3945 -1.8708 -1.0659
11852TIP3    H257048   3.168   2.872  15.861  0.3097  0.4067  0.0832
11853TIP3   OH257049   2.635   1.272  11.230  0.2688  0.1474 -0.7600
11853TIP3    H157050   2.653   1.365  11.243 -1.6783  0.7279 -1.8241
11853TIP3    H257051   2.621   1.263  11.135 -3.1258 -0.4775 -0.3030
11854TIP3   OH257052   2.183   3.386  11.061 -0.4379 -0.6310  0.2737
11854TIP3    H157053   2.259   3.443  11.072 -0.8575 -0.0887  0.3806
11854TIP3    H257054   2.168   3.347  11.147  0.0123 -1.1159  0.1369
11855TIP3   OH257055   0.049   0.870   6.246  0.0642 -0.2895 -0.0298
11855TIP3    H157056   0.023   0.785   6.283  0.3440  0.0406  0.9275
11855TIP3    H257057   0.121   0.900   6.301 -0.9141  1.2101  0.4795
11856TIP3   OH257058   2.346   2.949   3.001 -0.1542 -0.2586  0.5294
11856TIP3    H157059   2.367   3.025   2.948  0.0242  0.7156  1.9508
11856TIP3    H257060   2.429   2.904   3.015  0.0553  0.3489  1.2698
11857TIP3   OH257061   6.702   2.070   4.504  0.0387 -0.2053  0.3237
11857TIP3    H157062   6.671   2.072   4.594 -0.2858  0.2972  0.2083
11857TIP3    H257063   6.627   2.039   4.453 -0.1114  0.4822  0.1115
11858TIP3   OH257064   0.460   6.768  12.471 -0.3440  0.3187 -0.0149
11858TIP3    H157065   0.381   6.716  12.479 -0.6657  0.6709 -0.7937
11858TIP3    H257066   0.431   6.851  12.434  0.0267  1.4115  1.9778
11859TIP3   OH257067   2.031   5.678  15.681 -0.5983 -0.1776  0.2025
11859TIP3    H157068   2.046   5.769  15.656  0.7019 -0.5988 -0.6954
11859TIP3    H257069   1.985   5.640  15.607 -2.6474  0.1194  1.2732
11860TIP3   OH257070   5.991   6.682  13.829  0.2649 -0.1716  0.4756
11860TIP3    H157071   6.047   6.648  13.899  0.1526 -0.4030  0.4537
11860TIP3    H257072   6.042   6.753  13.790  0.7644 -0.7134  0.1219
11861TIP3   OH257073   6.652   5.245  11.331  0.5246 -0.4535 -0.0920
11861TIP3    H157074   6.661   5.247  11.426 -2.9157  1.4207  0.3480
11861TIP3    H257075   6.647   5.152  11.309  0.9463 -0.9074  1.5959
11862TIP3   OH257076   0.494   1.354  15.080  0.6872 -0.6024  0.0418
11862TIP3    H157077   0.507   1.346  14.986  1.0918  0.0616  0.0349
11862TIP3    H257078   0.428   1.423  15.089 -0.4391 -1.6594  0.2044
11863TIP3   OH257079   3.666   2.717   4.705  0.0598 -0.1750 -0.4049
11863TIP3    H157080   3.737   2.778   4.726 -1.5890  1.6843  0.1774
11863TIP3    H257081   3.709   2.642   4.664  2.3789  0.6205  0.4191
11864TIP3   OH257082   2.117   3.841   1.600 -0.4790  0.2917  0.3520
11864TIP3    H157083   2.050   3.871   1.662 -1.2156 -0.5826  0.0167
11864TIP3    H257084   2.081   3.759   1.565  1.6222 -1.2506  1.5600
11865TIP3   OH257085   3.672   3.528   3.182 -0.7630 -0.0287  0.0693
11865TIP3    H157086   3.738   3.497   3.119 -1.5749 -0.4807 -0.5839
11865TIP3    H257087   3.696   3.619   3.199 -0.1897 -0.0734 -0.4429
11866TIP3   OH257088   3.667   0.644   0.665 -0.0938  0.1212 -0.0300
11866TIP3    H157089   3.696   0.640   0.574 -2.2206 -3.1024 -0.7657
11866TIP3    H257090   3.608   0.719   0.668  0.0669  0.3250 -1.3257
11867TIP3   OH257091   1.501   2.337   2.587 -0.3533  0.6149 -0.0833
11867TIP3    H157092   1.581   2.316   2.635 -0.1882 -1.0698 -0.9986
11867TIP3    H257093   1.438   2.272   2.617 -0.4392 -0.0406 -1.6201
11868TIP3   OH257094   4.743   1.237   1.038 -0.4220  0.2098  0.0249
11868TIP3    H157095   4.673   1.185   1.077  1.0680 -1.7142  0.2812
11868TIP3    H257096   4.796   1.265   1.113  0.5688 -0.6631 -0.3200
11869TIP3   OH257097   4.035   2.855   3.921 -0.3025 -0.1058  0.4775
11869TIP3    H157098   4.017   2.780   3.977  0.2901 -0.2874  0.4303
11869TIP3    H257099   4.094   2.822   3.853  0.9833  0.6837  1.1739
11870TIP3   OH257100   2.287   0.989  14.180  0.6577 -0.0925 -0.1001
11870TIP3    H157101   2.275   0.994  14.085 -1.3939 -0.1765  0.1002
11870TIP3    H257102   2.216   0.931  14.209  1.7347 -0.7074  1.4105
11871TIP3   OH257103   2.388   6.759  15.251  0.6295 -0.1641 -0.0357
11871TIP3    H157104   2.466   6.716  15.287  0.4407 -2.1593 -1.8410
11871TIP3    H257105   2.330   6.687  15.226 -0.9878  1.2410 -0.5438
11872TIP3   OH257106   0.622   5.227   0.937  0.0744 -0.3223  1.0131
11872TIP3    H157107   0.570   5.293   0.893 -0.0563 -2.2610 -2.0180
11872TIP3    H257108   0.711   5.242   0.906  0.3949 -0.3651  1.8844
11873TIP3   OH257109   3.047   5.948  15.851  0.4181  0.0783  0.1321
11873TIP3    H157110   3.025   5.886  15.920  0.6576  0.3674  0.4741
11873TIP3    H257111   3.019   6.033  15.885 -0.6928  0.0693 -0.6778
11874TIP3   OH257112   3.561   3.263   4.286  0.0434 -0.2512 -0.3164
11874TIP3    H157113   3.512   3.330   4.238 -0.4789 -1.7601 -2.0099
11874TIP3    H257114   3.511   3.183   4.273 -1.0079 -0.5806  4.1400
11875TIP3   OH257115   6.115   1.988   1.076 -0.1078  0.7630 -0.1000
11875TIP3    H157116   6.115   1.997   0.981  0.5440 -1.0194 -0.3091
11875TIP3    H257117   6.117   1.894   1.092 -2.1783  0.9312  1.7164
11876TIP3   OH257118   6.747   4.391   2.203 -0.5531 -0.0411  0.0879
11876TIP3    H157119   6.727   4.463   2.144 -0.1190 -0.1704 -0.2254
11876TIP3    H257120   6.747   4.313   2.148 -1.3517 -0.3336  0.4851
11877TIP3   OH257121   2.873   5.194  13.320  0.3069  0.4961  0.1341
11877TIP3    H157122   2.792   5.145  13.332  0.8612 -0.4257  0.2248
11877TIP3    H257123   2.919   5.148  13.250  1.0990  0.5270  0.6117
11878TIP3   OH257124   4.634   4.503  12.872  0.7364 -0.0172 -0.1321
11878TIP3    H157125   4.564   4.486  12.809 -0.1747 -0.5696  0.9700
11878TIP3    H257126   4.652   4.417  12.911  0.8385  0.4065  0.7872
11879TIP3   OH257127   1.666   2.329  13.458 -0.3331 -0.1275 -0.3137
11879TIP3    H157128   1.641   2.412  13.498 -0.9124 -0.0924 -0.7451
11879TIP3    H257129   1.609   2.264  13.499 -2.1644  0.1385 -2.2798
11880TIP3   OH257130   4.092   2.038   1.505 -0.3974 -0.0890 -0.1720
11880TIP3    H157131   4.054   1.950   1.508 -0.0995 -0.2032  0.6891
11880TIP3    H257132   4.174   2.030   1.555 -0.5420  0.7518  0.2180
11881TIP3   OH257133   2.407   0.231   1.419 -0.1322  0.0294 -0.2181
11881TIP3    H157134   2.414   0.242   1.324  0.2215 -0.7383 -0.2893
11881TIP3    H257135   2.488   0.186   1.444  0.1667  0.9583  0.5734
11882TIP3   OH257136   6.180   3.629  15.767  1.1069  0.4209 -0.3503
11882TIP3    H157137   6.263   3.634  15.720 -0.4533  2.4683 -3.2183
11882TIP3    H257138   6.182   3.703  15.828  1.8289 -0.2710  0.4890
11883TIP3   OH257139   0.152   2.314   0.157 -0.0235  0.4313  0.2686
11883TIP3    H157140   0.115   2.348   0.076 -0.4622 -0.5669  0.0419
11883TIP3    H257141   0.092   2.245   0.184  1.3791 -0.8770  0.1626
11884TIP3   OH257142   6.405   1.739   5.764 -0.0577 -0.3148 -0.3459
11884TIP3    H157143   6.491   1.729   5.724  1.1244  1.8674  1.4667
11884TIP3    H257144   6.411   1.694   5.848 -0.4051  0.4990  0.1298
11885TIP3   OH257145   2.760   0.884   6.401 -0.2603 -0.3861 -0.1424
11885TIP3    H157146   2.810   0.810   6.366 -1.4475 -1.2906 -0.0231
11885TIP3    H257147   2.799   0.961   6.361 -0.1973 -1.2319 -1.7994
11886TIP3   OH257148   1.541   4.442  17.145  0.7153 -0.2750 -0.3549
11886TIP3    H157149   1.539   4.381  17.219  1.1459 -1.9563 -1.6731
11886TIP3    H257150   1.613   4.412  17.091  0.9518  1.4468 -1.0728
11887TIP3   OH257151   5.185   6.008   5.066 -0.1856  0.2062  0.4108
11887TIP3    H157152   5.271   6.027   5.103  0.6286 -2.3302  0.0347
11887TIP3    H257153   5.126   6.012   5.140  0.4884  0.6298  0.9413
11888TIP3   OH257154   0.977   3.806  14.138  0.2460  0.1169 -0.0221
11888TIP3    H157155   1.024   3.849  14.067 -0.5194  0.6849 -0.1927
11888TIP3    H257156   0.895   3.855  14.147 -0.3307 -0.8527  0.2585
11889TIP3   OH257157   1.628   2.547  13.866 -0.2081 -0.1978  0.2855
11889TIP3    H157158   1.675   2.623  13.901  2.3352 -2.1343  1.3897
11889TIP3    H257159   1.643   2.551  13.771 -0.4799  0.8707  0.2775
11890TIP3   OH257160   6.788   1.184  14.349  0.2932 -0.4033  0.9959
11890TIP3    H157161   6.706   1.166  14.302  0.7687  0.6457 -0.3095
11890TIP3    H257162   6.856   1.177  14.282  1.1400 -0.0616  1.7978
11891TIP3   OH257163   4.800   1.990   3.496  0.0928  0.8662 -0.2367
11891TIP3    H157164   4.762   1.934   3.563  0.0389 -0.9528 -1.7153
11891TIP3    H257165   4.894   1.985   3.512 -0.0160  2.2287  1.0184
11892TIP3   OH257166   3.493   4.540  13.196 -0.0358 -0.4523 -0.7515
11892TIP3    H157167   3.451   4.459  13.226  0.6075 -1.2645 -1.9841
11892TIP3    H257168   3.475   4.603  13.266  1.0827 -2.1451  1.1820
11893TIP3   OH257169   6.770   4.461   5.198 -0.4270  0.3682 -0.4893
11893TIP3    H157170   6.744   4.471   5.290  1.8319 -0.2697  0.2710
11893TIP3    H257171   6.714   4.390   5.165  0.7843 -1.5099  1.3029
11894TIP3   OH257172   1.971   2.453   5.727  0.3977 -0.1477  0.0039
11894TIP3    H157173   1.923   2.402   5.661  1.5401 -1.3132  0.0328
11894TIP3    H257174   1.921   2.534   5.735 -0.5779 -0.5850 -1.2325
11895TIP3   OH257175   1.427   5.541   4.293 -0.2903  0.1475 -0.5080
11895TIP3    H157176   1.481   5.521   4.369 -0.0901 -0.0722 -0.7075
11895TIP3    H257177   1.353   5.590   4.328  0.2304  0.7821 -0.2745
11896TIP3   OH257178   6.432   3.580   4.390 -0.0137 -0.4284  0.3397
11896TIP3    H157179   6.441   3.660   4.441  1.5721 -1.3419  1.5776
11896TIP3    H257180   6.521   3.546   4.382 -0.5740 -1.7532 -0.7079
11897TIP3   OH257181   0.880   4.425   0.470 -0.5733 -0.2885  0.2334
11897TIP3    H157182   0.920   4.512   0.480  0.0085 -0.3683 -1.2316
11897TIP3    H257183   0.796   4.433   0.516  0.5361  0.2453  2.3207
11898TIP3   OH257184   1.763   2.592   0.717 -0.4130 -0.1388  0.4628
11898TIP3    H157185   1.844   2.642   0.708 -0.4457 -0.3921 -1.5819
11898TIP3    H257186   1.774   2.543   0.798  0.8130  0.9950  1.0207
11899TIP3   OH257187   1.054   4.069  15.514  0.4164  0.1819 -0.3159
11899TIP3    H157188   0.961   4.087  15.504 -0.0654 -2.4696 -1.6983
11899TIP3    H257189   1.093   4.152  15.540 -2.2646  1.4485 -0.0896
11900TIP3   OH257190   4.090   5.176   0.094 -0.0343  0.6569  0.7567
11900TIP3    H157191   4.071   5.264   0.061  0.0263  1.0433  1.7356
11900TIP3    H257192   4.184   5.176   0.109 -0.1594  0.6908  1.5354
11901TIP3   OH257193   6.689   4.628  11.899 -0.1735  0.2099 -0.3879
11901TIP3    H157194   6.751   4.576  11.847 -0.6906 -0.1531 -0.6653
11901TIP3    H257195   6.603   4.606  11.861 -0.5762 -0.1640  0.7075
11902TIP3   OH257196   5.237   2.966   4.652 -0.7428 -0.2985 -0.3145
11902TIP3    H157197   5.181   2.908   4.601 -0.8698  0.0782 -0.6051
11902TIP3    H257198   5.285   2.907   4.710 -1.2588 -0.6495 -0.2310
11903TIP3   OH257199   5.994   0.145   2.756 -0.2734  0.1956 -0.2095
11903TIP3    H157200   6.010   0.180   2.668 -1.8402 -0.3925 -0.7581
11903TIP3    H257201   5.930   0.205   2.795 -0.4955 -0.2280  0.0810
11904TIP3   OH257202   6.599   0.743   5.419  0.2643 -0.7390 -0.0445
11904TIP3    H157203   6.624   0.652   5.438  0.3021 -0.7805 -0.2860
11904TIP3    H257204   6.543   0.768   5.492 -0.4174 -1.2326 -0.3831
11905TIP3   OH257205   4.355   5.320  13.866  0.3650  0.0129 -0.4785
11905TIP3    H157206   4.359   5.225  13.878  1.5404  0.0902 -0.1671
11905TIP3    H257207   4.262   5.341  13.875  0.2126 -0.9831  0.4887
11906TIP3   OH257208   0.645   5.784  12.918  0.0933 -0.6269  0.4713
11906TIP3    H157209   0.685   5.699  12.940  0.4874  0.2209  3.5033
11906TIP3    H257210   0.565   5.761  12.872  0.8706 -2.5899 -0.0428
11907TIP3   OH257211   2.717   0.509   5.678  0.5198  0.2122  0.1151
11907TIP3    H157212   2.777   0.583   5.668  0.2585  0.4360  0.1765
11907TIP3    H257213   2.725   0.484   5.771  0.0426  0.6611  0.2843
11908TIP3   OH257214   4.969   3.820   1.536  0.5004  0.0671  0.4344
11908TIP3    H157215   5.010   3.734   1.541  1.2977  0.4761  1.1462
11908TIP3    H257216   5.017   3.873   1.599 -2.0142  0.2236  2.3352
11909TIP3   OH257217   0.106   6.296   5.607  0.4108  0.4493  0.3729
11909TIP3    H157218   0.064   6.334   5.684  1.2172 -0.8289  1.4833
11909TIP3    H257219   0.042   6.235   5.571  1.1673 -1.3774  1.9691
11910TIP3   OH257220   2.599   6.344   1.046 -0.2336 -0.7731  0.2642
11910TIP3    H157221   2.632   6.399   0.975 -0.6542 -1.9666 -0.9163
11910TIP3    H257222   2.648   6.372   1.123 -2.1023  2.8815  0.3295
11911TIP3   OH257223   1.810   6.003   5.677 -0.2140 -0.0127  0.2969
11911TIP3    H157224   1.740   5.953   5.720 -0.7826 -0.2028 -0.8262
11911TIP3    H257225   1.857   6.045   5.749 -0.4127 -1.2656  1.1875
11912TIP3   OH257226   1.584   2.682   0.228 -0.1417  0.6667  0.6923
11912TIP3    H157227   1.658   2.698   0.287  0.2615 -0.3568  0.4740
11912TIP3    H257228   1.541   2.605   0.264  0.8752 -0.7897 -1.0426
11913TIP3   OH257229   4.099   6.540   5.896 -0.2369  0.5875 -0.1168
11913TIP3    H157230   4.057   6.463   5.934  2.5359 -1.0032  0.0331
11913TIP3    H257231   4.150   6.578   5.968  2.2459 -0.3770 -1.2257
11914TIP3   OH257232   4.070   4.592  13.464  0.5725  0.2695 -0.3252
11914TIP3    H157233   4.113   4.510  13.488  0.9319  1.3402  3.1546
11914TIP3    H257234   4.132   4.660  13.490 -1.3607  1.7218  0.6976
11915TIP3   OH257235   4.831   1.787  14.074  0.1948 -0.4686  0.2359
11915TIP3    H157236   4.846   1.763  13.983  0.6699  1.0323 -0.1212
11915TIP3    H257237   4.810   1.881  14.070  0.1055 -0.4136  1.6496
11916TIP3   OH257238   0.889   5.575   5.669  0.7376  0.4618 -0.1561
11916TIP3    H157239   0.939   5.495   5.658  1.3735  1.0199 -1.6094
11916TIP3    H257240   0.933   5.622   5.740 -0.5597 -1.0930  1.8220
11917TIP3   OH257241   5.746   1.370   4.641 -0.2130 -0.0050  0.1191
11917TIP3    H157242   5.656   1.400   4.633 -0.2273 -0.3747 -1.4082
11917TIP3    H257243   5.739   1.279   4.669 -0.2996 -0.0155  0.0608
11918TIP3   OH257244   3.094   2.060  13.413 -0.1411 -0.3114 -0.4163
11918TIP3    H157245   3.177   2.105  13.431  0.8601 -2.3885  0.5683
11918TIP3    H257246   3.037   2.127  13.376  2.2467  0.9964 -1.9323
11919TIP3   OH257247   6.109   5.921   6.294 -0.4392  0.2812  0.1175
11919TIP3    H157248   6.152   5.970   6.364 -0.4990 -0.3279  0.5870
11919TIP3    H257249   6.030   5.885   6.335 -1.2506  1.1310 -0.6487
11920TIP3   OH257250   3.391   1.091  11.599 -0.2222 -0.3466 -0.8485
11920TIP3    H157251   3.430   1.027  11.658  1.3416  1.2795 -0.0174
11920TIP3    H257252   3.343   1.039  11.535 -0.2135 -2.2517  0.6255
11921TIP3   OH257253   0.343   6.756  16.398 -0.2041  0.0624  0.3206
11921TIP3    H157254   0.282   6.702  16.448  0.9072 -1.1304  0.4155
11921TIP3    H257255   0.342   6.841  16.443 -0.7660 -0.3540  1.1148
11922TIP3   OH257256   4.016   0.545  11.528 -0.3381 -0.3424 -0.2003
11922TIP3    H157257   3.935   0.493  11.529 -0.7610  0.3019  0.0313
11922TIP3    H257258   4.048   0.538  11.438 -0.0547 -1.4937 -0.0206
11923TIP3   OH257259   4.325   4.548   2.943  0.3323  0.4989  0.3176
11923TIP3    H157260   4.232   4.524   2.945  0.7380 -1.5708 -1.4526
11923TIP3    H257261   4.331   4.620   2.881 -0.1056  0.7827  0.6017
11924TIP3   OH257262   2.056   0.394   2.935  0.1278  0.6284 -0.2813
11924TIP3    H157263   2.080   0.378   2.844 -2.4415 -0.3559 -0.8752
11924TIP3    H257264   2.139   0.393   2.983  1.2714 -2.6988 -2.0575
11925TIP3   OH257265   5.671   5.158   5.976 -0.4527  0.5668  0.5457
11925TIP3    H157266   5.587   5.128   5.941  0.0093 -0.1596  0.0515
11925TIP3    H257267   5.658   5.158   6.071 -1.1935  1.0227  0.4541
11926TIP3   OH257268   6.006   6.831   2.216 -0.1470 -0.0076  0.1238
11926TIP3    H157269   5.949   6.756   2.200 -1.8498  1.4000 -0.8557
11926TIP3    H257270   5.949   6.895   2.260  1.6465  0.1950  2.3446
11927TIP3   OH257271   4.356   4.241  13.712 -1.0009 -0.4752  0.3845
11927TIP3    H157272   4.266   4.275  13.716 -0.2188  2.3062 -2.3610
11927TIP3    H257273   4.356   4.181  13.638 -0.5339 -0.3382  0.2728
11928TIP3   OH257274   6.812   3.847  14.514  0.2136  0.0981  0.0504
11928TIP3    H157275   6.738   3.794  14.544  1.7747 -1.2173  1.7463
11928TIP3    H257276   6.812   3.834  14.419 -1.2644 -0.4974  0.0959
11929TIP3   OH257277   1.395   4.701   1.401  0.8986 -0.3437  0.7014
11929TIP3    H157278   1.441   4.766   1.454  0.4673  0.4433  0.1269
11929TIP3    H257279   1.454   4.683   1.328  0.3038  0.7097 -0.0673
11930TIP3   OH257280   5.500   2.696  14.922 -0.2400 -0.3904 -0.2326
11930TIP3    H157281   5.509   2.601  14.917 -0.8552 -0.5625  1.3322
11930TIP3    H257282   5.571   2.725  14.979 -0.4193  0.0214 -0.2114
11931TIP3   OH257283   6.275   5.093  14.430  0.4625 -0.2288  0.6708
11931TIP3    H157284   6.227   5.165  14.470 -0.8526  0.2831 -1.6468
11931TIP3    H257285   6.344   5.135  14.379 -0.3793 -0.5335 -0.7841
11932TIP3   OH257286   3.380   3.152   3.500 -0.1437 -0.0529  0.1383
11932TIP3    H157287   3.438   3.099   3.445 -0.2345 -1.5299  1.3998
11932TIP3    H257288   3.388   3.240   3.465  1.5396 -0.5367 -0.8022
11933TIP3   OH257289   0.551   3.886   2.484 -0.8918  1.0515 -0.2819
11933TIP3    H157290   0.594   3.805   2.513 -0.2478  0.4020 -2.8144
11933TIP3    H257291   0.464   3.882   2.522  0.1575  0.7980  2.3012
11934TIP3   OH257292   0.796   6.041  13.913 -0.1116 -0.0362 -0.4959
11934TIP3    H157293   0.865   5.978  13.933  0.0020  0.0679 -0.5567
11934TIP3    H257294   0.827   6.086  13.834  0.5388  1.1701  0.4074
11935TIP3   OH257295   2.705   4.846  16.828 -0.3880 -0.1994  0.4683
11935TIP3    H157296   2.684   4.772  16.772 -0.6769 -0.9917  1.6042
11935TIP3    H257297   2.645   4.916  16.800 -2.0951 -1.2932  1.2945
11936TIP3   OH257298   0.679   3.869   2.922  0.1069  0.0310  0.5793
11936TIP3    H157299   0.624   3.910   2.856 -0.1964 -2.0768 -0.5482
11936TIP3    H257300   0.629   3.877   3.003 -1.1416 -0.4432 -0.1252
11937TIP3   OH257301   1.318   2.721  15.823  0.0582 -0.4216 -0.0691
11937TIP3    H157302   1.334   2.744  15.915 -0.7405  1.3004 -0.3152
11937TIP3    H257303   1.243   2.775  15.798 -0.3653 -1.5991 -1.4664
11938TIP3   OH257304   3.940   4.902  14.334  0.7791  0.2296  0.2073
11938TIP3    H157305   3.962   4.817  14.371  0.6404  1.4993  3.5112
11938TIP3    H257306   4.023   4.949  14.328  0.7307  0.2311 -0.7649
11939TIP3   OH257307   1.360   5.096   1.537 -0.4420  0.1921 -0.1044
11939TIP3    H157308   1.385   5.188   1.529 -2.4577  0.7990 -0.1860
11939TIP3    H257309   1.289   5.086   1.473  1.2036 -2.0396 -1.7092
11940TIP3   OH257310   3.152   3.870   1.536 -0.2648 -0.3242  0.1697
11940TIP3    H157311   3.104   3.931   1.479  0.0012 -0.0845  0.1952
11940TIP3    H257312   3.167   3.919   1.617  2.3426  0.6256 -0.7721
11941TIP3   OH257313   3.847   0.580   4.025  0.5557 -0.1633  0.1363
11941TIP3    H157314   3.910   0.508   4.018  0.7538  0.0664 -0.5271
11941TIP3    H257315   3.881   0.635   4.095  1.8797  0.7081 -1.1331
11942TIP3   OH257316   2.045   2.163  14.068 -0.3385 -0.2120 -0.0129
11942TIP3    H157317   1.998   2.107  14.007 -1.7377  0.2318  0.6215
11942TIP3    H257318   2.061   2.109  14.145  1.6612 -0.8534 -0.8206
11943TIP3   OH257319   2.756   1.837   5.334 -0.1672 -0.2363  0.4319
11943TIP3    H157320   2.673   1.885   5.322  0.0573  0.2419  0.7697
11943TIP3    H257321   2.798   1.880   5.409  0.2628 -0.6544  0.4331
11944TIP3   OH257322   3.897   1.902   5.900  0.1523  0.2099  0.3233
11944TIP3    H157323   3.884   1.822   5.950 -2.1826 -0.0143 -0.5190
11944TIP3    H257324   3.982   1.935   5.930  0.4959 -1.7694  1.7672
11945TIP3   OH257325   4.606   2.946   3.034 -0.5884 -0.6184 -0.4481
11945TIP3    H157326   4.579   2.855   3.046 -0.6933 -0.6301 -0.7673
11945TIP3    H257327   4.525   2.996   3.045 -0.4037 -0.4986  0.4671
11946TIP3   OH257328   5.865   3.005   4.523 -0.3869 -0.5379  0.6012
11946TIP3    H157329   5.875   3.029   4.431 -0.6950  0.3815  0.8057
11946TIP3    H257330   5.793   2.942   4.523  0.5068 -1.6025  0.0524
11947TIP3   OH257331   0.943   5.895  16.405  0.0608  0.5934 -0.4162
11947TIP3    H157332   0.973   5.911  16.316 -0.4538 -0.1039 -0.7211
11947TIP3    H257333   0.875   5.829  16.396  0.9675 -0.5133  0.6287
11948TIP3   OH257334   2.079   5.940  15.383  0.5407 -0.2992  0.3637
11948TIP3    H157335   2.031   5.908  15.307 -0.1715  0.0675  0.6583
11948TIP3    H257336   2.161   5.890  15.382 -0.6901 -2.4250  1.0236
11949TIP3   OH257337   3.975   1.134   6.420  0.2299 -0.4492  0.4422
11949TIP3    H157338   3.931   1.208   6.463 -1.4236 -0.5316 -0.9787
11949TIP3    H257339   3.915   1.060   6.432  1.2086 -1.2322  0.6376
11950TIP3   OH257340   1.442   1.999  12.606 -0.1888  0.2399  0.1374
11950TIP3    H157341   1.439   1.903  12.613 -1.2770  0.0339 -2.3299
11950TIP3    H257342   1.454   2.016  12.513 -0.6022  2.5247  0.4519
11951TIP3   OH257343   5.978   3.826  15.761 -0.1311 -0.1095  0.1010
11951TIP3    H157344   6.006   3.824  15.852 -0.0127 -0.4459  0.0600
11951TIP3    H257345   5.884   3.841  15.765 -0.0844  0.1361  0.2707
11952TIP3   OH257346   0.079   5.426  15.666 -0.1465 -0.3924  0.1302
11952TIP3    H157347   0.061   5.345  15.714  0.1974 -0.2822  0.4471
11952TIP3    H257348   0.171   5.444  15.684 -0.5405  0.7589  1.1123
11953TIP3   OH257349   1.996   6.167  12.925  0.0884 -0.0913  0.1202
11953TIP3    H157350   2.036   6.247  12.959  2.9419 -0.2928 -2.3629
11953TIP3    H257351   1.903   6.188  12.917  0.1006  1.6192  2.9617
11954TIP3   OH257352   6.521   4.666   3.358 -0.0049  0.2250 -0.0955
11954TIP3    H157353   6.592   4.606   3.335  0.2690 -0.8778  3.1744
11954TIP3    H257354   6.541   4.746   3.309  2.8037 -0.4556 -0.2362
11955TIP3   OH257355   1.399   5.371   4.086  0.1372 -0.1051  0.8995
11955TIP3    H157356   1.456   5.418   4.147  0.6481  1.1211 -0.4672
11955TIP3    H257357   1.314   5.415   4.093  0.4268  0.5921  0.1259
11956TIP3   OH257358   2.397   0.578   5.768 -0.2456  0.3399  0.4814
11956TIP3    H157359   2.387   0.529   5.849  3.0115 -1.2242  0.1038
11956TIP3    H257360   2.401   0.511   5.700  0.5725  1.3677 -0.5223
11957TIP3   OH257361   1.272   3.375  16.919  0.1606  0.1474 -0.1031
11957TIP3    H157362   1.286   3.298  16.974  0.5256  0.0504 -0.3248
11957TIP3    H257363   1.315   3.447  16.966 -0.6291  0.3263  0.3586
11958TIP3   OH257364   2.666   4.634  12.447  0.1053  0.4728 -0.2655
11958TIP3    H157365   2.662   4.543  12.417  0.6275  0.2802  0.2428
11958TIP3    H257366   2.667   4.685  12.366 -0.8509  0.0699 -0.5523
11959TIP3   OH257367   2.990   0.508  13.638 -0.2692 -0.3404 -0.6093
11959TIP3    H157368   2.940   0.438  13.680  0.3876 -0.7199 -0.4428
11959TIP3    H257369   2.935   0.536  13.564 -1.7041  0.7310  0.7866
11960TIP3   OH257370   5.233   6.503   3.526  0.2400  0.2542  0.2284
11960TIP3    H157371   5.215   6.597   3.524  0.9456  0.5050  2.5311
11960TIP3    H257372   5.328   6.496   3.517  0.2357 -0.2091  0.5105
11961TIP3   OH257373   5.587   3.442  10.985  0.1204  0.3319 -0.3316
11961TIP3    H157374   5.648   3.487  11.043  1.1530 -0.5682 -0.6728
11961TIP3    H257375   5.537   3.512  10.942  2.0397  1.2065 -1.2565
11962TIP3   OH257376   6.718   1.966   3.464  0.1459  0.2038 -0.0336
11962TIP3    H157377   6.625   1.961   3.488  0.1848 -1.9515 -0.1003
11962TIP3    H257378   6.720   2.019   3.385 -1.2979 -1.1980 -1.0771
11963TIP3   OH257379   6.063   5.081   1.129  0.5320  0.0729  0.1805
11963TIP3    H157380   6.021   5.063   1.213  1.1488  2.4019  1.0551
11963TIP3    H257381   6.082   5.175   1.131  0.5732  0.2011 -2.5733
11964TIP3   OH257382   0.973   3.764  16.069  0.0683  0.4597  0.2993
11964TIP3    H157383   1.038   3.779  16.001 -0.0575 -0.9112 -0.1439
11964TIP3    H257384   1.013   3.700  16.128 -0.0266  1.2452  1.2411
11965TIP3   OH257385   5.311   3.914  11.589 -0.2596 -0.1110  0.0513
11965TIP3    H157386   5.378   3.932  11.523  0.9566  0.3523  1.3419
11965TIP3    H257387   5.254   3.991  11.586  1.4614  1.3376  1.4379
11966TIP3   OH257388   6.665   0.384   1.878  0.4222 -0.2824  0.4230
11966TIP3    H157389   6.725   0.397   1.952  0.8562 -1.3895  0.2900
11966TIP3    H257390   6.578   0.391   1.916  0.6121  1.4183  0.6075
11967TIP3   OH257391   1.726   5.141  14.177 -0.4854  0.6314 -0.7943
11967TIP3    H157392   1.709   5.209  14.243 -0.3548 -0.3761  0.3266
11967TIP3    H257393   1.820   5.125  14.183 -0.4640  0.5846 -1.2708
11968TIP3   OH257394   5.013   6.798  13.516  0.4959  0.4869  0.4456
11968TIP3    H157395   5.099   6.757  13.531  0.9297  0.7402 -1.1494
11968TIP3    H257396   4.991   6.775  13.426 -1.3055  0.1229  0.9325
11969TIP3   OH257397   6.351   1.215   5.563  0.3243  0.2198  0.1846
11969TIP3    H157398   6.304   1.133   5.547 -0.5600  0.9240 -0.9451
11969TIP3    H257399   6.443   1.193   5.547 -0.0455 -0.2459 -1.5277
11970TIP3   OH257400   1.510   6.043   2.854  0.2095 -0.5000 -0.3361
11970TIP3    H157401   1.571   6.045   2.928  0.2119  2.1634 -0.2996
11970TIP3    H257402   1.485   5.951   2.845  0.7235 -1.0013  2.5356
11971TIP3   OH257403   3.826   2.638  15.125 -0.0487  0.2969 -0.4045
11971TIP3    H157404   3.756   2.581  15.093  0.3491  0.4472 -1.5597
11971TIP3    H257405   3.823   2.627  15.220 -1.2447 -0.1609 -0.4749
11972TIP3   OH257406   6.798   5.071   4.231  0.2521  0.0731 -0.1613
11972TIP3    H157407   6.789   5.057   4.137 -1.4908  1.1358 -0.1905
11972TIP3    H257408   6.746   5.002   4.271  1.0999 -0.4598  0.0524
11973TIP3   OH257409   4.146   3.612   1.922  0.0408  0.2984 -0.0388
11973TIP3    H157410   4.178   3.559   1.850 -0.5602 -0.3763  0.1813
11973TIP3    H257411   4.170   3.702   1.899  2.6571 -0.2104  0.4139
11974TIP3   OH257412   5.420   6.650  14.878  0.2160 -1.2027  0.3614
11974TIP3    H157413   5.506   6.660  14.919  0.0417  1.0187  0.2648
11974TIP3    H257414   5.359   6.687  14.941 -0.3462 -0.1973 -0.7284
11975TIP3   OH257415   2.303   4.585  14.834  0.2405  0.1362 -0.2617
11975TIP3    H157416   2.283   4.677  14.852 -1.6507 -0.1423 -0.6435
11975TIP3    H257417   2.346   4.553  14.913 -1.1376  0.8015  0.8039
11976TIP3   OH257418   1.965   1.936   3.450 -0.4181 -0.9130 -0.3844
11976TIP3    H157419   1.926   1.975   3.528  0.7295 -1.1323  0.3255
11976TIP3    H257420   1.924   1.982   3.377  0.0003  0.7588  0.4010
11977TIP3   OH257421   4.135   0.282  15.763 -0.1270  0.1489 -0.5213
11977TIP3    H157422   4.105   0.347  15.699 -0.0158  0.2446 -0.4779
11977TIP3    H257423   4.060   0.224  15.776  0.0063 -0.1735 -1.1187
11978TIP3   OH257424   5.957   2.878   5.001 -0.1762 -0.3543  0.1970
11978TIP3    H157425   5.991   2.941   4.937 -1.2892  0.7223  0.6362
11978TIP3    H257426   6.013   2.801   4.990  0.8008  0.4606 -0.8110
11979TIP3   OH257427   2.502   6.641  16.567  0.1795  0.1939 -0.2438
11979TIP3    H157428   2.417   6.624  16.609 -0.0119  1.3396 -0.1247
11979TIP3    H257429   2.535   6.555  16.544 -0.2393 -0.3895  1.2408
11980TIP3   OH257430   0.603   1.227  13.100 -0.7036 -0.3306  1.0159
11980TIP3    H157431   0.603   1.318  13.131  0.8915 -0.5534  1.7677
11980TIP3    H257432   0.679   1.221  13.042  0.2219 -1.5677  2.2758
11981TIP3   OH257433   1.189   4.311  15.607  0.0334  0.1710  0.2137
11981TIP3    H157434   1.179   4.321  15.702 -0.6252  3.6281 -0.1063
11981TIP3    H257435   1.248   4.381  15.581 -0.4155 -0.2046 -2.0411
11982TIP3   OH257436   5.450   4.799   5.620 -0.1381 -0.2766  0.5928
11982TIP3    H157437   5.358   4.803   5.645 -0.8444  0.0788 -1.7720
11982TIP3    H257438   5.451   4.825   5.527  1.9725 -2.7694 -0.2260
11983TIP3   OH257439   4.316   5.290   1.656  0.0104 -0.2899 -0.0117
11983TIP3    H157440   4.397   5.341   1.645 -1.0648  1.9130  1.5700
11983TIP3    H257441   4.246   5.350   1.630 -1.2083 -1.8599 -0.5000
11984TIP3   OH257442   0.429   4.078  13.974  0.2899 -0.2631 -0.4364
11984TIP3    H157443   0.386   4.147  14.025 -0.8893 -0.4080 -1.2064
11984TIP3    H257444   0.453   4.119  13.891 -0.3487 -0.7418 -0.8711
11985TIP3   OH257445   2.484   2.150   4.722 -0.4710  0.1298 -0.0710
11985TIP3    H157446   2.398   2.108   4.732 -1.5921  2.0734 -0.8375
11985TIP3    H257447   2.479   2.193   4.637  0.8726  1.1830  0.3522
11986TIP3   OH257448   4.743   5.471  17.175  0.4481 -0.1665  0.0229
11986TIP3    H157449   4.813   5.537  17.176  0.2053  0.1967  3.1249
11986TIP3    H257450   4.775   5.403  17.234 -1.6820 -0.0840  1.3588
11987TIP3   OH257451   2.326   3.782  12.651  0.3186  0.1660 -0.2256
11987TIP3    H157452   2.404   3.822  12.611 -0.3843 -0.2944 -2.1800
11987TIP3    H257453   2.344   3.688  12.648  0.4535  0.1424  1.0346
11988TIP3   OH257454   3.503   5.216   0.165  0.4611 -0.0725 -0.0310
11988TIP3    H157455   3.564   5.281   0.200  1.2846 -0.9841  0.2825
11988TIP3    H257456   3.535   5.198   0.077 -0.1329  0.3933 -0.3471
11989TIP3   OH257457   4.497   3.268   4.025 -1.0350  0.0927  0.1680
11989TIP3    H157458   4.590   3.269   4.049 -0.6217 -0.2253 -1.3115
11989TIP3    H257459   4.458   3.202   4.083 -0.7087  1.4029  1.9601
11990TIP3   OH257460   4.416   1.114   0.617 -0.0600 -0.2094 -0.1264
11990TIP3    H157461   4.413   1.180   0.686 -0.5827  0.0771 -0.4168
11990TIP3    H257462   4.360   1.044   0.648  0.1260 -0.3098 -0.0217
11991TIP3   OH257463   4.939   1.989  12.256  0.0471 -0.6855  0.0762
11991TIP3    H157464   5.032   2.011  12.263 -0.0922 -0.4014  1.1168
11991TIP3    H257465   4.904   2.002  12.344 -0.7595 -1.8010 -0.0570
11992TIP3   OH257466   4.716   0.868   2.993 -0.1971 -0.0209  0.1811
11992TIP3    H157467   4.687   0.938   2.935 -0.3722 -1.2700 -1.2863
11992TIP3    H257468   4.806   0.849   2.966 -0.1470 -0.3581  0.5679
11993TIP3   OH257469   4.088   6.237  11.824 -0.3275 -0.0205  0.0236
11993TIP3    H157470   4.046   6.319  11.850  0.2338  0.4534 -0.5345
11993TIP3    H257471   4.117   6.198  11.906  0.0354  0.6931  0.2405
11994TIP3   OH257472   1.662   0.891  16.349 -0.3054  0.3439 -0.5942
11994TIP3    H157473   1.624   0.878  16.436  1.1270  0.9621  0.1435
11994TIP3    H257474   1.734   0.952  16.363 -0.4380  0.9401 -2.3250
11995TIP3   OH257475   6.456   0.092   0.384 -0.5095  0.7101 -0.0750
11995TIP3    H157476   6.471   0.114   0.476 -0.8666 -0.1032  0.1883
11995TIP3    H257477   6.491   0.167   0.335 -1.8415  1.9196  0.7713
11996TIP3   OH257478   0.982   6.650   5.740 -0.6995  0.2507  0.0782
11996TIP3    H157479   0.977   6.718   5.673  1.3653 -0.1650 -0.5692
11996TIP3    H257480   0.892   6.623   5.754 -1.2637  0.9255 -1.9316
11997TIP3   OH257481   4.724   4.065   6.030 -0.3765  0.1506  0.2444
11997TIP3    H157482   4.711   3.996   5.965  0.1415  0.4959 -0.2441
11997TIP3    H257483   4.789   4.028   6.091  0.5400  0.4992 -0.4909
11998TIP3   OH257484   2.694   0.891   0.538 -0.1002 -0.4681  0.4506
11998TIP3    H157485   2.726   0.943   0.611 -0.3013  1.4974 -0.8054
11998TIP3    H257486   2.709   0.945   0.461 -0.5885 -2.1588 -0.8992
11999TIP3   OH257487   3.254   2.954   0.392 -0.3724  0.3012 -0.3737
11999TIP3    H157488   3.179   2.996   0.434 -1.2007 -0.1330 -1.3685
11999TIP3    H257489   3.243   2.973   0.299 -2.7701 -4.8855 -1.4766
12000TIP3   OH257490   0.008   4.371  12.134 -0.6841  0.3869 -0.0074
12000TIP3    H157491  -0.061   4.371  12.200 -2.5630  0.5183 -1.8388
12000TIP3    H257492  -0.013   4.296  12.078  0.8111  0.2991 -0.4908
12001TIP3   OH257493   0.627   4.956  13.610  0.0562  0.0387 -0.2387
12001TIP3    H157494   0.544   4.974  13.653 -0.1155  0.4744 -0.7487
12001TIP3    H257495   0.678   4.907  13.676 -0.1093  0.8886  0.5481
12002TIP3   OH257496   3.866   2.546  13.854  0.0545  0.2691  0.4232
12002TIP3    H157497   3.902   2.524  13.768  0.0893 -0.8506  0.7019
12002TIP3    H257498   3.866   2.463  13.902 -0.1558  0.8312  1.4399
12003TIP3   OH257499   0.780   4.651  12.974 -0.1066 -0.1377 -0.1442
12003TIP3    H157500   0.837   4.726  12.991 -0.3673  0.7156 -2.6081
12003TIP3    H257501   0.693   4.689  12.961 -0.8178 -1.1889  1.2976
12004TIP3   OH257502   6.828   6.505  16.898  0.1993  0.1582 -0.4718
12004TIP3    H157503   6.808   6.594  16.871 -0.7582  0.2018  0.3527
12004TIP3    H257504   6.743   6.466  16.918  0.4792 -1.3101 -1.8942
12005TIP3   OH257505   0.905   4.400   5.872 -0.2826  0.3622 -0.2325
12005TIP3    H157506   0.993   4.381   5.904 -0.0167  0.0696 -1.1077
12005TIP3    H257507   0.905   4.368   5.782 -1.4093 -0.0126 -0.1192
12006TIP3   OH257508   1.896   4.525   0.999 -0.3328 -0.4766  0.2359
12006TIP3    H157509   1.900   4.524   1.095 -0.2964 -0.7169  0.2334
12006TIP3    H257510   1.819   4.577   0.979 -0.3298 -0.4088  0.3969
12007TIP3   OH257511   4.964   0.457  13.635  0.1130 -0.3314  0.1110
12007TIP3    H157512   4.934   0.536  13.678 -2.1668 -1.3831  0.6127
12007TIP3    H257513   5.031   0.421  13.694  1.1877  1.1630 -0.1382
12008TIP3   OH257514   2.717   4.663   0.466  0.2488  0.7269 -0.0036
12008TIP3    H157515   2.746   4.747   0.429 -0.5996  1.3597  0.7384
12008TIP3    H257516   2.750   4.664   0.555 -1.4348  1.1756  0.6534
12009TIP3   OH257517   3.901   1.380  16.157  0.3572  0.2654  0.8928
12009TIP3    H157518   3.827   1.420  16.204 -1.7475 -2.2225 -0.0022
12009TIP3    H257519   3.976   1.391  16.215 -0.6118  3.1167  1.7560
12010TIP3   OH257520   2.356   5.386  11.993 -0.7446 -0.7884 -0.2918
12010TIP3    H157521   2.351   5.456  11.927 -0.6440 -2.1019 -1.7651
12010TIP3    H257522   2.269   5.385  12.033 -1.0473 -0.4076 -0.9101
12011TIP3   OH257523   5.410   1.065   1.188 -0.3510 -0.0235  0.2853
12011TIP3    H157524   5.400   1.027   1.101 -0.6318 -0.7896  0.6419
12011TIP3    H257525   5.457   0.997   1.237  2.3038  1.4729  0.0012
12012TIP3   OH257526   2.427   1.923  12.052  0.4744  0.3814 -0.0866
12012TIP3    H157527   2.504   1.896  12.102 -0.0548 -0.7376  0.1578
12012TIP3    H257528   2.399   2.004  12.093  0.9198  0.2522  0.4842
12013TIP3   OH257529   5.111   1.531  17.106 -0.9746  0.1463  0.2131
12013TIP3    H157530   5.059   1.609  17.089  0.1394  0.4997 -2.0097
12013TIP3    H257531   5.130   1.496  17.019  2.0092 -0.2416  0.9145
12014TIP3   OH257532   0.600   6.293   2.541 -0.0388  0.0352 -0.2750
12014TIP3    H157533   0.677   6.333   2.581  0.8660 -1.6992 -0.2132
12014TIP3    H257534   0.551   6.367   2.504 -0.4240  1.6523  3.0551
12015TIP3   OH257535   6.684   1.220  15.351  0.1629  0.4756  0.1748
12015TIP3    H157536   6.681   1.221  15.447  1.0594 -1.2928  0.2507
12015TIP3    H257537   6.712   1.308  15.327 -0.8383  1.1890  1.4858
12016TIP3   OH257538   3.560   4.961  11.408 -0.1652  0.0164 -0.3591
12016TIP3    H157539   3.633   4.962  11.347 -0.0827 -0.2020 -0.2663
12016TIP3    H257540   3.482   4.968  11.353 -0.0381  2.0944 -0.3559
12017TIP3   OH257541   4.883   5.424  15.571 -0.0177  0.1656  0.4859
12017TIP3    H157542   4.884   5.331  15.553 -0.3073  0.1011  0.7843
12017TIP3    H257543   4.906   5.431  15.664 -1.9973  0.2329  1.0267
12018TIP3   OH257544   4.636   1.869   5.692 -0.2950 -0.2586 -0.5015
12018TIP3    H157545   4.643   1.963   5.709 -1.8115  0.0940 -1.6003
12018TIP3    H257546   4.548   1.846   5.723 -0.1848 -1.1729 -0.8525
12019TIP3   OH257547   2.656   3.322  15.068  0.3602 -0.6555 -0.4884
12019TIP3    H157548   2.664   3.228  15.083  0.6250 -0.4338  0.8720
12019TIP3    H257549   2.654   3.361  15.156  1.5459  0.7064 -1.0063
12020TIP3   OH257550   1.806   5.194  13.683 -0.1274 -0.0317  0.5324
12020TIP3    H157551   1.756   5.115  13.659 -1.8784  0.6647  1.6714
12020TIP3    H257552   1.773   5.218  13.770  3.1456 -0.2115  1.9713
12021TIP3   OH257553   2.473   4.991  10.467  0.0140 -0.6763 -0.4804
12021TIP3    H157554   2.382   5.013  10.484  0.8316  1.7795  1.2748
12021TIP3    H257555   2.497   5.042  10.390  0.0581 -0.8745 -0.5990
12022TIP3   OH257556   6.038   0.294  16.115 -0.0567 -0.0057  0.4956
12022TIP3    H157557   6.043   0.352  16.039  0.0921 -0.2249  0.3366
12022TIP3    H257558   6.069   0.347  16.188 -1.6358  0.6987  0.6916
12023TIP3   OH257559   2.921   2.378  13.104 -0.1025  0.7982 -0.7110
12023TIP3    H157560   2.974   2.366  13.182 -0.5704  0.9865 -0.3592
12023TIP3    H257561   2.955   2.315  13.041  1.8745  2.2737 -1.1971
12024TIP3   OH257562   3.239   2.294   0.663  0.4897 -0.2715  0.1199
12024TIP3    H157563   3.227   2.218   0.606 -0.1967  0.5018 -0.7800
12024TIP3    H257564   3.308   2.345   0.621 -1.1448  1.1292 -0.9292
12025TIP3   OH257565   3.973   3.088   3.797  0.5555 -0.7894 -0.5626
12025TIP3    H157566   3.973   3.005   3.845 -0.5021 -1.2818 -1.3647
12025TIP3    H257567   3.994   3.154   3.863  0.5247 -1.5936  0.2713
12026TIP3   OH257568   6.041   6.576   3.242 -0.2231 -0.0069 -0.8562
12026TIP3    H157569   6.088   6.521   3.179 -1.4881 -1.7567 -0.3364
12026TIP3    H257570   6.010   6.515   3.309 -1.1803  1.4275  0.0529
12027TIP3   OH257571   6.420   0.412   0.434 -0.0689 -0.0707 -0.0139
12027TIP3    H157572   6.448   0.437   0.346  0.2881  1.0068  0.3893
12027TIP3    H257573   6.471   0.468   0.492  0.2498 -1.2850  0.9220
12028TIP3   OH257574   4.528   0.281  17.004  0.0434  0.6151  0.4110
12028TIP3    H157575   4.523   0.365  17.048  2.8850 -0.2281  2.6603
12028TIP3    H257576   4.585   0.228  17.059  0.1729 -2.0832 -2.0411
12029TIP3   OH257577   4.929   2.799  16.425  0.2023  0.4088  0.0446
12029TIP3    H157578   5.018   2.793  16.390  0.5295  1.2294  0.7168
12029TIP3    H257579   4.940   2.835  16.513 -0.7275 -0.2567  0.4487
12030TIP3   OH257580   2.078   5.761  11.254  0.5997 -0.3359  0.4379
12030TIP3    H157581   2.114   5.736  11.169  1.0052  1.8371 -0.0989
12030TIP3    H257582   2.056   5.678  11.296 -3.7698 -1.5679 -3.4541
12031TIP3   OH257583   0.184   1.818   5.398 -0.1503  0.3189 -0.8998
12031TIP3    H157584   0.262   1.860   5.362  0.8920 -0.3555  0.4837
12031TIP3    H257585   0.129   1.801   5.322  0.0946  2.6957 -1.6832
12032TIP3   OH257586   2.489   1.264   1.887 -0.0254 -0.5203 -0.3329
12032TIP3    H157587   2.460   1.302   1.804  0.6551 -1.5506 -1.0729
12032TIP3    H257588   2.453   1.176   1.887  0.9623 -0.9412 -0.1005
12033TIP3   OH257589   2.172   3.291   2.182  0.2236  0.1281  0.4949
12033TIP3    H157590   2.110   3.243   2.128  0.0192 -0.1286  0.9559
12033TIP3    H257591   2.251   3.237   2.183  1.4777  1.6782 -2.3056
12034TIP3   OH257592   5.823   6.271  13.590 -0.1572  0.5150  0.2734
12034TIP3    H157593   5.819   6.347  13.648 -1.1853  2.4225 -2.1119
12034TIP3    H257594   5.907   6.278  13.545 -0.2140  0.1939  0.1085
12035TIP3   OH257595   4.911   1.938   0.035  0.2811 -0.0041 -0.0922
12035TIP3    H157596   4.943   2.006   0.095 -0.3262  0.4114 -0.2324
12035TIP3    H257597   4.951   1.857   0.067  0.5604  0.3311  0.4173
12036TIP3   OH257598   0.828   1.399   3.504  0.5175  0.4522 -0.0735
12036TIP3    H157599   0.859   1.426   3.590 -0.8884 -0.1864  0.6579
12036TIP3    H257600   0.749   1.450   3.489  0.1633 -0.2059 -0.5135
12037TIP3   OH257601   1.656   0.822   5.421 -0.1266 -0.3021  0.2902
12037TIP3    H157602   1.683   0.878   5.348  0.2644 -1.2579 -0.3278
12037TIP3    H257603   1.687   0.735   5.396 -0.5798 -0.7653  1.2991
12038TIP3   OH257604   3.799   1.761   1.820  0.0515 -0.2847  0.1107
12038TIP3    H157605   3.733   1.696   1.796 -1.0450  0.8048  0.0511
12038TIP3    H257606   3.750   1.828   1.868  1.3018  0.0897  0.9250
12039TIP3   OH257607   2.421   2.951   0.079 -0.6663  0.3078 -0.6209
12039TIP3    H157608   2.395   3.041   0.098  1.3946  0.5851  1.2452
12039TIP3    H257609   2.362   2.897   0.132 -0.6691  0.6483 -0.2769
12040TIP3   OH257610   4.506   5.677  10.257  0.5978 -0.2725 -0.1155
12040TIP3    H157611   4.519   5.766  10.223  0.4146 -0.4300 -0.6164
12040TIP3    H257612   4.535   5.620  10.186 -0.6846 -0.6172 -0.3990
12041TIP3   OH257613   4.034   6.614  14.635  0.1535 -0.1052 -0.0711
12041TIP3    H157614   4.037   6.670  14.557 -0.4103  0.0754  0.0295
12041TIP3    H257615   3.994   6.669  14.703  0.0534 -0.4689  0.1680
12042TIP3   OH257616   0.096   1.790  13.909 -0.1436  0.5239  0.2579
12042TIP3    H157617   0.182   1.770  13.871 -1.2302  2.0047 -3.3875
12042TIP3    H257618   0.113   1.862  13.969  1.1665  0.8742 -0.4864
12043TIP3   OH257619   6.662   4.177   0.101 -0.0993  0.0390 -0.8066
12043TIP3    H157620   6.637   4.117   0.172  0.7657  0.7821  0.1698
12043TIP3    H257621   6.680   4.120   0.027 -0.0514 -0.8518 -0.1343
12044TIP3   OH257622   5.770   5.568  11.665 -0.0583 -0.7747  0.8259
12044TIP3    H157623   5.715   5.627  11.716 -0.1633 -1.5878  1.6921
12044TIP3    H257624   5.758   5.595  11.574 -2.0338 -1.0404  0.9789
12045TIP3   OH257625   4.577   1.991   4.310 -0.0140 -0.5732 -0.3740
12045TIP3    H157626   4.529   2.059   4.357 -0.0351 -0.4904 -0.5120
12045TIP3    H257627   4.575   1.915   4.367  1.1114 -0.0794  0.3543
12046TIP3   OH257628   4.726   5.308  12.398  0.5449 -0.1443 -0.3742
12046TIP3    H157629   4.693   5.247  12.331  2.1784 -0.1129 -1.2638
12046TIP3    H257630   4.817   5.283  12.410  0.7523  1.0055  0.5695
12047TIP3   OH257631   2.479   6.544   4.359  1.0645  0.2133  0.3552
12047TIP3    H157632   2.454   6.502   4.276  0.5347  0.6948  0.2677
12047TIP3    H257633   2.449   6.484   4.427  0.6698  0.2585  0.2208
12048TIP3   OH257634   6.015   3.029  14.571  0.3201 -0.2282 -0.1426
12048TIP3    H157635   6.006   2.938  14.543  1.8050 -0.0495 -1.3548
12048TIP3    H257636   6.106   3.037  14.598  0.3601  1.0221 -0.5725
12049TIP3   OH257637   1.975   1.114   4.978 -0.4286  0.4258 -0.2107
12049TIP3    H157638   2.030   1.177   4.931 -0.8198  0.6615 -0.3671
12049TIP3    H257639   1.886   1.139   4.954 -0.5972 -0.0457 -0.0834
12050TIP3   OH257640   3.742   5.523   4.367 -0.0142  0.1733  0.2797
12050TIP3    H157641   3.660   5.569   4.353 -0.2150 -0.5022 -0.8280
12050TIP3    H257642   3.753   5.522   4.463 -0.6143  1.4212  0.3719
12051TIP3   OH257643   0.217   6.217  16.037 -0.0942  0.0100 -0.0168
12051TIP3    H157644   0.195   6.153  16.105  0.6010  0.0487  0.2530
12051TIP3    H257645   0.219   6.301  16.083  3.9576 -0.3317  0.8215
12052TIP3   OH257646   3.333   1.944   4.300  0.5384  0.1625  0.3416
12052TIP3    H157647   3.326   1.905   4.212  1.6473  0.3857  0.1404
12052TIP3    H257648   3.423   1.925   4.327  0.3713  0.5790  1.2053
12053TIP3   OH257649   6.275   1.215  11.560 -0.2356 -0.3677 -0.0626
12053TIP3    H157650   6.357   1.165  11.564 -0.8433 -1.3525  0.5044
12053TIP3    H257651   6.249   1.212  11.468 -0.2675 -1.1216 -0.0344
12054TIP3   OH257652   2.522   5.336  16.839  0.1045 -0.1432 -0.1488
12054TIP3    H157653   2.514   5.407  16.774 -0.3748  0.0925  0.1598
12054TIP3    H257654   2.587   5.368  16.901 -1.7797  1.0690  1.2864
12055TIP3   OH257655   1.532   4.516   2.352  0.2057  0.4243 -0.1407
12055TIP3    H157656   1.535   4.512   2.256  1.8354 -2.0615 -0.0796
12055TIP3    H257657   1.471   4.447   2.377 -0.6309  1.4156  0.6386
12056TIP3   OH257658   3.254   5.245  15.451  0.2348  0.4235 -0.3671
12056TIP3    H157659   3.187   5.269  15.387 -0.4670 -0.0752  0.1672
12056TIP3    H257660   3.295   5.167  15.415 -0.3857 -0.0524 -0.0604
12057TIP3   OH257661   3.010   4.150   3.209  0.1451  0.3058 -0.3405
12057TIP3    H157662   2.971   4.159   3.122  2.0804 -0.6202 -1.3788
12057TIP3    H257663   2.960   4.079   3.250  0.4984 -0.6829 -1.5293
12058TIP3   OH257664   5.774   6.551   3.197 -0.2999 -0.0732  0.1835
12058TIP3    H157665   5.858   6.596   3.208 -0.0113 -0.8782  1.3304
12058TIP3    H257666   5.731   6.601   3.127  0.8786  0.7050 -0.0332
12059TIP3   OH257667   2.325   0.632  16.830 -0.2372  0.0414  0.8882
12059TIP3    H157668   2.389   0.563  16.852 -0.7891 -0.0518  2.2982
12059TIP3    H257669   2.374   0.714  16.839  0.3410 -0.1050 -0.5089
12060TIP3   OH257670   4.510   3.775  13.919  0.6922 -0.2534  0.1438
12060TIP3    H157671   4.517   3.707  13.852  0.6697  1.3222 -1.5020
12060TIP3    H257672   4.514   3.858  13.872  1.8053  0.9607  2.1926
12061TIP3   OH257673   1.141   4.023  11.574 -0.0110 -0.0420  0.0454
12061TIP3    H157674   1.105   4.099  11.620  0.2512 -1.0027  1.9363
12061TIP3    H257675   1.229   4.049  11.550  0.6558 -0.2015  2.0735
12062TIP3   OH257676   1.639   6.076   0.450 -0.1036  0.5070  0.6087
12062TIP3    H157677   1.561   6.111   0.407 -0.2257 -0.9934 -0.4662
12062TIP3    H257678   1.614   5.988   0.478  0.9278  0.3512  1.0909
12063TIP3   OH257679   1.284   5.441   0.273 -0.2894 -0.3580  0.2795
12063TIP3    H157680   1.273   5.463   0.366  1.9399  3.4554 -0.1589
12063TIP3    H257681   1.232   5.506   0.226 -1.4463 -2.2693 -1.2509
12064TIP3   OH257682   2.888   4.675   5.342  0.7544 -0.3813 -0.5017
12064TIP3    H157683   2.857   4.668   5.252  0.7652  0.5747 -0.5970
12064TIP3    H257684   2.983   4.682   5.333  0.7859 -0.6609 -0.3885
12065TIP3   OH257685   3.719   3.239  12.083  0.3047 -0.3181 -0.0147
12065TIP3    H157686   3.731   3.303  12.153 -2.1015  0.0861  0.1241
12065TIP3    H257687   3.797   3.247  12.029  0.7306  1.7069  0.8246
12066TIP3   OH257688   0.356   6.602   0.180 -0.4447 -0.4294  0.1251
12066TIP3    H157689   0.312   6.521   0.204 -0.3949 -0.5819 -0.2983
12066TIP3    H257690   0.327   6.620   0.090  1.4175 -1.2631 -0.6855
12067TIP3   OH257691   4.798   6.705   6.658  0.1415  0.0448 -0.4285
12067TIP3    H157692   4.796   6.788   6.706 -1.8005 -0.7343  0.9754
12067TIP3    H257693   4.849   6.647   6.714  0.7500  0.0236 -0.9902
12068TIP3   OH257694   2.952   3.625  16.616  0.0298 -0.3504  0.0062
12068TIP3    H157695   2.882   3.687  16.635  0.4207 -0.3408  1.6015
12068TIP3    H257696   2.977   3.643  16.526 -0.0392  1.6600  0.3412
12069TIP3   OH257697   0.327   0.898  15.357  0.2782 -0.0175  0.7378
12069TIP3    H157698   0.244   0.922  15.398  0.1048  0.3078  0.1955
12069TIP3    H257699   0.342   0.964  15.290  1.5924  0.6455  1.6342
12070TIP3   OH257700   1.028   5.645   1.643 -0.6095 -0.2506  0.0975
12070TIP3    H157701   1.084   5.649   1.721  0.2268 -0.0400 -0.4944
12070TIP3    H257702   0.978   5.564   1.654  1.5270 -1.7404 -0.4527
12071TIP3   OH257703   0.356   0.869  11.831 -0.4928 -1.1859 -0.3812
12071TIP3    H157704   0.273   0.872  11.783 -0.7807 -2.1818  0.0445
12071TIP3    H257705   0.335   0.827  11.914  0.4721 -1.6255 -0.3465
12072TIP3   OH257706   5.801   1.357  14.836  0.0259  0.1677 -0.1829
12072TIP3    H157707   5.791   1.429  14.775  0.6697 -0.0239 -0.5159
12072TIP3    H257708   5.833   1.284  14.783 -0.9240 -0.4693  0.0843
12073TIP3   OH257709   6.109   3.669   6.113  0.5528 -0.4755 -0.3180
12073TIP3    H157710   6.147   3.620   6.187 -0.8581 -1.3588 -0.1326
12073TIP3    H257711   6.183   3.684   6.054  2.1497  1.8857  2.0637
12074TIP3   OH257712   6.521   2.027   1.318 -0.3642  0.1118 -0.6392
12074TIP3    H157713   6.544   2.111   1.279  0.2912  0.4435  0.4032
12074TIP3    H257714   6.543   2.038   1.411  0.3105 -1.4160 -0.5976
12075TIP3   OH257715   1.803   5.782   2.539 -0.1177  0.8170 -0.0312
12075TIP3    H157716   1.732   5.801   2.600  0.3287 -0.3690  0.8870
12075TIP3    H257717   1.759   5.767   2.455 -1.0170 -0.4339  0.6369
12076TIP3   OH257718   2.003   4.659   3.703  0.3717 -0.9615 -0.1356
12076TIP3    H157719   1.981   4.700   3.787 -1.8211 -0.4952 -0.8837
12076TIP3    H257720   2.031   4.570   3.727  0.6856 -0.5394  1.1416
12077TIP3   OH257721   1.925   1.467   2.449  0.3651 -0.6807 -0.0415
12077TIP3    H157722   2.004   1.519   2.436 -0.5231  0.2809 -2.0386
12077TIP3    H257723   1.947   1.407   2.520  1.7791  1.7155  1.6936
12078TIP3   OH257724   5.667   3.048   4.056  0.3533 -0.1185  0.4810
12078TIP3    H157725   5.613   3.127   4.057  0.5672  0.0405 -0.1713
12078TIP3    H257726   5.604   2.976   4.070 -0.1001  0.0331 -0.7038
12079TIP3   OH257727   0.252   1.556   2.222 -0.2454  0.5996 -0.1114
12079TIP3    H157728   0.235   1.475   2.174 -1.7065  1.3527 -0.9541
12079TIP3    H257729   0.346   1.570   2.215 -0.1963 -0.2119 -1.2854
12080TIP3   OH257730   2.153   1.175  11.485 -0.1200  0.0566 -0.3178
12080TIP3    H157731   2.219   1.117  11.447 -0.4829  0.4928 -1.6686
12080TIP3    H257732   2.197   1.215  11.560  0.1863 -1.8416  0.5817
12081TIP3   OH257733   2.858   1.744   5.847 -0.0604  0.1386  0.2506
12081TIP3    H157734   2.804   1.754   5.925  0.0320  1.0256  0.2083
12081TIP3    H257735   2.933   1.803   5.861 -0.4429  0.9284 -0.8455
12082TIP3   OH257736   5.069   5.699   2.435  0.3867  0.7622 -0.2004
12082TIP3    H157737   5.013   5.751   2.492  0.1855  0.5554 -0.2064
12082TIP3    H257738   5.147   5.681   2.487  0.8714  1.8475 -0.5141
12083TIP3   OH257739   1.805   0.460  16.554 -0.1673 -0.3358 -0.3557
12083TIP3    H157740   1.728   0.483  16.502 -0.1914  0.9668  0.2268
12083TIP3    H257741   1.826   0.371  16.526 -0.9613 -0.1540 -1.6307
12084TIP3   OH257742   1.978   6.564  12.805  0.8021 -0.4530 -0.7860
12084TIP3    H157743   2.027   6.502  12.859 -0.2859  0.5173  1.4717
12084TIP3    H257744   2.041   6.632  12.783  0.9711 -0.1556  0.5132
12085TIP3   OH257745   1.386   0.678  16.497 -0.2872 -0.0517 -0.2833
12085TIP3    H157746   1.449   0.607  16.507 -0.1558  0.1873  0.6187
12085TIP3    H257747   1.338   0.656  16.416  1.1378 -0.0702 -1.1528
12086TIP3   OH257748   5.799   4.038   2.338  0.8109  0.4462 -0.4445
12086TIP3    H157749   5.734   4.027   2.270  0.3246  0.8103 -0.0463
12086TIP3    H257750   5.788   4.129   2.368  1.0680  0.3184  0.0585
12087TIP3   OH257751   2.930   4.144  12.001 -0.3181 -0.5958  0.4334
12087TIP3    H157752   2.961   4.223  11.957 -1.5026 -0.7884 -0.8399
12087TIP3    H257753   3.002   4.082  11.994  0.4006  0.1729  0.9153
12088TIP3   OH257754   4.690   0.031  14.928  0.5416  0.3921  0.3071
12088TIP3    H157755   4.688  -0.060  14.958 -1.1200 -0.0714 -1.0734
12088TIP3    H257756   4.698   0.024  14.833  0.4616  1.6936  0.1979
12089TIP3   OH257757   3.539   2.936  10.906  0.0973  0.1988 -0.3082
12089TIP3    H157758   3.509   2.854  10.868 -0.5978  0.8195 -1.1345
12089TIP3    H257759   3.518   3.003  10.840 -1.5197  1.3727  1.2948
12090TIP3   OH257760   6.175   0.746  16.350 -0.2352 -0.0878  0.5570
12090TIP3    H157761   6.136   0.833  16.355  0.9135  0.5520 -0.9604
12090TIP3    H257762   6.268   0.762  16.339  0.0548 -1.5368  0.6728
12091TIP3   OH257763   3.457   6.156   0.354 -0.3882 -0.0177 -0.0905
12091TIP3    H157764   3.473   6.089   0.288 -1.2272  0.2130 -0.5508
12091TIP3    H257765   3.495   6.120   0.434  1.5272  0.1338 -0.8885
12092TIP3   OH257766   4.288   4.596  15.419 -0.2345  0.0873 -0.1412
12092TIP3    H157767   4.382   4.614  15.423 -0.5699  1.7893  0.9725
12092TIP3    H257768   4.261   4.630  15.333 -0.1226  1.3255  0.2852
12093TIP3   OH257769   5.049   4.922  12.326  0.1254  0.5866  0.1432
12093TIP3    H157770   5.099   4.883  12.398  2.0911  1.5451 -0.6267
12093TIP3    H257771   5.010   4.847  12.281 -0.2815 -0.0934  1.5788
12094TIP3   OH257772   4.398   5.320   1.316 -0.2550 -0.5062  0.3331
12094TIP3    H157773   4.439   5.234   1.310  0.4924 -0.2355  1.1891
12094TIP3    H257774   4.437   5.371   1.245 -1.1881 -1.0420 -0.5938
12095TIP3   OH257775   4.388   1.184  10.862 -0.7022  0.0317  0.0127
12095TIP3    H157776   4.368   1.118  10.796  0.9214 -0.3509 -0.1342
12095TIP3    H257777   4.471   1.155  10.901  0.8690  2.6781 -1.0712
12096TIP3   OH257778   5.142   6.212   3.388 -0.6274  0.2390  0.3661
12096TIP3    H157779   5.234   6.241   3.386  0.3567 -2.6596 -1.0423
12096TIP3    H257780   5.140   6.132   3.336 -3.1397 -2.1721  3.7119
12097TIP3   OH257781   2.555   3.637  15.687 -0.5428 -0.1936 -0.5097
12097TIP3    H157782   2.544   3.580  15.764  0.3559 -0.0628 -0.2756
12097TIP3    H257783   2.478   3.694  15.689 -0.3304  0.0802  0.5320
12098TIP3   OH257784   2.057   5.800   2.865  0.3262 -0.2166 -0.1959
12098TIP3    H157785   1.993   5.793   2.936  1.2817 -0.7827  0.6239
12098TIP3    H257786   2.123   5.734   2.885  0.1890 -0.9781 -2.0771
12099TIP3   OH257787   2.227   0.103   5.102 -0.2907 -0.1207 -0.2581
12099TIP3    H157788   2.279   0.152   5.038  2.1179  0.0318  1.6226
12099TIP3    H257789   2.292   0.051   5.150 -2.2369 -1.7882  0.7037
12100TIP3   OH257790   6.522   3.701  12.814 -0.1995 -0.1730  0.0247
12100TIP3    H157791   6.559   3.663  12.734 -1.8667 -0.6368 -0.5660
12100TIP3    H257792   6.521   3.796  12.797  1.5984 -0.0388  0.4707
12101TIP3   OH257793   6.547   5.574  13.565  0.0556  0.1229 -0.0561
12101TIP3    H157794   6.606   5.551  13.636  0.4101 -0.6618 -0.5817
12101TIP3    H257795   6.541   5.669  13.568  2.6284  0.4002 -0.9710
12102TIP3   OH257796   5.070   3.871   2.319 -0.3918 -0.4003 -0.0323
12102TIP3    H157797   5.080   3.959   2.285  0.7300 -0.4399  0.1673
12102TIP3    H257798   5.097   3.877   2.410  0.8924 -1.1767 -0.3328
12103TIP3   OH257799   6.400   0.374  15.711  0.1545  0.0095  0.1056
12103TIP3    H157800   6.477   0.356  15.657  1.1953  1.5934  1.0088
12103TIP3    H257801   6.363   0.454  15.674 -1.9898 -1.4736 -1.2456
12104TIP3   OH257802   2.754   6.256  14.090  0.2353 -0.0524  0.2808
12104TIP3    H157803   2.672   6.223  14.053 -0.9935  2.8589  0.0454
12104TIP3    H257804   2.730   6.341  14.127  3.1220  0.7909  0.4657
12105TIP3   OH257805   2.400   2.952  15.906  0.2415 -0.4386  0.3635
12105TIP3    H157806   2.451   3.033  15.908  2.2472 -1.5669 -1.2777
12105TIP3    H257807   2.403   2.920  15.996 -1.5141  1.7345  1.3232
12106TIP3   OH257808   3.399   0.606  16.809  0.1104  0.5721 -0.1234
12106TIP3    H157809   3.415   0.679  16.748  0.0681  1.5984  1.0450
12106TIP3    H257810   3.372   0.649  16.890  2.1564 -0.6152  1.2818
12107TIP3   OH257811   4.522   2.085  12.340 -0.1852 -0.3883  0.3501
12107TIP3    H157812   4.439   2.061  12.298 -0.7203 -0.5548  1.4519
12107TIP3    H257813   4.536   2.176  12.313 -0.1926 -0.6787 -0.6655
12108TIP3   OH257814   4.916   1.468   2.125 -0.1577  0.0422 -0.3564
12108TIP3    H157815   4.829   1.433   2.104 -0.3985  0.9143 -0.8565
12108TIP3    H257816   4.898   1.543   2.182  0.3927 -1.1036  1.4310
12109TIP3   OH257817   2.184   4.773  11.359  0.0599 -0.1482 -0.2255
12109TIP3    H157818   2.268   4.817  11.375  1.3529 -2.8049  0.9088
12109TIP3    H257819   2.168   4.723  11.439 -1.9395 -0.7710 -0.9654
12110TIP3   OH257820   4.900   6.438   0.638 -0.1463 -0.0199 -0.4379
12110TIP3    H157821   4.980   6.402   0.598 -0.4848 -2.1771  0.6791
12110TIP3    H257822   4.923   6.453   0.729 -0.5449  0.9765 -0.4939
12111TIP3   OH257823   5.724   1.522  13.371  0.3531 -0.3793 -0.0743
12111TIP3    H157824   5.631   1.524  13.393  0.4816  0.2086  0.4372
12111TIP3    H257825   5.759   1.450  13.424  0.1357 -0.8120 -0.5090
12112TIP3   OH257826   1.031   1.025  12.633  0.1242  0.1404  0.1371
12112TIP3    H157827   0.946   1.008  12.592 -0.4770 -0.7011  1.6642
12112TIP3    H257828   1.075   0.940  12.633 -0.0509  0.0281  1.5571
12113TIP3   OH257829   2.194   4.908   3.791  0.0717  0.3151  0.7866
12113TIP3    H157830   2.160   4.918   3.702 -0.4165  1.6187  1.0973
12113TIP3    H257831   2.165   4.987   3.837  0.9157 -0.0019  1.9128
12114TIP3   OH257832   4.190   0.265   2.432  0.0797 -0.0991 -0.3608
12114TIP3    H157833   4.097   0.284   2.432  0.3734  1.6874  1.5516
12114TIP3    H257834   4.198   0.182   2.384 -2.4722 -0.4021 -0.3846
12115TIP3   OH257835   2.929   4.467  11.032  0.5353  0.0056 -0.1608
12115TIP3    H157836   2.969   4.403  10.973 -0.8431  0.0915 -1.2641
12115TIP3    H257837   2.876   4.522  10.974  1.1964  1.7808  0.8337
12116TIP3   OH257838   2.680   6.524   3.242  0.2047  0.5701  0.0439
12116TIP3    H157839   2.746   6.484   3.298  0.6646  0.1229 -0.8070
12116TIP3    H257840   2.605   6.465   3.249 -0.3688  1.4084  1.5100
12117TIP3   OH257841   1.213   6.655  14.925  0.8299  0.3799  0.2020
12117TIP3    H157842   1.251   6.733  14.965  0.6721  0.1665  0.7883
12117TIP3    H257843   1.280   6.587  14.936  1.7158  0.8329 -1.8908
12118TIP3   OH257844   0.468   6.025  11.895 -0.7465  0.3543  0.2068
12118TIP3    H157845   0.420   5.945  11.917 -0.6303  0.4949  1.0196
12118TIP3    H257846   0.481   6.020  11.801 -0.2030 -0.8893  0.3311
12119TIP3   OH257847   3.463   5.935  11.092 -0.1432 -0.4064 -0.6365
12119TIP3    H157848   3.417   5.929  11.175 -4.3686 -0.9952 -2.7417
12119TIP3    H257849   3.509   6.019  11.096 -1.2962  0.1979  1.7727
12120TIP3   OH257850   0.280   2.710   3.039  0.6520 -0.0754  0.1287
12120TIP3    H157851   0.373   2.698   3.017  1.1591 -2.7136  2.9180
12120TIP3    H257852   0.244   2.621   3.037 -0.7084  0.3041  3.0742
12121TIP3   OH257853   5.588   2.511  14.708  0.2075 -0.0666 -0.0183
12121TIP3    H157854   5.510   2.487  14.659  0.1671 -0.9754  0.4630
12121TIP3    H257855   5.640   2.563  14.647  0.1150 -1.0952 -1.0138
12122TIP3   OH257856   2.127   2.535  11.855  0.3055  0.0489 -0.1263
12122TIP3    H157857   2.054   2.581  11.898 -0.5470 -1.4738  0.1316
12122TIP3    H257858   2.145   2.461  11.913  2.1942  0.4891 -0.1134
12123TIP3   OH257859   0.513   1.277   1.991 -1.0853 -0.0305  0.0791
12123TIP3    H157860   0.521   1.369   1.965 -2.4881 -0.0409 -0.4445
12123TIP3    H257861   0.432   1.273   2.042 -1.2576 -1.0588 -0.2539
12124TIP3   OH257862   4.487   2.284  14.238 -0.2734  0.0503 -0.9572
12124TIP3    H157863   4.404   2.331  14.247 -0.5823 -0.6141 -0.2229
12124TIP3    H257864   4.492   2.229  14.316  0.7974 -0.0183 -1.0660
12125TIP3   OH257865   5.255   0.808   3.504  0.2316 -0.1541 -0.3627
12125TIP3    H157866   5.284   0.757   3.428  0.5311  2.5210 -2.2018
12125TIP3    H257867   5.161   0.792   3.509 -0.1155  0.8501 -2.4169
12126TIP3   OH257868   1.263   3.148  13.256 -0.3801 -0.3271  0.2077
12126TIP3    H157869   1.214   3.066  13.247 -0.0930 -0.4993  0.1699
12126TIP3    H257870   1.354   3.119  13.266 -0.0428  0.0205 -1.4939
12127TIP3   OH257871   4.615   2.192  15.577 -0.1590  0.0978 -0.5409
12127TIP3    H157872   4.556   2.164  15.507 -0.6279  1.9053 -0.9207
12127TIP3    H257873   4.617   2.288  15.570  2.0639  0.1627  0.0707
12128TIP3   OH257874   3.103   2.532   4.514 -0.2049 -0.4072  0.0078
12128TIP3    H157875   3.144   2.559   4.432 -1.6191 -1.3556 -1.0659
12128TIP3    H257876   3.029   2.477   4.487  0.5005 -2.4955  1.9318
12129TIP3   OH257877   2.422   1.199  10.614 -0.4798  0.2055  0.7782
12129TIP3    H157878   2.431   1.194  10.709  2.0134  0.4056  0.6083
12129TIP3    H257879   2.445   1.112  10.582  2.2990  1.0240  0.2328
12130TIP3   OH257880   5.559   1.658   1.423  0.0676  0.1281  0.6269
12130TIP3    H157881   5.621   1.701   1.481  0.3844 -0.7871  0.9896
12130TIP3    H257882   5.490   1.625   1.481 -1.2970  1.9370  0.1475
12131TIP3   OH257883   1.591   2.770  11.693  0.0361 -0.3597  0.5581
12131TIP3    H157884   1.592   2.682  11.731  2.9239 -0.1917  1.0936
12131TIP3    H257885   1.641   2.824  11.756 -0.3363  1.3049 -0.5125
12132TIP3   OH257886   0.156   1.673   1.948  0.7565  0.1502  0.2494
12132TIP3    H157887   0.075   1.687   1.998  0.8683  1.4220  0.1131
12132TIP3    H257888   0.223   1.716   2.000  1.3652 -0.9221  0.3704
12133TIP3   OH257889   1.762   4.247  15.394  0.5768 -0.5797  0.6699
12133TIP3    H157890   1.832   4.305  15.424  1.1896 -1.5105  1.1088
12133TIP3    H257891   1.710   4.230  15.472 -0.9048  1.0780  0.0996
12134TIP3   OH257892   1.362   1.773  11.641  0.1535 -0.0647 -0.2882
12134TIP3    H157893   1.409   1.855  11.628  1.6047 -0.8315 -0.0776
12134TIP3    H257894   1.386   1.719  11.565 -2.0727  0.2371 -1.2891
12135TIP3   OH257895   4.858   5.587   5.857  0.0938 -0.4135  0.1533
12135TIP3    H157896   4.945   5.551   5.870  0.3490  0.2638  0.3487
12135TIP3    H257897   4.863   5.677   5.891 -0.9053 -0.6379  0.9704
12136TIP3   OH257898   4.488   5.814  11.584 -0.0788 -0.1299  0.2747
12136TIP3    H157899   4.556   5.766  11.537  0.0252  0.2991 -0.0292
12136TIP3    H257900   4.518   5.816  11.675  0.6029  0.5239  0.0523
12137TIP3   OH257901   1.389   2.420   3.015 -0.8540 -0.1383 -0.5876
12137TIP3    H157902   1.444   2.399   3.091 -0.4241  1.1296 -0.5263
12137TIP3    H257903   1.443   2.480   2.963 -1.4052 -0.4711 -1.5626
12138TIP3   OH257904   2.472   2.293  11.953  0.0860  0.6088  0.2349
12138TIP3    H157905   2.459   2.350  11.877 -3.8938 -2.2435 -1.5318
12138TIP3    H257906   2.510   2.213  11.916  0.6329  0.1228  1.7853
12139TIP3   OH257907   3.426   0.877   3.917 -0.3044 -0.0742 -0.5680
12139TIP3    H157908   3.513   0.903   3.947 -0.0233 -1.0492 -0.5027
12139TIP3    H257909   3.421   0.783   3.935 -2.0126  0.2456  1.0190
12140TIP3   OH257910   4.207   1.288   4.219 -0.0293  0.2194 -0.6393
12140TIP3    H157911   4.184   1.356   4.284  2.5198  0.2414  0.3575
12140TIP3    H257912   4.173   1.322   4.136 -1.3713  1.2922  0.2967
12141TIP3   OH257913   6.337   0.455  12.007 -0.7378  0.2021 -0.3816
12141TIP3    H157914   6.299   0.389  12.065 -1.5491  0.8009 -0.2086
12141TIP3    H257915   6.398   0.503  12.062 -1.4197  0.6935 -0.0347
12142TIP3   OH257916   1.249   4.272  11.821  0.7577 -0.4670 -0.9581
12142TIP3    H157917   1.196   4.270  11.742 -0.3378  1.6241 -0.3468
12142TIP3    H257918   1.188   4.253  11.892  1.5331 -1.3611 -0.5004
12143TIP3   OH257919   0.019   0.938   1.074  0.4298  0.5851  0.0605
12143TIP3    H157920   0.110   0.908   1.079 -0.0749 -1.3630 -1.6026
12143TIP3    H257921  -0.016   0.922   1.162  1.9119  2.3592  1.0609
12144TIP3   OH257922   0.544   2.437  12.178  0.3924 -0.0290 -0.4166
12144TIP3    H157923   0.631   2.404  12.202 -0.6830 -3.4154 -0.5904
12144TIP3    H257924   0.543   2.436  12.083  0.3338  0.5228 -0.4225
12145TIP3   OH257925   3.647   2.707  11.984  0.3284  0.4550 -0.5940
12145TIP3    H157926   3.725   2.672  12.026  0.1716  0.3216 -0.4123
12145TIP3    H257927   3.626   2.644  11.915  0.6999  0.7752 -1.0050
12146TIP3   OH257928   1.655   4.317   4.692  0.8480  0.1919 -0.1288
12146TIP3    H157929   1.697   4.381   4.750  0.6234 -0.6413  0.9957
12146TIP3    H257930   1.564   4.315   4.721  0.6568 -0.0230 -0.7286
12147TIP3   OH257931   2.301   6.035   1.472  0.3887  0.9516 -0.3986
12147TIP3    H157932   2.276   6.108   1.529 -3.6372 -0.2653 -0.2952
12147TIP3    H257933   2.338   5.970   1.531 -1.4000  0.7026  0.5046
12148TIP3   OH257934   4.265   3.801   0.144 -0.2264 -0.1266  0.3334
12148TIP3    H157935   4.347   3.830   0.104 -0.0316  0.0687  0.8609
12148TIP3    H257936   4.256   3.709   0.119  0.5738 -0.3765  0.9564
12149TIP3   OH257937   4.611   1.797  15.377  0.6487 -0.0466 -0.3301
12149TIP3    H157938   4.702   1.817  15.401  0.8840 -0.4107 -0.8965
12149TIP3    H257939   4.573   1.761  15.457  1.6054 -1.8371 -0.6191
12150TIP3   OH257940   3.484   2.824   1.103  0.0233 -0.0094  0.0359
12150TIP3    H157941   3.472   2.890   1.171 -0.9990 -1.5311  1.4152
12150TIP3    H257942   3.577   2.801   1.108 -0.3317 -1.2675  2.1389
12151TIP3   OH257943   1.398   4.011  14.966  0.7724 -0.4475 -0.4665
12151TIP3    H157944   1.407   3.915  14.970  0.3145 -0.4819 -0.2004
12151TIP3    H257945   1.480   4.041  14.926  1.5103 -0.8505  0.6863
12152TIP3   OH257946   0.213   1.553   5.269 -0.4851 -0.6232 -0.1635
12152TIP3    H157947   0.261   1.549   5.186 -0.3875  0.2585 -0.1611
12152TIP3    H257948   0.124   1.528   5.247 -0.2720 -1.2173 -0.3720
12153TIP3   OH257949   6.314   6.532  13.173  0.3638  0.2009  0.6450
12153TIP3    H157950   6.335   6.623  13.194 -0.6385  0.3623  0.9796
12153TIP3    H257951   6.263   6.501  13.247  0.2272 -0.4718  0.2794
12154TIP3   OH257952   5.191   5.384   5.437  0.0669 -0.0354 -0.2923
12154TIP3    H157953   5.133   5.450   5.399  1.4836  1.3866 -0.0619
12154TIP3    H257954   5.139   5.303   5.435 -1.9046  1.1596 -0.0882
12155TIP3   OH257955   6.355   5.146   4.692 -0.1788  0.3160  0.0418
12155TIP3    H157956   6.327   5.062   4.656 -0.0499  0.3046 -0.0334
12155TIP3    H257957   6.430   5.124   4.748  1.2738  0.6172 -1.6765
12156TIP3   OH257958   1.619   5.700   6.052  0.2194 -0.2345  0.0122
12156TIP3    H157959   1.610   5.786   6.095  1.8165  0.6205 -1.2621
12156TIP3    H257960   1.672   5.649   6.113  0.0647 -0.0067  0.3468
12157TIP3   OH257961   0.178   5.263   3.535  0.3451 -0.0232  0.2364
12157TIP3    H157962   0.267   5.231   3.520  0.8774  1.1335  0.7952
12157TIP3    H257963   0.174   5.279   3.630 -0.6796 -0.6699  0.3225
12158TIP3   OH257964   4.974   3.788  17.018  0.5768 -0.4276 -0.6338
12158TIP3    H157965   4.895   3.763  16.971 -1.5601  1.0269  1.8909
12158TIP3    H257966   4.966   3.883  17.029  1.9348 -0.4414  0.8889
12159TIP3   OH257967   3.874   0.825   4.708  0.4250  0.4530 -0.4290
12159TIP3    H157968   3.849   0.816   4.616 -0.5615  0.9146 -0.2228
12159TIP3    H257969   3.922   0.908   4.712  1.1438  0.0568 -0.6525
12160TIP3   OH257970   1.348   0.986   6.708 -0.1696 -0.0686 -0.6088
12160TIP3    H157971   1.310   0.919   6.764 -0.5288  0.9742  0.4472
12160TIP3    H257972   1.281   1.054   6.703  1.4042  1.7281  1.1321
12161TIP3   OH257973   4.009   1.766  11.838 -0.4290 -0.0050  0.1835
12161TIP3    H157974   3.995   1.779  11.744 -0.4496  0.5366  0.2584
12161TIP3    H257975   3.922   1.775  11.877 -0.1347  1.9484  0.4867
12162TIP3   OH257976   5.769   6.581   5.980 -0.4736  0.1750  0.1291
12162TIP3    H157977   5.780   6.616   6.068  1.6752  0.4639 -0.1957
12162TIP3    H257978   5.757   6.487   5.994  1.6721 -0.0629  0.7047
12163TIP3   OH257979   4.330   4.462  15.811 -0.3156  0.6077 -0.3368
12163TIP3    H157980   4.325   4.477  15.716 -0.8736 -0.5732 -0.5055
12163TIP3    H257981   4.343   4.368  15.820 -1.5277  0.5191  0.7836
12164TIP3   OH257982   3.722   3.723   1.977  0.0724  0.0823  0.6714
12164TIP3    H157983   3.757   3.788   1.915  2.4207 -2.4890 -0.9377
12164TIP3    H257984   3.631   3.712   1.950  0.4136  0.6794 -0.8814
12165TIP3   OH257985   3.571   0.643   4.211 -0.2958  0.5872 -0.1075
12165TIP3    H157986   3.594   0.736   4.205 -1.3553  0.9005  0.5110
12165TIP3    H257987   3.514   0.628   4.135  1.0134  0.0703 -1.0299
12166TIP3   OH257988   0.116   0.999   0.041 -0.4878  0.4396  0.0309
12166TIP3    H157989   0.185   0.933   0.038 -0.2406  0.6991 -0.0148
12166TIP3    H257990   0.103   1.017   0.135 -0.4124  0.4739  0.0348
12167TIP3   OH257991   0.413   4.688  11.332  0.4931  0.2606  0.0237
12167TIP3    H157992   0.388   4.770  11.374 -1.1676  0.7206 -1.7216
12167TIP3    H257993   0.481   4.712  11.269 -0.4353  0.4415 -0.9329
12168TIP3   OH257994   4.285   3.942   6.240 -0.6713  0.4368  0.1814
12168TIP3    H157995   4.356   3.991   6.197 -0.6400  0.7398  0.5804
12168TIP3    H257996   4.237   4.008   6.290 -1.0985  0.1897  0.1003
12169TIP3   OH257997   6.144   4.426   2.288  0.1965  0.3497 -0.2565
12169TIP3    H157998   6.085   4.351   2.277  1.1728 -0.9013  2.3254
12169TIP3    H257999   6.208   4.416   2.218 -0.9794  0.1002 -1.3417
12170TIP3   OH258000   4.404   5.505  13.610 -0.4611 -0.5843  0.1997
12170TIP3    H158001   4.370   5.445  13.677 -0.7566 -1.7867 -0.9663
12170TIP3    H258002   4.331   5.516  13.549  0.4935 -1.4058 -1.1542
12171TIP3   OH258003   5.051   3.626  11.855  0.9637  0.1023 -0.0561
12171TIP3    H158004   5.119   3.559  11.860  1.5525  0.5818 -1.1887
12171TIP3    H258005   4.995   3.597  11.783  1.5898  1.1273 -0.9872
12172TIP3   OH258006   4.338   0.605   5.100  0.2496  0.4824  0.1630
12172TIP3    H158007   4.394   0.589   5.177 -0.0304  0.9571  0.4710
12172TIP3    H258008   4.371   0.687   5.064  0.5465  0.1278 -0.3804
12173TIP3   OH258009   5.585   6.238   0.337  0.1615  0.6997 -0.2867
12173TIP3    H158010   5.672   6.278   0.344 -0.0942  0.9682  2.2082
12173TIP3    H258011   5.602   6.147   0.312  1.1890  0.6769  0.4232
12174TIP3   OH258012   6.334   6.656   1.351  0.1000  0.4505  0.1622
12174TIP3    H158013   6.408   6.626   1.403  0.5886  0.7906 -0.3138
12174TIP3    H258014   6.368   6.731   1.302 -0.3143  0.0923 -0.7096
12175TIP3   OH258015   4.987   2.935  16.046  0.0431  0.0699 -0.1307
12175TIP3    H158016   5.018   2.852  16.080 -0.2489 -0.4821 -1.1507
12175TIP3    H258017   4.899   2.946  16.083 -0.4228 -0.7065 -0.9633
12176TIP3   OH258018   0.325   5.411  12.021 -0.3004  0.1272 -0.3070
12176TIP3    H158019   0.401   5.389  11.967 -0.2234 -1.0842  0.2610
12176TIP3    H258020   0.263   5.339  12.005 -1.5358  1.3364 -1.1247
12177TIP3   OH258021   4.937   5.751  12.337 -0.1737  0.2661  0.0494
12177TIP3    H158022   4.964   5.786  12.422 -2.3028  0.1648  0.8344
12177TIP3    H258023   4.864   5.808  12.310 -0.9629 -1.0126 -0.6368
12178TIP3   OH258024   4.786   0.377  14.014 -0.0722  0.1887  0.7341
12178TIP3    H158025   4.817   0.466  13.998  1.8047 -0.6315 -0.6730
12178TIP3    H258026   4.715   0.387  14.078  0.2441  2.6394  0.8066
12179TIP3   OH258027   0.262   3.866   4.648  0.5671 -0.0536 -0.4366
12179TIP3    H158028   0.328   3.801   4.674  0.2976 -0.0560  0.2569
12179TIP3    H258029   0.263   3.930   4.718 -0.4295 -0.2465 -0.2370
12180TIP3   OH258030   2.717   3.164  15.918  0.1063  0.0851  0.0945
12180TIP3    H158031   2.780   3.135  15.984  1.0822  0.5259 -0.6088
12180TIP3    H258032   2.635   3.175  15.966  0.1684 -1.9083  0.7539
12181TIP3   OH258033   3.105   5.892  11.344  0.1868 -0.4980  0.2381
12181TIP3    H158034   3.053   5.892  11.263  0.9024 -2.8877 -0.3107
12181TIP3    H258035   3.041   5.909  11.413 -0.5451  0.9850 -0.7372
12182TIP3   OH258036   2.957   1.446   4.803 -0.0736 -0.4904 -0.3243
12182TIP3    H158037   3.005   1.511   4.753  0.1037  0.4075  0.9452
12182TIP3    H258038   2.865   1.469   4.791  0.0225  1.0434  1.3650
12183TIP3   OH258039   4.496   5.008   1.672 -0.1101 -0.3278 -0.0496
12183TIP3    H158040   4.456   5.085   1.631 -0.8091 -0.4959  0.3041
12183TIP3    H258041   4.577   5.041   1.710 -0.2564  0.1718 -0.1587
12184TIP3   OH258042   6.537   6.525  11.772  0.1408 -0.0818  0.4940
12184TIP3    H158043   6.541   6.448  11.829  2.3787 -1.3545 -1.2146
12184TIP3    H258044   6.629   6.552  11.762 -0.5422  2.6923  0.7940
12185TIP3   OH258045   4.505   2.927   0.773 -0.3039  0.1069 -0.0156
12185TIP3    H158046   4.428   2.891   0.727 -1.1555 -0.7844  1.9976
12185TIP3    H258047   4.469   2.976   0.846  1.0166 -0.8197  1.3251
12186TIP3   OH258048   4.164   4.741  10.433  0.5380  0.1072  0.2360
12186TIP3    H158049   4.074   4.744  10.464  0.5531  0.4477  0.2485
12186TIP3    H258050   4.173   4.654  10.395  0.0865  0.2131 -0.1246
12187TIP3   OH258051   4.537   4.976   5.632  0.2278  0.3296 -0.0511
12187TIP3    H158052   4.579   4.915   5.692  1.4999  0.2416 -0.9731
12187TIP3    H258053   4.458   4.931   5.602 -0.3026  0.2847  1.3357
12188TIP3   OH258054   2.380   5.715  11.495  0.5895 -0.4751 -0.1244
12188TIP3    H158055   2.415   5.651  11.432  0.9932  0.3688 -0.7688
12188TIP3    H258056   2.456   5.743  11.546  0.2954 -1.0153  0.6336
12189TIP3   OH258057   5.389   5.904  13.407  0.2189 -0.5893  0.3711
12189TIP3    H158058   5.461   5.847  13.383  0.1280 -0.5638  0.0430
12189TIP3    H258059   5.349   5.862  13.483  0.1499 -0.9594  0.1278
12190TIP3   OH258060   3.572   2.565   3.812 -0.1271 -0.2257  1.2137
12190TIP3    H158061   3.585   2.616   3.733 -1.8953 -0.3510  0.8128
12190TIP3    H258062   3.546   2.478   3.781 -0.5090 -0.3767  1.9340
12191TIP3   OH258063   2.995   5.920  12.613  0.5500 -0.3663 -0.0991
12191TIP3    H158064   2.982   5.980  12.686 -0.4545 -0.1210 -0.4557
12191TIP3    H258065   2.925   5.855  12.622  0.3646 -0.2886 -0.8771
12192TIP3   OH258066   4.694   4.725  15.013  0.4358 -0.5819 -0.3518
12192TIP3    H158067   4.723   4.795  14.954 -0.8096  0.7611  0.5613
12192TIP3    H258068   4.751   4.733  15.089 -0.3502  0.1179  0.1768
12193TIP3   OH258069   3.199   5.252  14.607 -0.4688 -0.3222 -0.2168
12193TIP3    H158070   3.288   5.250  14.573 -0.3251  1.5551 -0.0547
12193TIP3    H258071   3.157   5.324  14.560 -2.4870 -2.2632 -1.5711
12194TIP3   OH258072   0.007   0.996  13.522  0.4042  0.3350 -0.0571
12194TIP3    H158073   0.057   0.922  13.487 -0.3060 -0.1767 -0.0177
12194TIP3    H258074  -0.012   0.971  13.613 -1.4752 -0.3261 -0.5902
12195TIP3   OH258075   5.222   0.308   4.358 -0.1743 -0.2980 -0.3286
12195TIP3    H158076   5.283   0.286   4.288  1.7929 -0.5423  1.3759
12195TIP3    H258077   5.141   0.261   4.335  0.0378  0.4741 -2.9283
12196TIP3   OH258078   3.983   0.017  12.264 -0.1769  0.1925  0.3218
12196TIP3    H158079   4.040   0.060  12.200  0.2672  0.6842  1.0223
12196TIP3    H258080   3.989  -0.076  12.244  0.1846  0.3176 -0.1706
12197TIP3   OH258081   5.600   6.386   3.015  0.4572  0.5684 -0.2957
12197TIP3    H158082   5.528   6.361   3.073  0.1370  1.1711 -0.4216
12197TIP3    H258083   5.669   6.416   3.073  0.8588 -0.5932 -0.1396
12198TIP3   OH258084   3.419   3.424  12.304  0.6049  0.0156  0.4929
12198TIP3    H158085   3.488   3.439  12.369 -1.5273 -0.3187  3.0262
12198TIP3    H258086   3.384   3.337  12.327 -0.7228  0.2225 -0.6282
12199TIP3   OH258087   5.831   6.364   5.721 -0.7154  0.0498  0.0793
12199TIP3    H158088   5.819   6.386   5.629 -0.6935  2.6896  0.6153
12199TIP3    H258089   5.742   6.365   5.758 -0.6576 -0.2182  0.2249
12200TIP3   OH258090   0.496   5.170  11.594 -0.1894  0.6748  0.0830
12200TIP3    H158091   0.548   5.092  11.610 -1.1254  0.0683  0.2340
12200TIP3    H258092   0.501   5.184  11.499  0.8361  1.0557  0.1819
12201TIP3   OH258093   4.605   4.674   5.264 -0.2143 -0.3524 -0.0830
12201TIP3    H158094   4.619   4.733   5.190  0.4686  0.2900  0.5485
12201TIP3    H258095   4.660   4.597   5.244 -1.0000 -0.7434 -0.8373
12202TIP3   OH258096   5.491   3.528   6.689  0.5191  0.3303 -0.5633
12202TIP3    H158097   5.460   3.527   6.598 -2.2684 -1.3884  0.2561
12202TIP3    H258098   5.496   3.435   6.713 -0.5483  0.7638  1.5306
12203TIP3   OH258099   2.878   0.583  14.636 -0.4529  0.0794  0.0175
12203TIP3    H158100   2.938   0.509  14.642 -1.6072 -0.8579  0.4380
12203TIP3    H258101   2.819   0.573  14.711 -0.5667  1.4948  0.1485
12204TIP3   OH258102   3.499   1.151   4.994  0.0334 -0.4932 -0.2926
12204TIP3    H158103   3.565   1.180   4.930 -0.5868  1.2598 -0.1896
12204TIP3    H258104   3.415   1.171   4.952 -0.3856  0.6340  0.9921
12205TIP3   OH258105   4.764   6.006  11.003  0.3066  0.0263  0.3957
12205TIP3    H158106   4.744   5.938  10.939  0.0592  1.4057 -1.0488
12205TIP3    H258107   4.749   6.088  10.956 -0.8821  1.1005  2.5400
12206TIP3   OH258108   4.677   3.943   4.977 -0.6778 -0.0463  0.1900
12206TIP3    H158109   4.624   4.018   4.950 -0.4646  0.2612  0.6302
12206TIP3    H258110   4.615   3.886   5.023 -0.8201 -0.1037 -0.0674
12207TIP3   OH258111   4.094   6.629  12.617  0.3919  0.0271 -0.0801
12207TIP3    H158112   4.012   6.650  12.573  0.1605 -2.1525 -0.7945
12207TIP3    H258113   4.068   6.572  12.690  1.2550 -0.8275 -0.4151
12208TIP3   OH258114   0.682   1.989  16.399 -0.3030 -0.6832 -0.4495
12208TIP3    H158115   0.602   2.013  16.446  0.9410 -1.5120  2.2552
12208TIP3    H258116   0.715   1.912  16.445  1.6973 -0.8157 -1.9619
12209TIP3   OH258117   4.322   0.029   4.951  0.1145 -0.1522 -0.1941
12209TIP3    H158118   4.411   0.035   4.984  0.2374 -1.9705 -0.0662
12209TIP3    H258119   4.303   0.115   4.915  1.9915  0.2137 -0.3830
12210TIP3   OH258120   4.059   2.889  11.913  0.3870  0.1073 -0.2528
12210TIP3    H158121   4.146   2.919  11.939 -0.2256  0.9205  0.9812
12210TIP3    H258122   4.058   2.897  11.818  1.8216 -0.3988 -0.3316
12211TIP3   OH258123   0.853   6.769  16.650 -0.4104  0.1349 -0.2250
12211TIP3    H158124   0.794   6.831  16.607 -0.3976  0.3264  0.0310
12211TIP3    H258125   0.901   6.728  16.578 -2.1164 -1.3512 -0.5605
12212TIP3   OH258126   0.425   0.023   5.142 -0.4273 -0.3882 -0.0250
12212TIP3    H158127   0.379   0.021   5.058 -1.7154 -2.1432  0.6549
12212TIP3    H258128   0.473  -0.060   5.145  0.9766  0.4191  0.2628
12213TIP3   OH258129   4.226   3.299  12.902  0.3670 -0.4861 -0.8658
12213TIP3    H158130   4.309   3.341  12.922 -1.1129  1.8471  1.0083
12213TIP3    H258131   4.223   3.294  12.807  1.7234  1.3950 -1.0536
12214TIP3   OH258132   1.165   6.754   0.517  0.3968 -0.0005  0.5914
12214TIP3    H158133   1.158   6.764   0.422  3.8642  1.2313  0.3274
12214TIP3    H258134   1.144   6.662   0.533 -2.8091  0.3420 -0.9351
12215TIP3   OH258135   6.093   1.044   3.243 -0.0433 -0.1298 -0.1404
12215TIP3    H158136   6.168   1.065   3.299 -1.1149  0.6984  1.0326
12215TIP3    H258137   6.131   0.993   3.171  1.3632 -1.4000  1.4150
12216TIP3   OH258138   4.751   3.574   4.806  0.0857  0.0441 -0.0589
12216TIP3    H158139   4.810   3.508   4.771 -0.2605  0.6528 -1.9219
12216TIP3    H258140   4.790   3.658   4.781 -0.8859  0.4711 -0.2340
12217TIP3   OH258141   4.418   4.758   2.436 -0.3706  0.3617  0.0387
12217TIP3    H158142   4.474   4.708   2.376  1.6878  1.9624  0.5210
12217TIP3    H258143   4.332   4.757   2.395  0.3980 -0.6980 -1.6454
12218TIP3   OH258144   3.448   0.074  11.791  0.0384 -0.5953  0.1601
12218TIP3    H158145   3.352   0.071  11.794 -0.0136  0.9812  0.8658
12218TIP3    H258146   3.468   0.116  11.708  0.0563  0.3350  0.6197
12219TIP3   OH258147   5.343   0.690   0.402  0.7131 -0.1253  0.3096
12219TIP3    H158148   5.359   0.784   0.395  1.1079 -0.2134 -0.0294
12219TIP3    H258149   5.250   0.680   0.383  1.1787 -0.0583 -2.3637
12220TIP3   OH258150   3.073   1.027  14.886 -0.7136  0.3904 -0.0134
12220TIP3    H158151   3.096   0.936  14.867  1.8082  1.2115 -1.4185
12220TIP3    H258152   3.145   1.058  14.941 -0.2657  2.1595 -1.5101
12221TIP3   OH258153   3.255   0.268  11.325  0.1297 -0.4447  0.3309
12221TIP3    H158154   3.261   0.176  11.298 -1.0623 -0.1200 -1.1441
12221TIP3    H258155   3.199   0.309  11.259  0.1914  1.2335  1.2734
12222TIP3   OH258156   2.695   1.250   4.350  0.0372  0.1469  0.1965
12222TIP3    H158157   2.743   1.327   4.380 -0.4421  0.3056  0.5681
12222TIP3    H258158   2.760   1.197   4.305  0.3853  0.7469 -0.0222
12223TIP3   OH258159   4.034   3.205  14.056  0.8142 -0.5257 -0.5070
12223TIP3    H158160   3.957   3.159  14.087  0.9634  1.1213  2.6887
12223TIP3    H258161   4.099   3.136  14.040  0.7163 -1.6511  3.1189
12224TIP3   OH258162   5.430   3.451  17.070 -0.4698  0.4621 -0.7116
12224TIP3    H158163   5.447   3.402  16.989 -1.1664  1.6173 -1.5926
12224TIP3    H258164   5.355   3.506  17.049  0.6087  2.3011  0.0436
12225TIP3   OH258165   2.425   2.598  12.566  0.3617  0.0975  0.6284
12225TIP3    H158166   2.405   2.687  12.536 -2.9201 -0.6854  0.1799
12225TIP3    H258167   2.460   2.610  12.654  0.5302  1.8547  0.3582
12226TIP3   OH258168   2.840   2.759   4.210 -0.3853 -0.3174 -0.0830
12226TIP3    H158169   2.760   2.713   4.183 -0.3985  0.7019 -2.0013
12226TIP3    H258170   2.903   2.736   4.142  0.9417 -0.9911  1.3367
12227TIP3   OH258171   3.450   0.852  15.875 -0.1402  0.5949  0.2412
12227TIP3    H158172   3.524   0.862  15.935 -0.6517  2.0347  0.6936
12227TIP3    H258173   3.441   0.758  15.862  0.9710  0.3400  1.1766
12228TIP3   OH258174   0.990   5.718   3.314 -0.4748  0.2729 -0.2277
12228TIP3    H158175   1.030   5.638   3.282 -1.6887 -1.1807  1.6963
12228TIP3    H258176   1.056   5.758   3.371 -0.4223 -0.1323 -0.0084
12229TIP3   OH258177   5.108   4.287   3.685 -0.1810  0.1178  0.3291
12229TIP3    H158178   5.120   4.380   3.664  2.2113 -0.2764 -0.3034
12229TIP3    H258179   5.014   4.278   3.698 -0.4278  2.7584  1.0151
12230TIP3   OH258180   5.561   0.959  16.445  0.2545 -0.4860  0.4517
12230TIP3    H158181   5.475   0.983  16.481  0.1329 -0.5863  0.2312
12230TIP3    H258182   5.605   1.043  16.433 -0.0963 -0.3799 -0.1312
12231TIP3   OH258183   2.575   4.316  13.181 -0.0557  0.4951  0.1647
12231TIP3    H158184   2.628   4.384  13.139  1.4528 -0.1835  0.9109
12231TIP3    H258185   2.552   4.256  13.111 -0.6394  1.2773 -0.3315
12232TIP3   OH258186   6.227   5.950   3.710 -0.0513 -0.2851  0.2644
12232TIP3    H158187   6.196   5.999   3.787 -1.3698 -0.9021  0.1612
12232TIP3    H258188   6.147   5.932   3.661  0.5559 -1.5724 -0.2754
12233TIP3   OH258189   4.795   1.812   1.183  0.2629 -0.0336  0.6378
12233TIP3    H158190   4.714   1.841   1.142 -0.0082 -0.3788  0.9239
12233TIP3    H258191   4.779   1.817   1.277  0.1158 -1.3095  0.7035
12234TIP3   OH258192   5.429   3.747   3.826  0.1891 -0.0499 -0.6310
12234TIP3    H158193   5.348   3.701   3.844  0.3452  0.0256  0.3205
12234TIP3    H258194   5.431   3.818   3.891  2.3471 -1.7265  1.3015
12235TIP3   OH258195   5.208   1.280  13.480  0.1144 -0.1163 -0.0234
12235TIP3    H158196   5.227   1.245  13.393  2.1171 -0.1632  0.3860
12235TIP3    H258197   5.119   1.251  13.499  0.6099 -2.4434 -0.9358
12236TIP3   OH258198   4.321   3.300  12.210  0.3453  0.3144  0.4582
12236TIP3    H158199   4.362   3.230  12.159 -1.5739  0.6227 -1.6869
12236TIP3    H258200   4.334   3.379  12.158 -2.8138  0.4240 -0.4107
12237TIP3   OH258201   1.307   5.750  16.268 -0.3102 -0.0085 -0.3876
12237TIP3    H158202   1.311   5.837  16.308 -1.2614 -0.1495  0.0408
12237TIP3    H258203   1.398   5.719  16.268  0.0664  1.0666 -0.7480
12238TIP3   OH258204   4.669   0.733   0.455  0.0288  0.1085  0.5905
12238TIP3    H158205   4.681   0.673   0.528  0.8666 -0.6187 -0.1204
12238TIP3    H258206   4.658   0.819   0.495  0.4050 -0.2930  1.5598
12239TIP3   OH258207   2.497   1.671   2.400 -0.3018  0.4986 -0.2349
12239TIP3    H158208   2.571   1.611   2.403 -1.1034 -0.4912  0.5070
12239TIP3    H258209   2.526   1.749   2.446  0.6690  0.5927 -0.9863
12240TIP3   OH258210   5.378   0.211   6.236 -0.2511  0.1745 -0.5357
12240TIP3    H158211   5.408   0.213   6.327  0.0888 -0.6723 -0.6164
12240TIP3    H258212   5.311   0.279   6.231 -0.1957  0.3022  0.3215
12241TIP3   OH258213   5.874   0.965   5.126 -0.4513 -0.0284  0.4520
12241TIP3    H158214   5.911   1.013   5.052 -2.1568  0.7351  0.0348
12241TIP3    H258215   5.917   0.880   5.125  0.7688  0.5795 -0.3792
12242TIP3   OH258216   6.093   6.772   1.255  0.2624 -0.4254  0.0915
12242TIP3    H158217   6.170   6.744   1.304  0.0094 -0.3001  0.5755
12242TIP3    H258218   6.021   6.762   1.317  0.4891  4.1221  1.5057
12243TIP3   OH258219   0.472   1.297  13.966 -0.3208 -0.1146 -0.3748
12243TIP3    H158220   0.485   1.370  13.905 -0.6794  0.7885  0.5967
12243TIP3    H258221   0.394   1.253  13.934 -0.8571  0.7141 -0.2490
12244TIP3   OH258222   6.602   2.554  12.932  0.8507 -0.3098 -0.1162
12244TIP3    H158223   6.689   2.588  12.909  0.7943  1.3039  1.8054
12244TIP3    H258224   6.603   2.549  13.028 -1.4052  0.4280 -0.0060
12245TIP3   OH258225   2.683   3.255   4.853 -0.0563 -0.2561 -0.0547
12245TIP3    H158226   2.761   3.302   4.824 -0.4258  0.6980  0.4261
12245TIP3    H258227   2.711   3.209   4.932  0.1807 -0.4331 -0.2399
12246TIP3   OH258228   3.743   1.633   6.533  0.3476  0.4262  0.5206
12246TIP3    H158229   3.795   1.620   6.612  1.4122  0.8157 -0.0925
12246TIP3    H258230   3.759   1.724   6.508  1.0176 -0.0225 -0.8040
12247TIP3   OH258231   2.665   3.041  15.063 -0.3387 -0.1321 -0.4101
12247TIP3    H158232   2.676   2.963  15.118 -0.0473 -0.4222 -0.8687
12247TIP3    H258233   2.622   3.008  14.984  0.6277 -0.0046 -1.0045
12248TIP3   OH258234   5.491   4.857  16.280  0.3477 -0.5318 -0.8319
12248TIP3    H158235   5.406   4.856  16.235  0.2191  1.6695 -0.7663
12248TIP3    H258236   5.478   4.803  16.358 -1.1594  0.0800 -0.6224
12249TIP3   OH258237   6.554   6.299   2.062  0.3590 -0.1307 -0.4423
12249TIP3    H158238   6.583   6.370   2.119  1.3620 -1.7974  1.2561
12249TIP3    H258239   6.523   6.231   2.123  0.3775 -1.5373 -1.9442
12250TIP3   OH258240   3.299   3.155   5.646  0.1436  0.0483 -0.5245
12250TIP3    H158241   3.285   3.208   5.568  0.0741 -0.2987 -0.7474
12250TIP3    H258242   3.393   3.164   5.665  0.4777 -1.0774 -1.5310
12251TIP3   OH258243   5.664   2.240  10.977 -0.6293 -0.1853  0.3784
12251TIP3    H158244   5.695   2.318  11.023  0.9571 -1.3530  1.3934
12251TIP3    H258245   5.667   2.264  10.884 -0.2012  0.9519  0.6726
12252TIP3   OH258246   0.040   3.594  11.626  0.1721 -0.6033  0.1773
12252TIP3    H158247  -0.034   3.590  11.687 -0.6129 -1.1408 -0.7612
12252TIP3    H258248   0.028   3.676  11.579 -0.0398 -0.8526 -0.2130
12253TIP3   OH258249   2.784   1.484   2.723  0.5271 -0.4168 -0.1310
12253TIP3    H158250   2.707   1.485   2.667  2.2328 -1.0188 -2.6396
12253TIP3    H258251   2.768   1.554   2.787 -1.6803  0.0313 -1.0769
12254TIP3   OH258252   4.117   6.666  14.169 -0.3831 -0.3158 -0.7568
12254TIP3    H158253   4.082   6.592  14.119  2.2308 -0.8141 -2.0203
12254TIP3    H258254   4.208   6.674  14.140 -0.1206  2.4386  0.4787
12255TIP3   OH258255   3.925   1.063   0.753  0.4994 -0.3858 -0.3521
12255TIP3    H158256   3.871   0.988   0.779 -0.1117  0.5190  1.0830
12255TIP3    H258257   3.934   1.054   0.658 -0.1803 -1.8646 -0.2972
12256TIP3   OH258258   0.932   1.738   4.645 -0.7607 -0.0016  0.5277
12256TIP3    H158259   0.987   1.752   4.568 -0.1993 -1.1960  0.6968
12256TIP3    H258260   0.873   1.667   4.620 -1.3027  0.3210  0.8448
12257TIP3   OH258261   0.289   6.163   3.602  0.2782  0.5962 -0.3450
12257TIP3    H158262   0.294   6.170   3.507  0.9261  0.4715 -0.3218
12257TIP3    H258263   0.364   6.213   3.634 -0.3676  1.3084  0.1357
12258TIP3   OH258264   6.539   4.030  14.171  0.3005 -0.2174  0.0176
12258TIP3    H158265   6.501   4.027  14.084  1.3952  0.2880 -0.4988
12258TIP3    H258266   6.623   4.075  14.159  0.4463 -0.0955  1.3346
12259TIP3   OH258267   1.538   4.184  12.084  0.4342 -0.4258 -0.6782
12259TIP3    H158268   1.575   4.178  12.172 -2.1563 -0.2968  0.5121
12259TIP3    H258269   1.509   4.095  12.063 -1.6700  0.0363 -0.0415
12260TIP3   OH258270   2.033   0.965   2.667  0.1940 -0.6848  0.5546
12260TIP3    H158271   1.973   0.892   2.650 -2.0290  1.0538  0.6125
12260TIP3    H258272   2.056   0.998   2.581 -0.2612 -0.3311  0.5652
12261TIP3   OH258273   2.630   4.706   4.458  0.1590 -0.3373 -0.1265
12261TIP3    H158274   2.591   4.792   4.441 -0.5836 -0.5415  0.5010
12261TIP3    H258275   2.724   4.724   4.462 -0.0888  0.9296  2.3877
12262TIP3   OH258276   5.098   5.531  16.355 -0.0611 -0.5467 -0.3595
12262TIP3    H158277   5.117   5.616  16.315  0.2547 -1.7293 -2.9444
12262TIP3    H258278   5.184   5.489  16.363 -0.3364 -1.1146 -0.3415
12263TIP3   OH258279   4.787   4.733   5.615 -0.2090 -0.6450 -0.2615
12263TIP3    H158280   4.813   4.802   5.554 -0.7148 -1.0518 -0.9489
12263TIP3    H258281   4.794   4.652   5.564 -0.8988 -0.9663  0.1386
12264TIP3   OH258282   0.418   2.785   2.337 -0.7969  0.2134  0.1476
12264TIP3    H158283   0.486   2.743   2.284 -0.3360  0.2191  0.7168
12264TIP3    H258284   0.338   2.739   2.313 -0.5133 -0.1183 -0.1860
12265TIP3   OH258285   4.810   6.231  16.650  0.1496 -0.0194 -0.1710
12265TIP3    H158286   4.864   6.285  16.593 -0.2046 -0.2289 -0.7071
12265TIP3    H258287   4.847   6.143  16.641 -0.3298 -0.1767 -0.5960
12266TIP3   OH258288   5.503   4.716  16.544 -0.4726  0.6704 -1.0662
12266TIP3    H158289   5.599   4.716  16.540 -0.2022 -1.7608  1.7878
12266TIP3    H258290   5.477   4.663  16.469  0.5013  0.4752 -1.2880
12267TIP3   OH258291   3.199   6.642   3.187  0.5268 -0.5544  0.2155
12267TIP3    H158292   3.248   6.649   3.268  1.5037 -0.8463 -0.3326
12267TIP3    H258293   3.203   6.550   3.164  1.0669 -0.3330 -0.6397
12268TIP3   OH258294   5.515   4.263  17.104  0.4802 -0.2364  0.7027
12268TIP3    H158295   5.445   4.327  17.118  1.7982  1.1335  1.3683
12268TIP3    H258296   5.575   4.276  17.178  2.2049 -0.2873 -0.6212
12269TIP3   OH258297   3.667   5.683  17.159  0.0436 -0.2254 -0.2430
12269TIP3    H158298   3.705   5.745  17.221 -1.4583  0.7217 -0.2039
12269TIP3    H258299   3.724   5.687  17.083 -0.8643  2.4684 -0.8819
12270TIP3   OH258300   1.379   1.641   2.446 -0.4595  0.5389  0.1127
12270TIP3    H158301   1.373   1.735   2.461  1.0546  0.6259  0.3182
12270TIP3    H258302   1.472   1.624   2.431 -0.7286 -0.8955 -0.1506
12271TIP3   OH258303   6.461   3.042  13.047 -0.0320 -0.1571  0.1682
12271TIP3    H158304   6.372   3.076  13.051 -0.4064 -1.1546  0.7395
12271TIP3    H258305   6.472   3.013  12.956 -0.4160 -0.3549  0.1840
12272TIP3   OH258306   5.580   0.964   3.838  0.4137  0.0324 -0.2185
12272TIP3    H158307   5.498   0.973   3.886  1.6980 -1.3423  2.4577
12272TIP3    H258308   5.555   0.922   3.756 -1.5944 -0.0165  0.3538
12273TIP3   OH258309   0.988   2.727  16.298 -0.4117 -0.1478 -0.3850
12273TIP3    H158310   1.005   2.773  16.216  0.4396 -0.6951 -0.5280
12273TIP3    H258311   1.012   2.789  16.366  0.2944 -0.2033 -0.5732
12274TIP3   OH258312   1.768   3.845   2.006 -0.3304  0.0213 -0.1868
12274TIP3    H158313   1.808   3.850   1.919 -0.6929 -2.0365 -0.5379
12274TIP3    H258314   1.837   3.869   2.067  0.0433  1.1037 -1.0136
12275TIP3   OH258315   3.651   3.557   2.280 -0.1146  0.5608  0.4250
12275TIP3    H158316   3.561   3.586   2.290 -0.8195 -1.3965  0.0762
12275TIP3    H258317   3.651   3.502   2.202  2.1697  3.4059 -1.7907
12276TIP3   OH258318   4.342   4.193   0.525  0.0329 -0.0771  0.3574
12276TIP3    H158319   4.314   4.281   0.500 -0.2080 -0.7737 -2.0939
12276TIP3    H258320   4.274   4.135   0.490  2.2299 -1.4984 -1.8941
12277TIP3   OH258321   4.403   6.335   5.405  0.1616  0.4295 -0.2499
12277TIP3    H158322   4.426   6.258   5.352 -1.8319  0.5942 -1.4701
12277TIP3    H258323   4.318   6.313   5.443  1.5381  0.3128  3.0427
12278TIP3   OH258324   6.630   5.379   4.730  0.1624  0.0027  0.1332
12278TIP3    H158325   6.666   5.351   4.645 -1.0723 -1.9112  0.1742
12278TIP3    H258326   6.591   5.464   4.713 -0.6634 -0.6446 -1.4316
12279TIP3   OH258327   0.585   2.543  12.727 -0.1271  0.1134  0.2121
12279TIP3    H158328   0.646   2.502  12.666 -0.3103  0.3757 -0.1545
12279TIP3    H258329   0.502   2.546  12.679 -0.7450 -1.2874  1.1118
12280TIP3   OH258330   4.171   5.824  16.342  0.1420 -0.1903  0.1061
12280TIP3    H158331   4.108   5.799  16.275  0.0286  0.9368 -0.2206
12280TIP3    H258332   4.254   5.832  16.295  0.0817  0.5043  0.1045
12281TIP3   OH258333   3.187   6.096  10.281 -0.7151 -0.0842  0.7495
12281TIP3    H158334   3.181   6.036  10.355 -0.7520  0.9818  1.6436
12281TIP3    H258335   3.119   6.161  10.297  0.7862  1.5017  1.0745
12282TIP3   OH258336   3.173   5.996  10.564 -0.2921  0.3579  0.3078
12282TIP3    H158337   3.226   5.936  10.615  1.0032  0.3181 -1.0275
12282TIP3    H258338   3.204   6.083  10.589  1.0729  0.3124 -1.1178
12283TIP3   OH258339   1.587   1.973   1.990  0.0195 -0.3315  0.4598
12283TIP3    H158340   1.501   1.962   2.031  0.2481  1.5738  1.5806
12283TIP3    H258341   1.576   2.048   1.931  0.6706 -0.7032 -0.1503
12284TIP3   OH258342   5.901   6.166  16.244 -0.0672  0.0654 -0.0287
12284TIP3    H158343   5.980   6.191  16.291  0.8067 -1.3333 -0.6989
12284TIP3    H258344   5.926   6.088  16.194 -1.7793 -0.2203 -0.5041
12285TIP3   OH258345   0.779   4.589  12.239 -0.5974  0.3004 -0.6346
12285TIP3    H158346   0.855   4.620  12.288 -0.7255 -1.1839  0.5818
12285TIP3    H258347   0.723   4.666  12.229  0.3153  1.0470 -0.1057
12286TIP3   OH258348   2.626   5.754   3.269  0.2858 -0.4419  0.1277
12286TIP3    H158349   2.626   5.685   3.202  0.6772 -0.5036  0.1887
12286TIP3    H258350   2.535   5.760   3.296 -0.2803  1.0091 -1.8574
12287TIP3   OH258351   0.064   2.760   0.179  0.1874  0.0041 -0.6164
12287TIP3    H158352   0.036   2.689   0.238  0.8394 -0.0580 -0.3706
12287TIP3    H258353   0.019   2.838   0.213  0.9522  0.0719  0.3044
12288TIP3   OH258354   3.224   0.777  14.166 -0.4403  0.1968  0.0245
12288TIP3    H158355   3.177   0.697  14.189 -0.7861  0.7304  1.2479
12288TIP3    H258356   3.156   0.841  14.146 -0.1976  0.5005  0.1491
12289TIP3   OH258357   1.028   3.543   0.312 -0.1999 -0.2088 -0.2983
12289TIP3    H158358   1.086   3.542   0.236  0.6586  1.1715  0.2969
12289TIP3    H258359   1.082   3.509   0.384 -0.5585 -0.2088 -0.0260
12290TIP3   OH258360   2.367   5.199  11.705 -0.5037  0.1666  0.1561
12290TIP3    H158361   2.327   5.115  11.682  3.2651 -1.4990 -1.1214
12290TIP3    H258362   2.360   5.252  11.626 -0.1604 -0.1464 -0.0868
12291TIP3   OH258363   2.968   3.355  11.330 -0.0027  0.6897  0.6763
12291TIP3    H158364   2.927   3.425  11.280  0.2671  1.6147  1.6964
12291TIP3    H258365   2.895   3.307  11.369 -0.2264 -0.2335 -0.8046
12292TIP3   OH258366   4.403   6.172   4.891 -0.1982  0.1508  0.0090
12292TIP3    H158367   4.352   6.197   4.814 -1.3702 -0.6438  0.4905
12292TIP3    H258368   4.425   6.080   4.875  1.7737  0.6606 -0.5278
12293TIP3   OH258369   6.362   5.152  15.532  0.8195 -0.5107  0.1388
12293TIP3    H158370   6.399   5.205  15.462  0.7238  1.2068  1.3138
12293TIP3    H258371   6.268   5.151  15.515  0.5862  1.3520  1.1230
12294TIP3   OH258372   6.531   2.999   3.459  0.0511  0.2772  0.0214
12294TIP3    H158373   6.465   3.055   3.418  0.2323 -0.3517 -1.1526
12294TIP3    H258374   6.547   3.040   3.544 -0.9474  1.1314 -0.1832
12295TIP3   OH258375   0.852   3.163   1.778 -0.1021  0.3168 -0.0256
12295TIP3    H158376   0.756   3.156   1.774 -0.3284  2.7222  0.0498
12295TIP3    H258377   0.882   3.073   1.766 -2.3657 -0.5386  0.1119
12296TIP3   OH258378   0.732   4.878  14.266  0.4029 -0.0305 -0.0174
12296TIP3    H158379   0.808   4.872  14.323  0.4300 -0.9996 -0.1530
12296TIP3    H258380   0.741   4.964  14.224  1.4627 -0.1650 -0.0903
12297TIP3   OH258381   5.547   5.284   1.066 -0.4653 -0.6992 -0.0783
12297TIP3    H158382   5.498   5.253   0.990 -0.7930 -1.2747  0.3621
12297TIP3    H258383   5.527   5.377   1.072  1.4588 -0.0656 -2.1359
12298TIP3   OH258384   5.740   1.967   4.418 -0.0056 -0.2240  0.4436
12298TIP3    H158385   5.687   2.042   4.392 -0.3931  0.1896  2.2863
12298TIP3    H258386   5.825   2.005   4.444  0.4479 -0.6391 -0.4005
12299TIP3   OH258387   6.496   5.653  11.986  0.4332  0.0579 -0.0642
12299TIP3    H158388   6.525   5.744  11.977  0.8308 -0.1462 -0.9528
12299TIP3    H258389   6.536   5.623  12.068  0.1878  0.7150  0.3081
12300TIP3   OH258390   6.129   2.519  14.787  0.7648 -0.1112 -0.0906
12300TIP3    H158391   6.143   2.458  14.860 -0.4893  0.6505  0.8404
12300TIP3    H258392   6.053   2.483  14.741  1.0716 -0.1591 -0.5696
12301TIP3   OH258393   2.249   4.794   3.140 -0.8633  0.8311 -1.0857
12301TIP3    H158394   2.249   4.796   3.236 -2.4647 -0.3020 -1.0066
12301TIP3    H258395   2.166   4.835   3.116 -0.9851  0.1267 -1.9242
12302TIP3   OH258396   5.905   0.420  10.950  0.1844  0.3589  0.3034
12302TIP3    H158397   5.971   0.361  10.988 -1.2878 -1.0291  0.7982
12302TIP3    H258398   5.837   0.427  11.016 -0.0181  2.0817 -0.0459
12303TIP3   OH258399   0.691   3.888   5.621  0.1939  0.0119 -0.4250
12303TIP3    H158400   0.605   3.891   5.663 -0.2174 -2.6616 -0.9330
12303TIP3    H258401   0.681   3.940   5.541 -1.6743 -2.0459 -1.6266
12304TIP3   OH258402   3.262   6.419  12.001  0.6481  0.0314  0.2363
12304TIP3    H158403   3.179   6.407  11.956  0.5640  0.9855  0.1215
12304TIP3    H258404   3.263   6.351  12.069 -0.8117  0.8111  1.0804
12305TIP3   OH258405   4.477   1.803  15.614  0.1790 -0.3182  0.0827
12305TIP3    H158406   4.553   1.823  15.669 -0.0697 -2.2546  1.2085
12305TIP3    H258407   4.408   1.861  15.647  0.6427  0.1229  0.2985
12306TIP3   OH258408   1.285   0.472   4.545  0.1781 -0.2146  0.0821
12306TIP3    H158409   1.243   0.544   4.498 -0.5131 -0.8201 -0.2424
12306TIP3    H258410   1.318   0.415   4.477 -2.4584 -2.0701  0.2041
12307TIP3   OH258411   5.335   3.308  15.445  0.3415 -0.0537 -0.2311
12307TIP3    H158412   5.290   3.344  15.521  0.9013  0.3766 -0.0931
12307TIP3    H258413   5.428   3.313  15.468  0.4251 -2.8479  0.3679
12308TIP3   OH258414   0.226   5.838  14.632  0.2062  0.2070  0.2454
12308TIP3    H158415   0.316   5.868  14.622  1.2729 -2.7630  0.1780
12308TIP3    H258416   0.202   5.864  14.721  1.0333  1.1729  0.2130
12309TIP3   OH258417   5.437   2.849   1.572 -0.3268 -0.3267 -0.2982
12309TIP3    H158418   5.500   2.871   1.641 -1.5946 -1.3374  1.2365
12309TIP3    H258419   5.431   2.929   1.519  0.0924  0.7403  1.2175
12310TIP3   OH258420   1.274   0.922  11.388 -0.2060  0.1086 -0.4322
12310TIP3    H158421   1.283   0.952  11.298  0.7842  0.4216 -0.2428
12310TIP3    H258422   1.221   0.843  11.382 -1.1039  0.7504 -1.1607
12311TIP3   OH258423   3.551   1.750  10.925  0.2669  0.2053  0.5950
12311TIP3    H158424   3.621   1.799  10.966 -0.2147  2.0057 -0.6536
12311TIP3    H258425   3.540   1.789  10.839 -1.8466 -0.4247  0.5118
12312TIP3   OH258426   1.884   0.241  16.397  0.4665  0.0626 -0.7751
12312TIP3    H158427   1.965   0.247  16.346  0.2586 -0.2753 -1.1401
12312TIP3    H258428   1.817   0.215  16.335 -0.3138  2.0760 -0.8503
12313TIP3   OH258429   0.832   1.932   5.180 -0.7023 -0.1952  0.1105
12313TIP3    H158430   0.871   1.851   5.148  2.0813  0.2554  1.9645
12313TIP3    H258431   0.791   1.908   5.263 -0.7675  0.0996  0.1675
12314TIP3   OH258432   1.129   2.356   4.172  0.8235  0.4120  0.7300
12314TIP3    H158433   1.182   2.379   4.249  0.7535  0.9005  0.6389
12314TIP3    H258434   1.133   2.261   4.167  1.6276  0.4387  0.7699
12315TIP3   OH258435   3.752   1.578  14.102  0.3375  0.4539 -0.4598
12315TIP3    H158436   3.658   1.581  14.085 -0.3460  0.6996  2.6651
12315TIP3    H258437   3.777   1.669  14.119  0.8015  0.2231  0.1469
12316TIP3   OH258438   6.461   0.317   4.919 -0.1717 -0.0141  0.0410
12316TIP3    H158439   6.491   0.329   4.829  0.5932  0.8357  0.3828
12316TIP3    H258440   6.509   0.241   4.951 -0.0714 -0.0170 -0.1185
12317TIP3   OH258441   4.297   5.494   5.007 -0.4067 -0.0823  0.2602
12317TIP3    H158442   4.308   5.588   4.993 -1.3329 -0.0109 -0.1104
12317TIP3    H258443   4.211   5.475   4.968  0.2905 -1.2950 -0.7675
12318TIP3   OH258444   6.801   5.085   3.570 -0.5825  0.2720  0.4098
12318TIP3    H158445   6.864   5.157   3.578 -1.1610  0.7143  1.0627
12318TIP3    H258446   6.743   5.111   3.498 -0.8826  0.5363  0.7435
12319TIP3   OH258447   2.648   0.530  15.563  0.6516  0.0567 -0.0166
12319TIP3    H158448   2.614   0.490  15.642  1.1200  1.1723  0.7777
12319TIP3    H258449   2.702   0.603  15.594 -0.8992  1.8815 -1.3696
12320TIP3   OH258450   3.490   0.852   0.668  0.5014 -0.3201 -0.1626
12320TIP3    H158451   3.549   0.909   0.618 -0.7701 -0.5797 -2.0769
12320TIP3    H258452   3.406   0.857   0.621 -0.9372 -0.2387  2.2443
12321TIP3   OH258453   1.917   3.369  13.649  0.7404  0.2838 -0.4088
12321TIP3    H158454   1.855   3.366  13.721 -0.1659 -0.8119 -1.1981
12321TIP3    H258455   1.892   3.445  13.597 -1.5133 -1.3846 -1.9979
12322TIP3   OH258456   3.833   0.843  14.781 -0.4041 -0.1355  0.0609
12322TIP3    H158457   3.795   0.903  14.845 -0.0716  0.7227 -0.5307
12322TIP3    H258458   3.759   0.790  14.752 -0.8415  0.4525  0.0831
12323TIP3   OH258459   3.883   1.057  17.024 -0.1906 -0.0197 -0.4519
12323TIP3    H158460   3.936   1.100  16.956 -0.9945  0.8697 -0.5369
12323TIP3    H258461   3.801   1.106  17.024  0.7063  1.8307  2.9705
12324TIP3   OH258462   2.539   4.587  15.419 -0.5566  0.1948  0.0827
12324TIP3    H158463   2.630   4.615  15.424 -0.0604 -1.3527  0.1869
12324TIP3    H258464   2.495   4.656  15.369  0.7872  0.6680 -0.4879
12325TIP3   OH258465   0.264   2.960   0.184 -0.2041 -0.5135  0.0172
12325TIP3    H158466   0.299   2.893   0.242 -0.2020 -0.7527 -0.2614
12325TIP3    H258467   0.293   2.934   0.097  2.5240  1.5097  0.1827
12326TIP3   OH258468   4.637   6.108  11.671  0.0066  0.1710  0.1889
12326TIP3    H158469   4.612   6.190  11.629  0.5680  0.6563  0.7668
12326TIP3    H258470   4.562   6.085  11.727 -0.4557 -0.1128 -0.5392
12327TIP3   OH258471   3.149   1.634  16.776  0.1168 -0.2062  0.0098
12327TIP3    H158472   3.190   1.566  16.829  0.2495 -1.2300 -1.3520
12327TIP3    H258473   3.060   1.642  16.811  0.0001 -1.3110 -0.0238
12328TIP3   OH258474   2.869   5.380   4.068  0.3928  0.6907 -0.2813
12328TIP3    H158475   2.844   5.289   4.054 -0.2830  0.8094  0.0949
12328TIP3    H258476   2.960   5.385   4.040  0.4450 -0.1085 -0.2694
12329TIP3   OH258477   1.354   2.324   4.878  0.2348 -0.3492  0.0275
12329TIP3    H158478   1.384   2.394   4.936 -1.2543 -0.1757  0.6211
12329TIP3    H258479   1.376   2.355   4.790 -1.7921  1.6339  0.1386
12330TIP3   OH258480   2.610   3.480   5.017 -0.0769  0.1503 -0.3430
12330TIP3    H158481   2.621   3.400   4.965 -0.0644 -1.1108  1.4918
12330TIP3    H258482   2.545   3.456   5.083 -0.6816  1.9415 -0.2382
12331TIP3   OH258483   3.975   1.413  12.909 -0.2389  0.0071 -0.7029
12331TIP3    H158484   3.882   1.422  12.930  0.0656 -0.3813  0.9499
12331TIP3    H258485   4.019   1.407  12.994  1.4457  1.4323 -1.4046
12332TIP3   OH258486   1.122   2.411  15.247  0.1193 -0.2445 -0.1015
12332TIP3    H158487   1.193   2.383  15.188  0.3455 -2.6446  1.1433
12332TIP3    H258488   1.168   2.446  15.324 -0.1414  1.0237 -0.5018
12333TIP3   OH258489   1.855   4.269  14.940  0.3726 -0.0905 -0.6287
12333TIP3    H158490   1.930   4.236  14.988  1.7155  0.5516 -2.1685
12333TIP3    H258491   1.869   4.364  14.935 -0.6701  0.0761 -0.7395
12334TIP3   OH258492   4.187   4.649   0.314 -0.1368  0.1516  0.0715
12334TIP3    H158493   4.206   4.743   0.314 -0.4084  0.2073 -0.0219
12334TIP3    H258494   4.213   4.619   0.227  4.6223 -0.8315  1.5355
12335TIP3   OH258495   5.244   1.378   5.146  0.9303  0.5617  0.0181
12335TIP3    H158496   5.319   1.402   5.092  1.8715 -0.4110  0.8659
12335TIP3    H258497   5.248   1.438   5.221  2.9065 -1.6071  1.8047
12336TIP3   OH258498   4.883   1.388  11.898  0.4080 -0.7227 -0.4437
12336TIP3    H158499   4.875   1.294  11.883  0.9858 -0.6741 -1.1477
12336TIP3    H258500   4.793   1.421  11.898  0.2811 -0.9855 -2.2917
12337TIP3   OH258501   5.115   2.772  12.938 -0.6570 -0.1368 -0.0873
12337TIP3    H158502   5.051   2.841  12.952 -0.3767 -0.0353  0.7678
12337TIP3    H258503   5.142   2.746  13.026 -0.2017 -0.8113 -0.4156
12338TIP3   OH258504   6.363   3.174   2.127  0.0926  0.2794 -0.3394
12338TIP3    H158505   6.436   3.208   2.179  0.2279  0.9055 -0.9258
12338TIP3    H258506   6.348   3.241   2.061  0.3377 -0.7763 -1.4985
12339TIP3   OH258507   5.502   5.729   1.602 -0.4629  0.1510  0.4268
12339TIP3    H158508   5.440   5.801   1.591 -0.8706 -0.1928  0.4760
12339TIP3    H258509   5.561   5.758   1.671 -1.5203 -0.1669  1.4974
12340TIP3   OH258510   5.241   5.976   1.755  0.1566  0.1416  0.5451
12340TIP3    H158511   5.201   6.062   1.764 -0.5532 -0.2719  1.4194
12340TIP3    H258512   5.316   5.978   1.814  2.7128  1.5862 -2.4548
12341TIP3   OH258513   5.873   3.189   1.958 -0.7287  0.3846  0.6347
12341TIP3    H158514   5.875   3.102   1.998 -0.8843  0.6561  1.2518
12341TIP3    H258515   5.903   3.176   1.868 -0.4649 -0.2561  0.8151
12342TIP3   OH258516   6.256   2.294   1.040 -0.5954 -0.0161 -0.3604
12342TIP3    H158517   6.181   2.234   1.048  0.3752 -1.3427 -0.7867
12342TIP3    H258518   6.289   2.280   0.951 -1.4020  2.5096 -1.1313
12343TIP3   OH258519   6.338   4.739   0.102 -0.5568 -0.1338 -0.4176
12343TIP3    H158520   6.410   4.743   0.165  0.2382  1.4276 -1.3549
12343TIP3    H258521   6.260   4.759   0.153 -0.1882 -0.6752  0.3901
12344TIP3   OH258522   6.022   1.015  15.863 -0.2001 -0.2278  0.0506
12344TIP3    H158523   5.972   1.094  15.882  0.1238  0.4725 -1.8153
12344TIP3    H258524   6.111   1.036  15.891 -0.6612 -1.0708  2.3374
12345TIP3   OH258525   4.233   2.732   2.636 -0.1551 -0.5862 -0.2668
12345TIP3    H158526   4.250   2.700   2.547  2.4804 -0.7660  0.2272
12345TIP3    H258527   4.141   2.759   2.634 -0.5610 -1.8451 -2.6435
12346TIP3   OH258528   6.342   5.168  14.856 -0.0992  0.6567  0.3227
12346TIP3    H158529   6.410   5.112  14.821 -1.0754  0.1444 -0.8224
12346TIP3    H258530   6.383   5.214  14.929  1.1530 -0.3942  0.2944
12347TIP3   OH258531   6.106   5.673  16.004  0.2115  0.5085  0.0681
12347TIP3    H158532   6.071   5.648  15.919  0.5439  0.2255  0.0101
12347TIP3    H258533   6.116   5.590  16.051  0.9383  0.5646  0.0261
12348TIP3   OH258534   0.743   6.829  15.299  0.0211 -0.1454  0.4292
12348TIP3    H158535   0.734   6.770  15.373 -0.3316  0.1113  0.5898
12348TIP3    H258536   0.672   6.806  15.240 -0.2840  0.2953  0.6165
12349TIP3   OH258537   3.493   0.405  16.563 -0.0470 -0.7425  0.0660
12349TIP3    H158538   3.569   0.419  16.620  0.1600 -0.9833 -0.1486
12349TIP3    H258539   3.419   0.399  16.623  0.4060 -2.8521  0.4662
12350TIP3   OH258540   4.910   2.601  12.891  0.5559  0.2757  0.8812
12350TIP3    H158541   4.983   2.663  12.890 -1.2752  2.5817 -1.5037
12350TIP3    H258542   4.937   2.531  12.832  1.9178 -0.4180  2.2423
12351TIP3   OH258543   0.485   3.865   6.810 -0.5390  0.1393  0.2340
12351TIP3    H158544   0.476   3.929   6.740 -0.3239  1.7160  1.5835
12351TIP3    H258545   0.570   3.883   6.849 -0.9353 -0.2465  1.3278
12352TIP3   OH258546   6.091   3.376  12.237 -0.0887 -0.3496  0.7090
12352TIP3    H158547   6.123   3.369  12.327 -0.4336  0.2664  0.8836
12352TIP3    H258548   6.125   3.298  12.193  1.5126  0.1820  0.9326
12353TIP3   OH258549   2.019   3.268   1.394 -0.2531  0.5770  0.0779
12353TIP3    H158550   2.024   3.173   1.391  2.0752  0.6593 -0.8386
12353TIP3    H258551   2.105   3.296   1.425 -0.8019  2.3930  0.1053
12354TIP3   OH258552   1.977   3.086  11.960 -0.2554 -0.1984  0.2645
12354TIP3    H158553   2.014   3.149  11.898  0.0063 -1.4100 -0.8609
12354TIP3    H258554   2.005   3.001  11.927 -1.5415 -0.9771  1.0971
12355TIP3   OH258555   2.040   4.115  15.633  0.0767 -0.2622  0.0869
12355TIP3    H158556   1.948   4.127  15.656  0.5346 -1.5646  3.0291
12355TIP3    H258557   2.071   4.203  15.611 -1.5776  0.3765  0.1553
12356TIP3   OH258558   1.982   2.552   5.316  0.1930  0.3644  0.1787
12356TIP3    H158559   1.947   2.535   5.228  0.5235 -0.3547  0.1780
12356TIP3    H258560   1.918   2.611   5.356 -2.3051 -2.6329  0.9868
12357TIP3   OH258561   5.888   1.736   0.565  0.5510  0.3236 -0.0607
12357TIP3    H158562   5.881   1.814   0.510 -0.9413  0.4587  0.2676
12357TIP3    H258563   5.964   1.752   0.620 -0.1642  1.9184  0.5417
12358TIP3   OH258564   6.098   3.678   3.520  0.0693  0.2872  0.4222
12358TIP3    H158565   6.141   3.740   3.578 -1.3365  1.2099  0.5200
12358TIP3    H258566   6.008   3.672   3.554 -0.9236  1.1744 -1.8629
12359TIP3   OH258567   3.866   4.104   2.251  0.9813  0.0590  0.0798
12359TIP3    H158568   3.938   4.160   2.220 -0.4103  2.4348  0.8327
12359TIP3    H258569   3.871   4.110   2.346  0.6570 -0.9805  0.1692
12360TIP3   OH258570   0.642   4.623  13.513 -0.1277  0.3744  0.1931
12360TIP3    H158571   0.660   4.717  13.518 -1.3559  0.6294  0.0942
12360TIP3    H258572   0.712   4.588  13.458 -0.4474  1.4701 -0.9590
12361TIP3   OH258573   3.665   2.421   2.122  0.6893 -0.4333  0.4575
12361TIP3    H158574   3.738   2.360   2.118  1.2561  0.2523 -3.0956
12361TIP3    H258575   3.605   2.390   2.054  0.4877  2.2565 -0.7098
12362TIP3   OH258576   6.557   2.975  12.435  0.2209 -0.0186 -0.1462
12362TIP3    H158577   6.598   2.998  12.518 -0.3491 -0.4804  0.2720
12362TIP3    H258578   6.585   3.044  12.375  0.6157  0.3377  0.4331
12363TIP3   OH258579   0.948   5.068  16.142  0.3133 -0.0326  0.5994
12363TIP3    H158580   0.959   5.095  16.233  0.7800  1.5411  0.1102
12363TIP3    H258581   0.856   5.085  16.123 -0.1317 -1.6676  1.1503
12364TIP3   OH258582   2.213   0.217  15.067  0.0196  0.0142 -0.0320
12364TIP3    H158583   2.248   0.241  15.153 -1.5664 -0.2769  0.7130
12364TIP3    H258584   2.279   0.158  15.030  0.6690  0.0690  1.0151
12365TIP3   OH258585   1.561   1.612  15.225  0.0398  0.5881 -0.1424
12365TIP3    H158586   1.608   1.541  15.270 -0.0027  0.0369 -0.9400
12365TIP3    H258587   1.473   1.577  15.211 -0.1906  1.0744  0.0816
12366TIP3   OH258588   5.519   3.216  17.184 -0.3365  0.1423 -0.4994
12366TIP3    H158589   5.544   3.206  17.092 -4.2924 -1.4835 -1.5995
12366TIP3    H258590   5.455   3.287  17.184  0.1698  0.6485  1.2058
12367TIP3   OH258591   4.313   6.531  11.843 -0.4997  0.2222  0.2562
12367TIP3    H158592   4.249   6.578  11.897  1.2467  2.8484  0.2026
12367TIP3    H258593   4.398   6.560  11.875  0.6331  0.6098 -2.7938
12368TIP3   OH258594   3.787   3.524   4.371 -0.3559  0.4804 -0.0268
12368TIP3    H158595   3.842   3.506   4.295 -0.6330  1.9555 -0.6082
12368TIP3    H258596   3.720   3.585   4.339 -0.6107  0.9573  1.3417
12369TIP3   OH258597   6.625   4.454   5.429  0.5387 -0.2398 -0.3023
12369TIP3    H158598   6.616   4.464   5.523 -1.3337  0.6921 -0.5347
12369TIP3    H258599   6.588   4.368   5.410  0.8089 -0.3770 -0.2205
12370TIP3   OH258600   2.670   1.893  12.694 -0.0373  0.5906  0.5074
12370TIP3    H158601   2.618   1.814  12.675 -2.2174  1.9361  0.4928
12370TIP3    H258602   2.757   1.860  12.714 -0.8830 -1.8315  0.5697
12371TIP3   OH258603   6.623   1.667   0.692  0.1692 -0.3320 -0.2429
12371TIP3    H158604   6.671   1.584   0.695  1.3322  0.3410  0.5409
12371TIP3    H258605   6.651   1.708   0.610 -0.0019 -0.4722 -0.3728
12372TIP3   OH258606   1.994   1.796   1.051 -0.2058 -0.2689 -0.0078
12372TIP3    H158607   2.035   1.879   1.074 -0.1103  0.0312 -1.2183
12372TIP3    H258608   1.988   1.749   1.135 -1.3988  1.4380  0.9196
12373TIP3   OH258609   1.871   4.069   0.213 -0.1739 -0.3161 -0.1914
12373TIP3    H158610   1.888   4.121   0.291 -0.9716  0.2848 -0.4037
12373TIP3    H258611   1.914   3.985   0.230  1.7120  0.6221 -0.1310
12374TIP3   OH258612   4.838   6.767  11.261  0.1491  0.3381 -0.4086
12374TIP3    H158613   4.916   6.745  11.209 -0.6601 -0.5101 -1.3235
12374TIP3    H258614   4.834   6.698  11.327  0.8605  1.0980  0.4537
12375TIP3   OH258615   0.817   5.414   2.356  0.1842  0.2117  0.1879
12375TIP3    H158616   0.732   5.458   2.361 -0.5788 -1.2019  0.3018
12375TIP3    H258617   0.796   5.326   2.324  1.5892 -0.2311  0.4139
12376TIP3   OH258618   5.900   4.198  16.175 -0.6401  0.6692 -0.0546
12376TIP3    H158619   5.811   4.234  16.170 -0.8144  0.3997  1.0021
12376TIP3    H258620   5.893   4.125  16.236  0.4029  0.9439  0.4042
12377TIP3   OH258621   5.249   2.684  12.463  0.2343  0.2253 -0.1099
12377TIP3    H158622   5.332   2.646  12.493  0.4685  1.4221  0.7825
12377TIP3    H258623   5.260   2.778  12.472 -1.5050  0.3940  0.7997
12378TIP3   OH258624   2.175   4.217   3.310  0.5210 -0.1436 -0.3113
12378TIP3    H158625   2.120   4.273   3.365  0.8739  0.1496 -0.2538
12378TIP3    H258626   2.175   4.132   3.356  1.2277  0.2395  0.4279
12379TIP3   OH258627   3.048   0.559  12.996 -0.4238  0.2925  0.1431
12379TIP3    H158628   3.115   0.519  13.051 -1.3989 -1.1493  0.3386
12379TIP3    H258629   2.968   0.511  13.016 -1.5695  2.0361 -0.0017
12380TIP3   OH258630   3.859   1.488  11.948  0.0450 -0.4645 -0.0786
12380TIP3    H158631   3.939   1.450  11.913  0.6213  1.2095 -0.6862
12380TIP3    H258632   3.799   1.491  11.874 -1.0912 -2.8776  0.6615
12381TIP3   OH258633   3.610   0.737  16.401 -0.1992 -0.0293  0.0934
12381TIP3    H158634   3.528   0.699  16.432  0.5862 -0.5827  1.5572
12381TIP3    H258635   3.664   0.662  16.376  0.3594  0.2552  0.4241
12382TIP3   OH258636   0.639   2.255  15.530 -0.0742  0.1247 -0.1257
12382TIP3    H158637   0.604   2.337  15.494 -0.9741 -1.1185 -2.2846
12382TIP3    H258638   0.636   2.267  15.625 -1.0305  2.2420 -0.3621
12383TIP3   OH258639   2.769   4.656   5.904  0.0451 -0.2831 -0.5480
12383TIP3    H158640   2.845   4.665   5.961  0.9055  2.3709 -1.9577
12383TIP3    H258641   2.793   4.587   5.843  0.6443 -0.5571 -0.0166
12384TIP3   OH258642   5.948   1.656  17.188  0.1942  0.3065 -0.0468
12384TIP3    H158643   5.921   1.625  17.274 -0.1453  0.7681  0.0204
12384TIP3    H258644   5.866   1.685  17.147  0.5194  1.3470  0.0021
12385TIP3   OH258645   0.455   4.923  14.617  0.4670  0.5207 -0.0524
12385TIP3    H158646   0.415   5.009  14.627  0.9631  0.8886 -1.0595
12385TIP3    H258647   0.540   4.931  14.660  0.6759  0.6617 -0.4870
12386TIP3   OH258648   1.486   1.372  15.502 -0.2370  0.3831  0.1394
12386TIP3    H158649   1.508   1.289  15.544 -0.7311  0.9082  1.4920
12386TIP3    H258650   1.549   1.380  15.430 -0.0209 -1.0319  0.1493
12387TIP3   OH258651   3.339   6.647  12.652  0.6116 -0.4192 -0.4353
12387TIP3    H158652   3.325   6.593  12.574  0.0846 -3.0765  1.3757
12387TIP3    H258653   3.361   6.585  12.721 -1.3897  1.5179  2.1601
12388TIP3   OH258654   6.301   3.674   1.942 -0.3259 -0.3665  0.2212
12388TIP3    H158655   6.238   3.705   2.007  1.6653  1.4221  1.4289
12388TIP3    H258656   6.367   3.627   1.993  1.1215  0.8003 -0.5119
12389TIP3   OH258657   1.627   4.671   1.260  0.3635  0.1419 -0.1615
12389TIP3    H158658   1.721   4.689   1.257  0.4358 -0.0555  0.8267
12389TIP3    H258659   1.620   4.577   1.275  0.0094  0.2038  0.0715
12390TIP3   OH258660   2.065   3.879   4.295 -0.8443  0.3447 -0.0735
12390TIP3    H158661   2.086   3.910   4.207 -0.9002 -1.4609 -0.7687
12390TIP3    H258662   1.985   3.827   4.283 -1.0613  0.3848  1.1108
12391TIP3   OH258663   2.742   0.170  14.261 -0.1071 -0.2329 -0.5979
12391TIP3    H158664   2.749   0.216  14.178 -0.2417 -0.6807 -0.8611
12391TIP3    H258665   2.830   0.135  14.277 -0.2095 -0.6068 -0.8270
12392TIP3   OH258666   6.293   5.061   2.889  0.2486  0.5671 -0.3282
12392TIP3    H158667   6.271   4.979   2.934 -2.6353  1.7413  0.6125
12392TIP3    H258668   6.348   5.108   2.952  0.9267 -0.1240 -0.3871
12393TIP3   OH258669   4.696   2.230   4.259 -0.0424 -0.4851 -0.7235
12393TIP3    H158670   4.677   2.137   4.271  1.0516 -0.5975  0.2328
12393TIP3    H258671   4.777   2.232   4.209  1.9688 -0.1433  2.3137
12394TIP3   OH258672   5.244   4.220  13.032  0.0002 -0.4960  0.4297
12394TIP3    H158673   5.172   4.161  13.009 -0.2956  0.2424 -0.5771
12394TIP3    H258674   5.309   4.207  12.963 -0.0108  0.2657  0.2726
12395TIP3   OH258675   4.650   6.776   5.555 -0.1977 -0.0629  0.0695
12395TIP3    H158676   4.606   6.702   5.512  1.7441 -1.2633  0.0033
12395TIP3    H258677   4.676   6.742   5.640 -0.9349  1.1910  0.8260
12396TIP3   OH258678   0.998   1.312  12.637 -0.6556  0.0707  0.2040
12396TIP3    H158679   1.032   1.222  12.641 -0.7626  0.0055 -0.2575
12396TIP3    H258680   0.903   1.302  12.645 -0.8560 -0.0467 -1.9106
12397TIP3   OH258681   5.726   3.201   0.379  0.1213 -0.1707  0.0825
12397TIP3    H158682   5.711   3.164   0.292  0.4441 -1.9174  0.7311
12397TIP3    H258683   5.760   3.289   0.363  2.0371 -1.1583 -1.5925
12398TIP3   OH258684   5.919   3.451  13.625  0.1361  0.3531  0.2569
12398TIP3    H158685   5.933   3.471  13.532 -1.4207 -1.8032 -0.4968
12398TIP3    H258686   5.831   3.483  13.644  1.0767  2.4391  1.5772
12399TIP3   OH258687   1.193   4.087  16.506 -0.1658  0.0574 -0.0788
12399TIP3    H158688   1.189   4.177  16.473 -0.4177  0.7065  1.6004
12399TIP3    H258689   1.246   4.040  16.442  0.5671  1.5681 -0.6279
12400TIP3   OH258690   2.813   4.503   5.571 -0.2555  0.4335  0.0923
12400TIP3    H158691   2.845   4.566   5.506 -0.4834 -1.3558 -1.8690
12400TIP3    H258692   2.864   4.424   5.554 -1.8297 -0.7503  0.6500
12401TIP3   OH258693   2.289   4.945  11.672  0.1663 -0.6145 -0.2850
12401TIP3    H158694   2.359   4.931  11.608 -0.9452 -0.0350 -1.6794
12401TIP3    H258695   2.237   4.865  11.669 -0.5321 -0.1431 -0.9541
12402TIP3   OH258696   0.876   3.438   1.673 -0.2159  0.0772  0.2689
12402TIP3    H158697   0.899   3.430   1.581 -0.6054 -0.7197  0.2246
12402TIP3    H258698   0.888   3.350   1.709  1.5035  0.7164  1.3756
12403TIP3   OH258699   3.916   5.822   4.358  0.0363  0.3317  0.0823
12403TIP3    H158700   3.967   5.742   4.346  1.3601  1.1253  0.2078
12403TIP3    H258701   3.845   5.815   4.293  0.7748 -0.4256 -0.6672
12404TIP3   OH258702   3.605   4.330  12.777 -0.9429 -0.2696 -0.1643
12404TIP3    H158703   3.518   4.337  12.817 -0.2098  0.8064  1.3209
12404TIP3    H258704   3.645   4.254  12.820 -0.5940  0.1552  0.2603
12405TIP3   OH258705   6.418   0.419   3.289  0.6849 -0.7397  0.6424
12405TIP3    H158706   6.367   0.470   3.351  1.7372 -0.3140  1.1867
12405TIP3    H258707   6.459   0.351   3.342 -1.4171 -2.7871 -0.1998
12406TIP3   OH258708   5.054   1.280   2.394  0.5524  0.1600  0.5203
12406TIP3    H158709   5.061   1.255   2.302 -1.4726  1.1564  0.0299
12406TIP3    H258710   5.131   1.242   2.435  0.6147 -1.8351 -1.2507
12407TIP3   OH258711   0.574   1.088  11.969  0.3216 -0.5967 -0.0473
12407TIP3    H158712   0.513   1.148  11.925  1.6289 -0.0702 -1.2224
12407TIP3    H258713   0.580   1.122  12.058 -1.5351 -1.0207  0.2687
12408TIP3   OH258714   0.958   1.911   1.719 -0.3118 -0.2733 -0.2177
12408TIP3    H158715   1.015   1.889   1.793  0.8829 -0.1677 -1.0701
12408TIP3    H258716   0.924   1.826   1.690 -0.3944 -0.3667  0.1386
12409TIP3   OH258717   2.481   2.149  13.105  0.1084  0.2887  0.4808
12409TIP3    H158718   2.544   2.084  13.137 -0.3758 -1.3733 -1.7314
12409TIP3    H258719   2.496   2.152  13.011 -3.2808 -0.3737 -0.1829
12410TIP3   OH258720   6.480   1.331  13.342 -0.6164 -0.3630  0.5804
12410TIP3    H158721   6.404   1.274  13.331  0.4020 -1.7858  0.6526
12410TIP3    H258722   6.473   1.362  13.433 -0.7761 -0.9937  0.7905
12411TIP3   OH258723   5.602   3.386   4.537 -0.5320  0.8162 -0.2342
12411TIP3    H158724   5.513   3.350   4.537 -0.7585  1.3680 -0.7058
12411TIP3    H258725   5.633   3.374   4.627 -1.0581  0.5649 -0.0831
12412TIP3   OH258726   3.934   5.028  16.557 -0.4663 -0.1964  0.2757
12412TIP3    H158727   3.955   5.036  16.650  0.3571 -1.8115  0.2541
12412TIP3    H258728   3.929   4.934  16.541 -0.5032  0.0513 -1.3336
12413TIP3   OH258729   2.541   4.455  14.742 -0.1186  0.2893 -0.2698
12413TIP3    H158730   2.480   4.529  14.740  1.4252  1.6210 -0.1678
12413TIP3    H258731   2.524   4.414  14.827 -1.0748  0.4351 -0.3718
12414TIP3   OH258732   2.718   2.265  15.371 -0.1316  0.1803  0.0109
12414TIP3    H158733   2.682   2.247  15.284  1.2403  0.7481 -0.7199
12414TIP3    H258734   2.768   2.187  15.393 -0.4159  0.0672  0.2504
12415TIP3   OH258735   3.073   5.327   5.316 -0.0730 -0.2850 -0.4179
12415TIP3    H158736   3.148   5.282   5.276  0.6228  0.9489 -0.5425
12415TIP3    H258737   3.111   5.405   5.356 -1.3335  0.4671 -0.6505
12416TIP3   OH258738   5.564   5.633   5.735 -0.5642 -0.2437 -0.3351
12416TIP3    H158739   5.591   5.658   5.823  0.0327 -0.1597 -0.5425
12416TIP3    H258740   5.611   5.692   5.677  1.0236 -1.9142 -0.8418
12417TIP3   OH258741   0.400   1.230  15.605 -0.1402  0.1572 -0.4535
12417TIP3    H158742   0.446   1.195  15.528  0.0403 -2.6038  0.7909
12417TIP3    H258743   0.309   1.237  15.577  0.1818  0.7593 -1.3976
12418TIP3   OH258744   4.990   0.393  15.178 -0.6798  0.1966 -0.4313
12418TIP3    H158745   4.957   0.303  15.175 -0.6011  0.1654 -0.3714
12418TIP3    H258746   5.002   0.411  15.271  0.2780 -0.0965 -0.4842
12419TIP3   OH258747   2.145   3.795   1.111  0.2041 -0.3587  0.6375
12419TIP3    H158748   2.212   3.828   1.050  0.9797 -3.4994 -0.4105
12419TIP3    H258749   2.069   3.779   1.055 -1.3552  2.5607  1.7141
12420TIP3   OH258750   2.829   2.307  14.840  0.3575 -0.1492  0.3709
12420TIP3    H158751   2.758   2.247  14.864  1.9064 -1.5787  1.6507
12420TIP3    H258752   2.819   2.381  14.899 -1.0365  0.4749 -0.6013
12421TIP3   OH258753   3.486   3.776  14.658  0.9994  0.1983 -0.0929
12421TIP3    H158754   3.521   3.811  14.576  0.9380 -0.6237 -0.4869
12421TIP3    H258755   3.392   3.766  14.642  1.1775 -1.2658 -0.4498
12422TIP3   OH258756   6.130   4.733   0.270  0.0290 -0.1176  0.1200
12422TIP3    H158757   6.044   4.769   0.292 -1.0269 -1.1920 -1.9332
12422TIP3    H258758   6.136   4.653   0.323 -0.9318 -0.8289 -0.8031
12423TIP3   OH258759   4.008   0.267  14.386  0.0305  0.3333  0.1842
12423TIP3    H158760   4.081   0.327  14.403  1.1234 -0.9263  0.0775
12423TIP3    H258761   4.049   0.181  14.382 -1.4094 -0.3404 -0.4035
12424TIP3   OH258762   4.502   1.953  14.784  0.0676  0.4708  0.2670
12424TIP3    H158763   4.583   1.930  14.739 -0.1451 -0.4182  0.3336
12424TIP3    H258764   4.453   2.005  14.720 -0.7436 -1.7413 -0.9881
12425TIP3   OH258765   0.800   5.866  15.929  0.5298  0.0069 -0.4505
12425TIP3    H158766   0.780   5.802  15.860 -3.1587 -0.0862  0.4808
12425TIP3    H258767   0.784   5.951  15.888  2.6410  0.2442 -0.8730
12426TIP3   OH258768   3.254   2.913   2.874 -0.6376  0.1396  0.0679
12426TIP3    H158769   3.211   2.924   2.959 -0.4407 -1.0146  0.3387
12426TIP3    H258770   3.192   2.948   2.811 -0.5050  1.6315  0.7300
12427TIP3   OH258771   5.471   3.166  13.208  0.0550 -0.5540 -0.1211
12427TIP3    H158772   5.426   3.155  13.292 -1.9951 -1.4703 -1.2803
12427TIP3    H258773   5.443   3.251  13.176 -1.7633 -1.5430 -1.3082
12428TIP3   OH258774   4.856   4.608   5.161  0.5229  0.6834  0.4556
12428TIP3    H158775   4.825   4.562   5.083  2.6793  2.4726 -1.6239
12428TIP3    H258776   4.867   4.539   5.226 -1.6618 -0.8421 -0.6817
12429TIP3   OH258777   1.550   4.110   3.540  0.1457 -0.1495  0.2003
12429TIP3    H158778   1.631   4.079   3.499  0.0404 -0.2409  0.0578
12429TIP3    H258779   1.561   4.205   3.547  1.0242 -0.3464  1.8570
12430TIP3   OH258780   6.413   5.266   5.542  0.1571 -0.4203 -0.5635
12430TIP3    H158781   6.478   5.204   5.575 -0.4347 -0.9000 -0.2796
12430TIP3    H258782   6.462   5.347   5.527  1.1567 -1.2447 -1.9311
12431TIP3   OH258783   4.281   6.322  15.662 -0.1489 -0.0985  0.2199
12431TIP3    H158784   4.375   6.306  15.670  0.2035  0.3031 -2.3864
12431TIP3    H258785   4.275   6.413  15.631 -1.4467  0.1068  1.0048
12432TIP3   OH258786   0.116   1.245   0.497 -0.1780  0.3317 -0.1559
12432TIP3    H158787   0.205   1.235   0.464  0.6985  3.3007  1.0135
12432TIP3    H258788   0.063   1.189   0.439  2.1808 -0.1679 -1.9956
12433TIP3   OH258789   5.936   0.762  14.381  0.4710  0.3744 -0.0030
12433TIP3    H158790   5.940   0.753  14.476  1.5106  2.4567  0.1983
12433TIP3    H258791   5.875   0.835  14.366  0.6014  0.3066 -0.9260
12434TIP3   OH258792   6.444   5.631   2.616  0.0871  0.1199  0.2495
12434TIP3    H158793   6.491   5.698   2.566 -0.4204  0.1113 -0.2605
12434TIP3    H258794   6.365   5.614   2.564 -0.3813 -0.0072  0.9848
12435TIP3   OH258795   6.653   0.963  14.540 -0.3502 -0.3143  0.1941
12435TIP3    H158796   6.711   1.011  14.480  0.7986 -1.2289  0.5450
12435TIP3    H258797   6.573   0.949  14.489 -0.5719  1.6007 -0.0528
12436TIP3   OH258798   3.383   3.843   0.991 -0.0656  0.0479  0.4069
12436TIP3    H158799   3.401   3.906   0.922  3.1558  1.1681  2.0665
12436TIP3    H258800   3.385   3.894   1.072  0.7482 -1.8286  1.6567
12437TIP3   OH258801   4.391   1.163   5.701  0.4712  0.2317  0.2774
12437TIP3    H158802   4.348   1.083   5.670  0.0996  0.9621 -1.1862
12437TIP3    H258803   4.395   1.153   5.796 -0.7806 -0.9360  0.2382
12438TIP3   OH258804   5.729   3.439   5.449  0.2756 -0.2272  0.6064
12438TIP3    H158805   5.643   3.414   5.416  0.5988  0.6095 -0.9476
12438TIP3    H258806   5.716   3.526   5.486  0.6524  0.3384 -0.5636
12439TIP3   OH258807   0.109   1.195   5.484 -0.5595 -0.1741 -0.0566
12439TIP3    H158808   0.138   1.246   5.560  0.4665 -2.2170  1.0286
12439TIP3    H258809   0.029   1.152   5.513 -1.3401  0.6789 -0.9064
12440TIP3   OH258810   1.990   3.539   4.442 -0.6787  0.1210  0.6230
12440TIP3    H158811   1.990   3.613   4.382 -0.5677 -0.0206  0.4487
12440TIP3    H258812   2.083   3.515   4.452 -0.7582 -0.3978  0.1783
12441TIP3   OH258813   3.574   4.364  14.091  0.3601  0.1031 -0.0496
12441TIP3    H158814   3.604   4.355  14.181  1.2005 -0.2430 -0.3534
12441TIP3    H258815   3.513   4.439  14.092 -1.0315 -0.9921  1.1299
12442TIP3   OH258816   2.366   0.523   2.603  0.1270  0.5510  0.4962
12442TIP3    H158817   2.421   0.489   2.673 -2.3250 -1.6297  1.5278
12442TIP3    H258818   2.339   0.610   2.634  1.1839  0.7238  0.9799
12443TIP3   OH258819   0.028   3.264  15.073  0.2339 -0.2500 -0.2010
12443TIP3    H158820   0.020   3.227  15.161  1.0415  0.3782  0.1467
12443TIP3    H258821   0.122   3.272  15.059  0.0982  0.2049 -0.8868
12444TIP3   OH258822   4.599   0.059   4.124 -0.2911  0.0423 -0.1427
12444TIP3    H158823   4.533   0.089   4.186  0.6511  1.9996 -0.0143
12444TIP3    H258824   4.675   0.037   4.178  0.3791  1.3210 -0.5133
12445TIP3   OH258825   5.076   1.787  12.739 -0.3017 -0.4421  0.4359
12445TIP3    H158826   5.023   1.817  12.812 -0.7966 -1.2537  0.4224
12445TIP3    H258827   5.158   1.835  12.747 -0.4702 -0.3032  1.3447
12446TIP3   OH258828   1.980   2.096  11.270  0.5953 -0.5168 -0.0189
12446TIP3    H158829   2.006   2.087  11.362 -0.2926 -0.1405  0.2850
12446TIP3    H258830   2.023   2.177  11.241 -0.7907  0.5198  0.7004
12447TIP3   OH258831   3.895   0.311  15.589 -0.1512  0.0967 -0.1305
12447TIP3    H158832   3.900   0.406  15.600 -0.7583  0.1451 -0.2670
12447TIP3    H258833   3.819   0.284  15.641  0.1935 -0.3560  0.1535
12448TIP3   OH258834   4.079   5.206  13.222 -0.0848  0.6297  0.3648
12448TIP3    H158835   4.054   5.158  13.143 -0.0784  1.4294 -0.1445
12448TIP3    H258836   4.161   5.165  13.250  0.2234  0.7019 -0.3890
12449TIP3   OH258837   5.687   1.280  15.635  0.3591  0.0728 -0.0656
12449TIP3    H158838   5.760   1.340  15.649  0.9247 -0.8099  0.8953
12449TIP3    H258839   5.713   1.229  15.557 -0.0578  0.9478 -0.7947
12450TIP3   OH258840   5.244   0.796  11.048  0.1068  0.1429  0.5046
12450TIP3    H158841   5.209   0.883  11.069 -1.9914  1.2136 -5.3162
12450TIP3    H258842   5.337   0.810  11.034 -0.2934  1.7379 -0.9165
12451TIP3   OH258843   5.087   3.416   0.958 -0.9240  0.6529 -0.2440
12451TIP3    H158844   5.116   3.507   0.954  2.0595 -0.1344  1.1116
12451TIP3    H258845   5.081   3.397   1.052  0.0475 -0.9686 -0.4798
12452TIP3   OH258846   2.926   1.673  13.979 -0.7959  0.5722 -0.0238
12452TIP3    H158847   2.897   1.758  14.012 -0.3682  0.1142  1.6720
12452TIP3    H258848   2.978   1.694  13.901 -0.4608  1.8943  0.5215
12453TIP3   OH258849   4.558   5.822  14.926  0.5097 -0.7311  0.0561
12453TIP3    H158850   4.637   5.867  14.955  0.1069  0.0536 -0.0558
12453TIP3    H258851   4.586   5.774  14.848  1.0153 -0.9377  0.3580
12454TIP3   OH258852   2.081   0.276  12.920 -0.1485  0.0015  0.0707
12454TIP3    H158853   2.122   0.232  12.995 -1.1351 -1.3116 -0.1195
12454TIP3    H258854   1.991   0.292  12.948 -0.3345  0.1320 -0.5806
12455TIP3   OH258855   0.576   4.173   5.077 -0.2733  0.3688  0.1724
12455TIP3    H158856   0.602   4.164   4.985 -0.6090 -1.2638  0.2073
12455TIP3    H258857   0.562   4.267   5.088  0.8180  0.7332 -1.1475
12456TIP3   OH258858   5.800   5.439  11.301 -0.3530  0.3861  0.3280
12456TIP3    H158859   5.790   5.368  11.236 -1.2972  0.6285  0.2011
12456TIP3    H258860   5.866   5.406  11.362  0.8170  0.2832 -0.9351
12457TIP3   OH258861   5.204   5.473  16.083  0.2692 -0.2546 -0.4339
12457TIP3    H158862   5.142   5.441  16.148 -0.9778 -1.8167 -2.2662
12457TIP3    H258863   5.181   5.566  16.071 -0.4360 -0.3296  0.2877
12458TIP3   OH258864   6.620   5.868   1.062  0.7109 -0.2325  0.4926
12458TIP3    H158865   6.536   5.853   1.106  0.1130  0.0211 -0.5206
12458TIP3    H258866   6.600   5.859   0.969  1.2827  2.1883  0.0761
12459TIP3   OH258867   2.249   4.942  13.432  0.1905  0.2342 -0.2147
12459TIP3    H158868   2.284   4.873  13.488 -0.4770 -1.6282 -1.9410
12459TIP3    H258869   2.156   4.946  13.454 -0.3491 -1.3784 -1.8862
12460TIP3   OH258870   1.352   3.587   5.858 -0.1590 -0.5499  0.3347
12460TIP3    H158871   1.296   3.649   5.813  2.3219  1.4458 -0.2177
12460TIP3    H258872   1.398   3.639   5.924  1.7472 -1.8251  0.1175
12461TIP3   OH258873   0.726   2.172  10.540 -0.0059  0.2175  0.7445
12461TIP3    H158874   0.793   2.237  10.517  0.2860 -0.6831 -1.1657
12461TIP3    H258875   0.774   2.091  10.554 -0.2216  0.5704  4.4739
12462TIP3   OH258876   6.534   2.232  16.996 -1.0967 -0.7580  0.5114
12462TIP3    H158877   6.439   2.229  17.007 -0.9120 -0.9704  2.3549
12462TIP3    H258878   6.550   2.183  16.915 -2.6604  0.8034 -0.8261
12463TIP3   OH258879   3.449   2.874  12.771  0.2518  0.5017  0.1715
12463TIP3    H158880   3.517   2.935  12.741 -1.4663  1.3176 -2.3094
12463TIP3    H258881   3.460   2.797  12.715  0.7276 -0.4881  1.5464
12464TIP3   OH258882   4.853   5.580  12.143 -0.0274 -0.3938  0.2213
12464TIP3    H158883   4.883   5.598  12.232  0.8760 -2.1180  0.3205
12464TIP3    H258884   4.784   5.644  12.127 -1.3118 -1.0054  2.7458
12465TIP3   OH258885   3.061   4.796  16.652 -0.1674 -0.0471  0.0640
12465TIP3    H158886   3.015   4.821  16.572  0.3725 -2.1275 -0.9625
12465TIP3    H258887   3.065   4.700  16.648  1.3967 -0.0971  1.7223
12466TIP3   OH258888   6.011   2.320  14.572 -0.0757 -0.3275 -0.4278
12466TIP3    H158889   5.993   2.228  14.556 -0.3211 -0.5279  0.8769
12466TIP3    H258890   5.932   2.365  14.542 -0.3011 -0.6242 -0.2844
12467TIP3   OH258891   5.689   4.092  16.486 -0.5687 -0.5381 -0.5962
12467TIP3    H158892   5.634   4.076  16.409 -0.7501  0.5972 -0.7170
12467TIP3    H258893   5.633   4.069  16.560 -0.3230 -1.8345 -0.8015
12468TIP3   OH258894   4.067   0.642   5.172  0.4377 -0.2720  0.2969
12468TIP3    H158895   4.159   0.632   5.147  0.0402 -1.8793 -0.5855
12468TIP3    H258896   4.026   0.686   5.098  0.7789  2.0460  1.3797
12469TIP3   OH258897   5.218   2.919  16.353 -0.1980  0.4269 -0.0558
12469TIP3    H158898   5.261   2.997  16.318  1.8508 -0.0734  1.1901
12469TIP3    H258899   5.221   2.855  16.282 -0.3301  0.9045 -0.4995
12470TIP3   OH258900   3.369   0.129   2.242  0.0757  0.3257 -0.4607
12470TIP3    H158901   3.389   0.039   2.269  2.6123  0.8800 -0.3004
12470TIP3    H258902   3.309   0.118   2.168 -0.5827 -1.4377  0.2577
12471TIP3   OH258903   2.414   6.808  13.234  0.4832  0.1427  0.1895
12471TIP3    H158904   2.483   6.857  13.189  0.6772 -0.1425  0.1783
12471TIP3    H258905   2.459   6.732  13.271  0.7757  1.3517  2.5975
12472TIP3   OH258906   5.371   3.799  12.357 -0.5468  0.0678 -0.7465
12472TIP3    H158907   5.354   3.891  12.338  1.5788  0.3903 -1.2637
12472TIP3    H258908   5.465   3.794  12.373 -0.6490 -1.9817 -0.4723
12473TIP3   OH258909   6.193   3.077  16.009  0.0503 -0.2283 -0.1362
12473TIP3    H158910   6.183   3.108  16.099 -0.3183 -0.5874 -0.0485
12473TIP3    H258911   6.239   3.147  15.964 -0.6286  0.3713  0.0959
12474TIP3   OH258912   2.379   0.215  17.142  0.1893 -0.4583  0.6323
12474TIP3    H158913   2.322   0.235  17.068 -0.5017 -0.4600  1.1597
12474TIP3    H258914   2.334   0.253  17.218  0.7182 -0.7651  1.1029
12475TIP3   OH258915   0.354   4.393   3.848 -0.0880 -0.9278 -0.2534
12475TIP3    H158916   0.267   4.378   3.810  0.2146  1.0021 -1.8734
12475TIP3    H258917   0.414   4.386   3.773  0.7300  1.2562  0.1307
12476TIP3   OH258918   3.054   2.358   0.257 -0.2890  0.3200 -0.1382
12476TIP3    H158919   3.040   2.277   0.209  0.7179 -1.7808  2.8106
12476TIP3    H258920   3.128   2.400   0.213  0.2268 -1.2064 -0.7573
12477TIP3   OH258921   2.475   0.746   0.691  0.1500 -0.7303 -0.1109
12477TIP3    H158922   2.565   0.774   0.678 -0.1265  0.3736  0.2190
12477TIP3    H258923   2.429   0.778   0.613 -0.6529  2.0468  1.3524
12478TIP3   OH258924   0.825   2.140  16.884  0.0410  0.2160  0.4034
12478TIP3    H158925   0.870   2.060  16.857 -0.5977 -0.2079  0.5743
12478TIP3    H258926   0.892   2.191  16.929  1.2320  1.0678 -2.1229
12479TIP3   OH258927   0.913   2.133   4.992 -0.3957 -0.0646 -0.1513
12479TIP3    H158928   0.906   2.061   5.056  2.3522 -0.6034 -0.3069
12479TIP3    H258929   0.874   2.098   4.912 -1.6490 -0.3046  0.5486
12480TIP3   OH258930   0.980   6.699  15.240  0.0658 -0.5240  0.0575
12480TIP3    H158931   1.066   6.732  15.265  0.4049 -1.4413  0.1526
12480TIP3    H258932   0.920   6.771  15.258  0.6692 -0.2482  1.0320
12481TIP3   OH258933   4.143   5.029  10.642 -0.0823 -0.2893 -0.4011
12481TIP3    H158934   4.185   5.049  10.559 -0.1587 -0.2714 -0.4353
12481TIP3    H258935   4.214   4.996  10.697  0.5639  2.2632  0.4425
12482TIP3   OH258936   2.617   3.813  11.640  0.0984  0.2505  0.3152
12482TIP3    H158937   2.698   3.774  11.673  0.3672 -0.6356 -1.2959
12482TIP3    H258938   2.562   3.822  11.718  0.9347 -1.1352  1.1178
12483TIP3   OH258939   5.198   3.312  16.541  0.5384 -0.1683  0.3714
12483TIP3    H158940   5.169   3.335  16.629 -1.7014 -0.8755 -0.0996
12483TIP3    H258941   5.291   3.294  16.549  0.6117  0.8787  2.3492
12484TIP3   OH258942   2.565   0.675  12.549  0.5370  0.3267  0.5695
12484TIP3    H158943   2.525   0.752  12.589 -0.1855  0.3291 -0.1335
12484TIP3    H258944   2.529   0.601  12.598 -0.9463  0.2806 -0.5268
12485TIP3   OH258945   4.137   0.569  11.265 -0.0593  0.1509  0.1674
12485TIP3    H158946   4.119   0.517  11.187 -0.5450  0.7913 -0.1609
12485TIP3    H258947   4.232   0.569  11.274  0.2372  2.2057 -1.9508
12486TIP3   OH258948   5.090   4.549   0.778 -0.4325  0.2100 -0.3700
12486TIP3    H158949   5.156   4.594   0.726  0.0590 -1.1023 -0.9245
12486TIP3    H258950   5.056   4.481   0.719 -0.9687 -0.3057  0.5171
12487TIP3   OH258951   3.463   1.897   1.727  0.0182  0.1702 -0.2144
12487TIP3    H158952   3.531   1.911   1.793 -1.2122 -0.5047  1.2441
12487TIP3    H258953   3.482   1.810   1.691 -0.0133  0.0128  0.1418
12488TIP3   OH258954   4.383   6.678  14.126 -0.0152  0.5525 -0.0311
12488TIP3    H158955   4.463   6.721  14.158  1.1195  0.0213 -2.0097
12488TIP3    H258956   4.387   6.590  14.163 -0.8249  1.1351  1.5841
12489TIP3   OH258957   2.646   4.873   2.629  0.2566 -0.5649  0.0721
12489TIP3    H158958   2.602   4.790   2.649 -1.3879 -0.0611 -1.1912
12489TIP3    H258959   2.597   4.908   2.554  1.2171  1.3134  0.2771
12490TIP3   OH258960   2.848   4.843  14.616  0.5437  0.7688  0.3957
12490TIP3    H158961   2.933   4.884  14.630  0.9814  0.1213 -0.2811
12490TIP3    H258962   2.864   4.778  14.548 -0.1709 -0.3853  1.2999
12491TIP3   OH258963   4.864   3.964  11.487  0.2256 -0.4654 -0.4997
12491TIP3    H158964   4.812   4.011  11.552  0.4602  0.2535 -0.8329
12491TIP3    H258965   4.946   4.012  11.482 -0.3906  0.4755 -2.5193
12492TIP3   OH258966   5.658   6.240  10.588 -0.2465  0.3089  0.2389
12492TIP3    H158967   5.661   6.313  10.650 -0.7111 -0.2238  0.8951
12492TIP3    H258968   5.730   6.257  10.527 -1.2438  2.1138 -0.5203
12493TIP3   OH258969   5.338   0.046  15.512 -0.5695  0.0692  0.3652
12493TIP3    H158970   5.418   0.039  15.460 -0.2642  0.9779  0.6904
12493TIP3    H258971   5.327   0.140  15.527 -0.5255 -0.1699  2.1114
12494TIP3   OH258972   6.165   1.635   5.585 -0.0830 -0.3582  0.2206
12494TIP3    H158973   6.205   1.612   5.669  1.3821  0.9777 -0.0684
12494TIP3    H258974   6.072   1.645   5.605  0.4349  1.4796  2.0582
12495TIP3   OH258975   3.894   1.841  11.604  0.2254  0.1034 -0.4645
12495TIP3    H158976   3.922   1.920  11.558  1.8830 -0.4407 -0.4396
12495TIP3    H258977   3.820   1.809  11.552  0.7604  0.6167 -1.5744
12496TIP3   OH258978   3.948   5.274   3.198 -0.8936 -0.0822  0.2419
12496TIP3    H158979   3.860   5.246   3.224 -1.7245  0.5132 -1.7614
12496TIP3    H258980   3.987   5.196   3.159  0.1427 -0.8139  2.5680
12497TIP3   OH258981   3.424   1.352  16.404  0.8920  0.3685 -0.4895
12497TIP3    H158982   3.451   1.294  16.333  0.5863  1.0484 -1.1817
12497TIP3    H258983   3.430   1.440  16.366  1.1481  0.7751  0.4695
12498TIP3   OH258984   5.266   3.534  12.304 -0.7801  0.1629 -0.1016
12498TIP3    H158985   5.306   3.618  12.328 -0.5191 -0.3236  1.2591
12498TIP3    H258986   5.172   3.549  12.315 -0.7952  0.5255 -0.6973
12499TIP3   OH258987   2.935   1.860   2.012  0.0242  0.4739  0.0871
12499TIP3    H158988   2.962   1.770   1.994  1.9746  0.7867  1.2014
12499TIP3    H258989   2.868   1.852   2.080  0.7922 -0.1113  0.7940
12500TIP3   OH258990   6.291   6.784  15.709 -0.4562  0.4102 -0.2862
12500TIP3    H158991   6.281   6.709  15.768 -0.5157  1.5626  1.2445
12500TIP3    H258992   6.358   6.757  15.646 -0.1914 -0.7739  0.4762
12501TIP3   OH258993   5.583   1.962  14.825  0.4305  0.6614 -0.1146
12501TIP3    H158994   5.594   2.056  14.807  2.0870  1.0905  2.6735
12501TIP3    H258995   5.495   1.955  14.862  0.0658  0.9916 -0.8926
12502TIP3   OH258996   0.246   3.450   1.297 -0.1190 -0.1005  0.0406
12502TIP3    H158997   0.234   3.357   1.318 -2.0377 -0.0743 -0.7621
12502TIP3    H258998   0.213   3.459   1.208 -0.8815  1.5315  0.4430
12503TIP3   OH258999   1.819   3.710   4.275  0.4328  0.4081  0.5752
12503TIP3    H159000   1.802   3.655   4.199  1.7180  1.0592 -0.2237
12503TIP3    H259001   1.744   3.697   4.332  0.1491 -1.2396 -0.1341
12504TIP3   OH259002   1.562   0.557  13.711  0.1749  0.5901 -0.4981
12504TIP3    H159003   1.632   0.606  13.753  0.3202  0.0048 -0.0483
12504TIP3    H259004   1.552   0.479  13.764 -0.1759  0.2119 -1.1079
12505TIP3   OH259005   3.631   0.745   4.842 -0.2472  0.1561  0.1816
12505TIP3    H159006   3.722   0.775   4.834 -0.1880  0.5262  1.8420
12505TIP3    H259007   3.618   0.732   4.936 -2.4275  1.8135  0.2021
12506TIP3   OH259008   4.727   0.255   0.279 -0.7951  0.2226  0.5860
12506TIP3    H159009   4.718   0.222   0.189  1.8261 -1.7460  0.9137
12506TIP3    H259010   4.681   0.191   0.333 -0.5191  0.2028  0.7990
12507TIP3   OH259011   6.635   1.011   0.341 -0.6035 -0.1743 -0.1198
12507TIP3    H159012   6.606   0.940   0.283 -1.1185 -0.5162  0.5403
12507TIP3    H259013   6.639   0.971   0.428 -1.1116  0.6544  0.3003
12508TIP3   OH259014   1.030   6.757   5.285 -0.1609  0.1391 -0.4404
12508TIP3    H159015   0.946   6.800   5.303 -1.4583 -2.1761 -0.5967
12508TIP3    H259016   1.043   6.698   5.359  2.1849  1.5281  0.3740
12509TIP3   OH259017   4.682   5.021   0.693 -0.5000  0.2031  0.0250
12509TIP3    H159018   4.592   5.053   0.693 -0.5363  0.1391 -1.4872
12509TIP3    H259019   4.728   5.077   0.631  0.5349  0.2718  0.8126
12510TIP3   OH259020   4.324   4.435  11.669  0.9355 -0.3882 -0.1837
12510TIP3    H159021   4.382   4.445  11.745  0.2986  1.8476  0.0717
12510TIP3    H259022   4.372   4.476  11.597  1.3027 -2.0244 -0.9446
12511TIP3   OH259023   5.411   4.761  14.625 -0.0984  0.1229  0.1312
12511TIP3    H159024   5.422   4.856  14.619  0.0893  0.2656  2.0857
12511TIP3    H259025   5.368   4.736  14.543 -2.1203  2.1966  0.4727
12512TIP3   OH259026   0.282   4.169   5.958  0.3000  0.4094  0.2742
12512TIP3    H159027   0.243   4.087   5.929  1.1529 -0.6717  1.9930
12512TIP3    H259028   0.216   4.209   6.015 -0.5824  1.5539 -1.4597
12513TIP3   OH259029   1.600   3.860  17.046  0.3686 -0.3527 -0.1885
12513TIP3    H159030   1.588   3.914  17.125  0.1516 -0.7143  0.0325
12513TIP3    H259031   1.694   3.863  17.029  0.3818 -0.0523 -0.0723
12514TIP3   OH259032   3.729   1.122   1.394 -0.3448  0.3158  0.0669
12514TIP3    H159033   3.710   1.067   1.317 -0.8849  0.5353  0.0373
12514TIP3    H259034   3.663   1.191   1.390 -1.3498 -0.5204  1.5724
12515TIP3   OH259035   1.268   5.768  14.886  0.1179 -0.0099 -0.1801
12515TIP3    H159036   1.341   5.728  14.837  0.5049 -0.1478  0.4915
12515TIP3    H259037   1.190   5.743  14.838  0.3552 -1.5741  0.2075
12516TIP3   OH259038   3.015   4.059   2.771 -0.0617 -0.3257  0.1251
12516TIP3    H159039   3.087   4.115   2.740 -1.7204  0.5361 -2.4785
12516TIP3    H259040   2.978   4.108   2.845  0.4318  0.5098 -0.1588
12517TIP3   OH259041   5.365   1.081  14.498  0.1182  0.3463  0.0044
12517TIP3    H159042   5.313   1.136  14.557  0.2479  0.7094 -0.2157
12517TIP3    H259043   5.395   1.141  14.430  1.1387  0.2121  0.3283
12518TIP3   OH259044   0.992   1.652  11.913 -0.3454 -0.3454  0.3034
12518TIP3    H159045   1.061   1.718  11.912  0.6273 -1.3357  0.1619
12518TIP3    H259046   0.949   1.660  11.828  0.7259 -0.8773 -0.2935
12519TIP3   OH259047   3.682   0.295   4.496  0.6729  0.6279 -0.0509
12519TIP3    H159048   3.705   0.386   4.513  1.8677  0.4681 -0.6670
12519TIP3    H259049   3.625   0.299   4.419  1.7739  0.7823 -0.8829
12520TIP3   OH259050   1.129   2.201   2.785  0.0730  0.0869 -0.1316
12520TIP3    H159051   1.164   2.201   2.874 -0.6415  0.9103  0.1572
12520TIP3    H259052   1.168   2.124   2.744  1.4549  0.4229  0.4807
12521TIP3   OH259053   1.009   1.149   4.930  0.3370  0.3847  0.3217
12521TIP3    H159054   1.035   1.113   5.015  1.4901  0.1482 -0.1042
12521TIP3    H259055   0.928   1.103   4.908  0.6866 -0.4538  0.7346
12522TIP3   OH259056   4.393   4.194   0.134 -0.1543 -0.1513 -0.4052
12522TIP3    H159057   4.478   4.165   0.167 -0.5107  0.2831  0.9691
12522TIP3    H259058   4.407   4.286   0.110 -0.3497  0.0791  0.3286
12523TIP3   OH259059   6.032   4.276   4.370 -0.3317  0.0256 -0.1290
12523TIP3    H159060   6.037   4.181   4.368  1.6439  0.1029 -1.0676
12523TIP3    H259061   5.961   4.295   4.432  0.0413 -2.0042  1.0093
12524TIP3   OH259062   2.592   3.694   3.273 -0.0969  0.0161  0.2413
12524TIP3    H159063   2.662   3.697   3.339  1.1132  0.2668 -1.0038
12524TIP3    H259064   2.616   3.762   3.210 -1.8794  0.6028  0.1510
12525TIP3   OH259065   6.535   1.058  13.159  0.0394 -0.0912 -0.1526
12525TIP3    H159066   6.481   1.062  13.238  0.2880 -0.2999  0.0310
12525TIP3    H259067   6.622   1.035  13.191  0.3190  0.6024 -0.4063
12526TIP3   OH259068   2.714   1.722   2.893  0.7181 -0.0332 -0.3613
12526TIP3    H159069   2.723   1.753   2.983  1.6233  1.7755 -1.0270
12526TIP3    H259070   2.628   1.754   2.864 -0.2954 -1.9601  0.2931
12527TIP3   OH259071   0.855   0.827  16.196 -0.0924  0.5715 -0.0915
12527TIP3    H159072   0.843   0.843  16.103  1.5088 -1.0620 -0.6479
12527TIP3    H259073   0.938   0.779  16.202 -0.3515  0.2630  2.1344
12528TIP3   OH259074   2.197   0.050  16.584  0.2391  0.1941 -0.0553
12528TIP3    H159075   2.212   0.039  16.490  0.4467  0.6339 -0.0765
12528TIP3    H259076   2.204   0.144  16.598  0.3775  0.1129  0.4293
12529TIP3   OH259077   4.523   3.890  16.874  0.8302  0.4107 -0.0559
12529TIP3    H159078   4.433   3.886  16.904  1.2670 -1.3569  1.1857
12529TIP3    H259079   4.519   3.931  16.788 -1.0006  1.4792  0.5010
12530TIP3   OH259080   6.492   4.537  15.665 -0.2131 -0.7705  0.6134
12530TIP3    H159081   6.505   4.550  15.759 -1.9136 -0.4503  0.8308
12530TIP3    H259082   6.398   4.549  15.652  0.1453  0.3112 -1.3143
12531TIP3   OH259083   3.640   5.757   1.561 -0.3445  0.1847  0.0660
12531TIP3    H159084   3.556   5.714   1.571  0.8288 -2.0401  0.9852
12531TIP3    H259085   3.655   5.801   1.645 -0.8047  1.0799 -0.3011
12532TIP3   OH259086   1.071   6.028   0.696 -0.1899 -0.4911 -0.2972
12532TIP3    H159087   1.015   6.055   0.769 -0.2881  0.2873 -0.6444
12532TIP3    H259088   1.095   5.938   0.716 -0.7020 -0.4845  0.3945
12533TIP3   OH259089   5.416   5.520  11.109 -0.0740 -0.1685  0.4398
12533TIP3    H159090   5.445   5.476  11.030  1.1993 -1.5971  1.6539
12533TIP3    H259091   5.326   5.489  11.122 -0.5418  0.6026 -0.7704
12534TIP3   OH259092   6.595   1.933  12.827  0.0078 -0.1220 -0.3981
12534TIP3    H159093   6.559   1.901  12.745 -0.4433 -0.3811 -0.1029
12534TIP3    H259094   6.590   1.859  12.887 -0.4321  0.3002  0.1016
12535TIP3   OH259095   2.150   4.983  11.155  0.3305  0.1542 -0.7291
12535TIP3    H159096   2.148   5.030  11.239 -2.1158  0.5993 -0.9540
12535TIP3    H259097   2.169   4.892  11.179 -1.2312  0.0966  0.4593
12536TIP3   OH259098   6.383   0.532   2.521 -0.1115  0.1110 -0.0249
12536TIP3    H159099   6.390   0.480   2.441  1.4882  0.7597 -0.3445
12536TIP3    H259100   6.303   0.583   2.509 -0.2569 -0.3008 -0.8963
12537TIP3   OH259101   4.929   0.348  12.188 -0.0828  0.5596  0.4190
12537TIP3    H159102   4.877   0.415  12.232 -0.5550  0.6959 -0.3404
12537TIP3    H259103   4.900   0.265  12.227 -0.2844  0.7046  0.5761
12538TIP3   OH259104   4.456   6.706   2.255  0.0460 -0.3905  0.6622
12538TIP3    H159105   4.516   6.772   2.222 -0.8112 -0.6217 -1.5081
12538TIP3    H259106   4.442   6.647   2.182 -0.8579 -1.7935  1.9044
12539TIP3   OH259107   0.130   5.989   5.427 -0.1120  0.6834 -0.3919
12539TIP3    H159108   0.160   6.021   5.342 -1.2093  0.2077 -0.9817
12539TIP3    H259109   0.200   5.931   5.457 -0.0522  0.2221 -1.3578
12540TIP3   OH259110   5.007   6.523   2.834 -0.1061  0.2256  0.1168
12540TIP3    H159111   5.034   6.498   2.922 -1.7502 -0.5705  0.4475
12540TIP3    H259112   5.002   6.619   2.836  0.2322  0.2326  0.7696
12541TIP3   OH259113   3.083   0.101   2.144  0.1698  0.0844  0.3708
12541TIP3    H159114   3.002   0.149   2.161  0.1035  0.2173 -0.2903
12541TIP3    H259115   3.081   0.083   2.050  0.5122 -0.6391  0.4961
12542TIP3   OH259116   5.040   6.728   3.929  0.2310  0.0174 -0.1641
12542TIP3    H159117   5.012   6.642   3.898 -0.6626  0.2680 -0.1025
12542TIP3    H259118   5.054   6.716   4.023  0.6859 -0.1994 -0.2597
12543TIP3   OH259119   6.581   2.022  16.376  0.6509 -0.1374 -0.6109
12543TIP3    H159120   6.535   1.939  16.362  0.9302 -0.2037 -1.1484
12543TIP3    H259121   6.563   2.044  16.467  1.8608 -1.5927  0.0148
12544TIP3   OH259122   2.177   2.186  15.596  0.1891 -0.4489  0.0048
12544TIP3    H159123   2.189   2.248  15.667  1.6744 -0.4467 -0.2328
12544TIP3    H259124   2.162   2.240  15.519  1.1268 -0.3889 -0.1381
12545TIP3   OH259125   2.860   3.831   4.535 -0.0571  0.2100  0.5888
12545TIP3    H159126   2.850   3.807   4.442  1.5602  0.8214  0.2196
12545TIP3    H259127   2.824   3.919   4.541  2.1534  1.2436 -0.0968
12546TIP3   OH259128   3.247   1.393  14.100  0.2667 -0.6167  0.1925
12546TIP3    H159129   3.190   1.385  14.024  0.6106 -1.2710 -0.0045
12546TIP3    H259130   3.233   1.312  14.149  0.1790 -0.2778  0.7353
12547TIP3   OH259131   5.472   2.208  11.283 -0.4839  0.6203 -0.0352
12547TIP3    H159132   5.448   2.239  11.195  1.5536  0.9364 -0.5281
12547TIP3    H259133   5.509   2.121  11.268 -0.0729  0.7016  0.5032
12548TIP3   OH259134   0.991   5.558  15.059  0.4151 -0.3249 -0.7291
12548TIP3    H159135   0.934   5.532  15.131 -0.7446 -0.5994 -1.7047
12548TIP3    H259136   1.051   5.622  15.096  2.1118 -2.9036  1.3267
12549TIP3   OH259137   5.300   2.414   4.249  0.1492  0.3072  0.3557
12549TIP3    H159138   5.261   2.353   4.186  0.6880 -0.6883  0.9486
12549TIP3    H259139   5.355   2.471   4.195 -1.3811  1.1480 -0.3747
12550TIP3   OH259140   3.428   3.891   4.739 -0.0650 -0.0734  0.0718
12550TIP3    H159141   3.450   3.808   4.696 -1.3503 -0.3883 -0.0302
12550TIP3    H259142   3.375   3.937   4.673  0.5621  0.7855  0.1674
12551TIP3   OH259143   6.534   4.124   0.364 -0.4906 -0.2932  0.0998
12551TIP3    H159144   6.456   4.113   0.310 -0.8080  0.7618  0.3282
12551TIP3    H259145   6.508   4.090   0.450  0.2254 -2.6106 -0.5116
12552TIP3   OH259146   5.483   1.474   5.579 -0.1939 -0.5286  0.3297
12552TIP3    H159147   5.573   1.457   5.607 -0.0339 -0.8083 -0.3415
12552TIP3    H259148   5.429   1.418   5.636  0.1266 -1.1138  0.0627
12553TIP3   OH259149   3.949   1.587   4.131  0.2139 -0.7591  0.2763
12553TIP3    H159150   3.981   1.578   4.041  0.3832 -0.9120  0.3496
12553TIP3    H259151   3.896   1.666   4.130  1.6551  0.2527  0.4376
12554TIP3   OH259152   4.602   2.842  11.171 -0.0632  0.8002  0.0029
12554TIP3    H159153   4.668   2.839  11.239  1.7927 -2.2011 -1.7228
12554TIP3    H259154   4.649   2.870  11.092 -1.1117 -0.1940 -1.0181
12555TIP3   OH259155   5.246   0.881  14.326 -0.1446 -0.3256  0.4517
12555TIP3    H159156   5.292   0.944  14.381 -1.2093 -0.4156  1.4802
12555TIP3    H259157   5.273   0.902  14.237  2.1285 -0.5787  1.0248
12556TIP3   OH259158   4.532   6.070  16.808  0.2452  0.4395 -0.5694
12556TIP3    H159159   4.605   6.008  16.821  0.0891  0.4972  0.8111
12556TIP3    H259160   4.454   6.021  16.835 -0.0106  0.8865 -0.4860
12557TIP3   OH259161   4.635   5.336   6.567  0.2395  0.2178 -0.5244
12557TIP3    H159162   4.673   5.267   6.513 -0.4573  1.1211 -2.2735
12557TIP3    H259163   4.672   5.417   6.532 -0.7639  0.8827 -0.1155
12558TIP3   OH259164   1.002   2.174  15.066 -0.3134  0.5169  0.0056
12558TIP3    H159165   1.041   2.187  14.979  1.7312 -0.9295  0.6278
12558TIP3    H259166   0.959   2.257  15.086 -1.4817  0.6497 -2.6578
12559TIP3   OH259167   3.631   3.989   5.782 -0.0824  0.4468 -0.5204
12559TIP3    H159168   3.724   3.992   5.803  0.1962 -0.6115 -1.5086
12559TIP3    H259169   3.589   4.042   5.850  1.3247  1.8189 -0.6797
12560TIP3   OH259170   5.043   3.891  11.837  0.0854 -0.1584 -0.0776
12560TIP3    H159171   5.054   3.796  11.832  2.8630  0.1482 -2.8608
12560TIP3    H259172   4.962   3.908  11.789  0.3588 -1.0418 -0.8801
12561TIP3   OH259173   6.350   6.581  14.702 -0.3287  0.3130 -0.3560
12561TIP3    H159174   6.395   6.527  14.637 -0.0555  0.3775 -0.2238
12561TIP3    H259175   6.412   6.652  14.720 -0.4326  0.3335 -0.0795
12562TIP3   OH259176   1.955   2.833  10.993 -0.2523 -0.2350  0.6501
12562TIP3    H159177   1.971   2.770  11.064  0.3529  0.8623  1.5335
12562TIP3    H259178   1.872   2.873  11.015 -1.0393 -1.2464 -0.3462
12563TIP3   OH259179   0.105   2.641   0.879  0.2246  0.3129  0.5628
12563TIP3    H159180   0.194   2.673   0.862 -0.0797  0.1589 -1.4727
12563TIP3    H259181   0.055   2.719   0.902  1.1030  0.2563  2.9815
12564TIP3   OH259182   5.251   0.125   0.357  0.1030  0.3758 -0.2214
12564TIP3    H159183   5.230   0.218   0.366 -1.1587  0.1644 -0.6887
12564TIP3    H259184   5.243   0.108   0.263  0.9010 -0.0865 -0.2136
12565TIP3   OH259185   0.442   4.164   0.588 -0.3509 -0.4039  0.0073
12565TIP3    H159186   0.460   4.165   0.682 -0.7427  2.1338  0.1252
12565TIP3    H259187   0.433   4.256   0.565  1.7370 -0.8109 -2.9386
12566TIP3   OH259188   2.256   0.580  14.140 -0.1424  0.0783 -0.0041
12566TIP3    H159189   2.240   0.597  14.047 -0.2168  1.7464  0.2993
12566TIP3    H259190   2.186   0.626  14.185 -0.2198 -0.8906  0.8904
12567TIP3   OH259191   2.875   0.846  11.090  0.4681  0.1770 -0.4504
12567TIP3    H159192   2.822   0.796  11.028 -1.5954  0.6783  0.8078
12567TIP3    H259193   2.836   0.934  11.089 -0.6459 -0.1802  2.6018
12568TIP3   OH259194   4.936   2.563  12.210 -0.0929 -0.0697 -0.3320
12568TIP3    H159195   4.942   2.478  12.253 -0.8041 -1.2172 -2.3722
12568TIP3    H259196   5.026   2.592  12.199  0.2437 -1.2720 -0.8978
12569TIP3   OH259197   4.748   5.613  15.272  0.0802  0.4721  0.2475
12569TIP3    H159198   4.835   5.598  15.310 -0.0203  0.5420  0.5103
12569TIP3    H259199   4.729   5.533  15.223 -0.4359 -0.2796  1.6174
12570TIP3   OH259200   1.292   6.691  16.059  0.4232  0.2703 -0.1837
12570TIP3    H159201   1.371   6.729  16.097  0.6812  0.9367 -1.3272
12570TIP3    H259202   1.315   6.599  16.043 -0.1254 -0.3929  2.3654
12571TIP3   OH259203   4.867   3.557  13.830 -0.2046  0.0554 -0.3839
12571TIP3    H159204   4.828   3.544  13.916  0.3830 -0.9201 -0.2407
12571TIP3    H259205   4.942   3.614  13.845 -2.0138  2.6842 -0.7982
12572TIP3   OH259206   2.995   3.350  13.846 -0.3747 -0.2227  0.1779
12572TIP3    H159207   3.014   3.349  13.940  1.4718  0.8625 -0.1389
12572TIP3    H259208   2.971   3.441  13.827  1.4881  0.1320 -0.7497
12573TIP3   OH259209   6.306   2.636  11.447  0.0708  0.5766  0.0674
12573TIP3    H159210   6.251   2.570  11.488 -0.4665  1.5353  0.9182
12573TIP3    H259211   6.307   2.612  11.354 -0.8116 -0.1256  0.2322
12574TIP3   OH259212   5.379   0.993  12.626 -0.3786  0.2442  0.3834
12574TIP3    H159213   5.350   1.063  12.568  0.6321  0.2171 -0.1715
12574TIP3    H259214   5.429   1.037  12.694 -0.7918  0.1800  0.7348
12575TIP3   OH259215   5.848   0.563   3.883 -0.1960 -0.4744  0.2989
12575TIP3    H159216   5.870   0.536   3.794 -0.5190 -0.2247  0.1414
12575TIP3    H259217   5.911   0.517   3.938  0.6282  0.1030 -0.1309
12576TIP3   OH259218   1.581   0.681  16.811  0.1909 -0.3603 -0.5474
12576TIP3    H159219   1.658   0.639  16.849  0.6252  2.0102  1.4961
12576TIP3    H259220   1.612   0.767  16.782 -1.5121  0.3457 -0.4240
12577TIP3   OH259221   0.441   3.593   0.328 -0.0494 -0.4859 -0.3760
12577TIP3    H159222   0.402   3.600   0.240 -0.8864 -0.1854  0.0063
12577TIP3    H259223   0.456   3.499   0.340  1.3926 -0.4152 -1.3848
12578TIP3   OH259224   6.664   3.314   3.489  0.9048 -0.4849  0.0158
12578TIP3    H159225   6.753   3.347   3.485  0.5626  0.6154  1.0011
12578TIP3    H259226   6.659   3.264   3.570  0.6951 -0.7785 -0.1729
12579TIP3   OH259227   4.050   5.908   2.352 -0.1720 -0.0896 -0.6668
12579TIP3    H159228   3.962   5.873   2.338  0.2014 -1.2755 -0.1758
12579TIP3    H259229   4.109   5.842   2.316  0.6091 -0.6618  1.4794
12580TIP3   OH259230   2.639   2.250  12.468 -0.1651  0.1768  0.5224
12580TIP3    H159231   2.682   2.300  12.538  0.6662  1.1030 -0.5976
12580TIP3    H259232   2.692   2.171  12.460 -1.2074 -0.7312  1.9805
12581TIP3   OH259233   0.366   4.592   3.429  0.9114  0.6270 -0.8063
12581TIP3    H159234   0.328   4.676   3.403 -1.4950  0.1841  1.0071
12581TIP3    H259235   0.384   4.601   3.522  2.0802 -0.3945 -0.9052
12582TIP3   OH259236   1.763   0.363  12.551 -0.0604  0.0285  0.5395
12582TIP3    H159237   1.841   0.339  12.502  0.6761  2.7513  0.2135
12582TIP3    H259238   1.797   0.404  12.631 -1.1620  0.5694  0.7510
12583TIP3   OH259239   5.089   2.506   1.223 -0.5261  0.0132  0.7962
12583TIP3    H159240   5.086   2.506   1.318 -1.7396 -0.3289  0.7849
12583TIP3    H259241   5.002   2.476   1.196 -0.2140  0.1096 -0.4191
12584TIP3   OH259242   4.367   2.165   4.384  0.6165  0.4565 -0.3956
12584TIP3    H159243   4.389   2.256   4.404  1.8963  0.6025 -2.2304
12584TIP3    H259244   4.367   2.160   4.289  0.5719 -1.4802 -0.3446
12585TIP3   OH259245   1.591   6.279   5.369  0.0621 -0.1208  0.0160
12585TIP3    H159246   1.545   6.333   5.305  0.3084  1.6593  1.2748
12585TIP3    H259247   1.669   6.329   5.391  1.2202 -1.8056 -0.0090
12586TIP3   OH259248   3.393   5.988   2.647  1.0074  0.0902  0.1161
12586TIP3    H159249   3.306   6.011   2.615 -0.0255 -1.2284  1.7997
12586TIP3    H259250   3.409   6.050   2.718  0.4445 -1.0363  1.2639
12587TIP3   OH259251   6.624   6.384  14.944  0.2255 -0.9245 -0.6847
12587TIP3    H159252   6.581   6.299  14.937  2.1181 -1.9088 -1.2585
12587TIP3    H259253   6.664   6.397  14.857  0.0633  0.4998 -0.5639
12588TIP3   OH259254   3.265   4.961  11.736  0.4010  0.0683  0.5470
12588TIP3    H159255   3.227   5.021  11.799 -0.4970 -0.7960  0.8644
12588TIP3    H259256   3.265   5.009  11.653 -1.6130  0.0623  0.4810
12589TIP3   OH259257   5.503   2.602  12.539 -1.0002  0.4705  0.1262
12589TIP3    H159258   5.468   2.559  12.617  1.3361  1.6191  1.9496
12589TIP3    H259259   5.551   2.534  12.493 -2.3381 -0.2044 -0.3253
12590TIP3   OH259260   0.501   4.231   3.061 -0.0082  0.2378  0.5407
12590TIP3    H159261   0.431   4.279   3.105  0.8336  0.8599  1.2304
12590TIP3    H259262   0.566   4.217   3.129 -0.9043 -3.3740  0.8606
12591TIP3   OH259263   4.260   0.825  11.704  0.1116  0.5245 -0.4039
12591TIP3    H159264   4.179   0.791  11.741  1.1617 -2.5361 -0.6200
12591TIP3    H259265   4.255   0.919  11.717 -3.2081  0.3957  0.0519
12592TIP3   OH259266   4.719   2.734   0.689  0.1555  0.5348 -0.4503
12592TIP3    H159267   4.786   2.770   0.747  0.1813 -1.2102  0.6852
12592TIP3    H259268   4.655   2.804   0.678 -0.9664  0.3269  3.4457
12593TIP3   OH259269   1.601   1.548  11.871 -0.0076 -0.2147  0.1954
12593TIP3    H159270   1.638   1.636  11.862  0.2707 -0.3747 -0.2464
12593TIP3    H259271   1.507   1.562  11.883  0.0747  0.1546  0.4081
12594TIP3   OH259272   4.092   5.915   0.036 -0.4511  0.0100  0.1721
12594TIP3    H159273   4.055   5.852   0.099  1.2191 -0.2534  0.9351
12594TIP3    H259274   4.173   5.946   0.077  1.8710 -1.7289 -2.7072
12595TIP3   OH259275   2.257   5.463  13.902  0.1209 -0.1392  0.0038
12595TIP3    H159276   2.289   5.553  13.913 -0.6131 -0.0449  1.7843
12595TIP3    H259277   2.167   5.474  13.871  0.4204 -0.3047 -0.9474
12596TIP3   OH259278   6.285   2.880  16.402  0.1166  0.1404 -0.0431
12596TIP3    H159279   6.297   2.853  16.311  1.7867 -1.6794  0.6419
12596TIP3    H259280   6.353   2.945  16.417  2.1951 -2.0762  0.7724
12597TIP3   OH259281   6.081   1.626  10.853 -0.8034 -0.0030  0.3260
12597TIP3    H159282   6.060   1.562  10.785 -0.3462 -0.8735  0.9782
12597TIP3    H259283   5.996   1.660  10.881 -0.9338  1.2583 -1.4908
12598TIP3   OH259284   2.769   5.514  15.656 -0.7824  0.1850  0.3037
12598TIP3    H159285   2.719   5.434  15.673 -2.1771  1.3402  1.9926
12598TIP3    H259286   2.776   5.518  15.560 -0.0401 -2.2770  0.1814
12599TIP3   OH259287   6.318   6.811  12.131 -0.2163  0.1707 -0.9549
12599TIP3    H159288   6.294   6.902  12.115 -0.5967 -0.0139 -1.4334
12599TIP3    H259289   6.273   6.788  12.212  2.0733  1.2446  0.7371
12600TIP3   OH259290   1.265   4.714  12.707  0.2768 -0.2936  0.3012
12600TIP3    H159291   1.337   4.771  12.733 -0.9779  1.0173  0.9753
12600TIP3    H259292   1.298   4.669  12.629  2.2878 -0.6888  1.3057
12601TIP3   OH259293   6.498   0.301   1.441  0.3078 -0.3249  0.3277
12601TIP3    H159294   6.412   0.260   1.437  0.3140 -0.5636  1.8455
12601TIP3    H259295   6.547   0.262   1.369 -1.4420  1.3360 -1.9134
12602TIP3   OH259296   5.099   0.312   2.410 -0.7556  0.3102  0.3467
12602TIP3    H159297   5.163   0.383   2.413 -1.6167  1.1183  0.1969
12602TIP3    H259298   5.084   0.290   2.502 -1.7230  1.5058  0.5120
12603TIP3   OH259299   6.739   0.239  11.511 -0.9771 -0.3969  0.0177
12603TIP3    H159300   6.773   0.154  11.483 -1.8188 -0.9661  0.6623
12603TIP3    H259301   6.751   0.296  11.435  0.1644 -0.9211 -0.2180
12604TIP3   OH259302   4.987   5.638   1.924 -0.2610 -0.5519 -0.0972
12604TIP3    H159303   4.906   5.650   1.874 -0.4726 -1.1678  0.0835
12604TIP3    H259304   4.969   5.677   2.009 -0.2421 -0.3706 -0.1760
12605TIP3   OH259305   0.145   1.511   1.583 -0.1352 -0.5563  0.0741
12605TIP3    H159306   0.153   1.533   1.490 -0.6219 -0.0584  0.1429
12605TIP3    H259307   0.051   1.517   1.601  0.0615  0.5111  0.8595
12606TIP3   OH259308   5.193   3.250  12.694  0.1760  0.5776  0.0370
12606TIP3    H159309   5.199   3.243  12.599 -0.0649 -1.0681  0.1097
12606TIP3    H259310   5.197   3.344  12.712 -0.2993  0.9425 -1.6253
12607TIP3   OH259311   5.286   4.126  16.538 -0.1945  0.4406 -0.0796
12607TIP3    H159312   5.254   4.179  16.611 -0.9289  0.4931 -0.4369
12607TIP3    H259313   5.320   4.190  16.476 -1.2183  0.5206 -0.5787
12608TIP3   OH259314   3.220   0.146   5.338  0.0688  0.0015 -0.3519
12608TIP3    H159315   3.306   0.123   5.375  0.6173  2.8208  0.4087
12608TIP3    H259316   3.241   0.205   5.265 -1.1964 -1.1329 -1.6809
12609TIP3   OH259317   2.025   6.156  12.480 -0.6567  0.0865 -0.2905
12609TIP3    H159318   1.958   6.141  12.413  0.0663  0.4857 -1.1275
12609TIP3    H259319   2.087   6.215  12.438  0.8701 -1.2286  0.0064
12610TIP3   OH259320   4.717   3.140  12.639  0.0610  0.4282  0.2975
12610TIP3    H159321   4.806   3.137  12.673 -0.2264  0.6325  1.0889
12610TIP3    H259322   4.707   3.058  12.590  1.5914  1.6047 -2.2001
12611TIP3   OH259323   3.793   6.175   1.014  0.0633 -0.0247 -0.0536
12611TIP3    H159324   3.879   6.137   1.031  0.1371 -0.5200 -1.3777
12611TIP3    H259325   3.735   6.100   1.001 -0.0014  0.2598 -1.6872
12612TIP3   OH259326   1.285   0.405   5.025 -0.2462  0.2830 -0.1714
12612TIP3    H159327   1.230   0.433   4.952 -1.3260 -1.5763 -0.1550
12612TIP3    H259328   1.222   0.387   5.096  0.5460 -0.1560  0.4385
12613TIP3   OH259329   2.733   1.315  11.945 -0.3376  0.4667 -0.3724
12613TIP3    H159330   2.741   1.246  11.879 -0.0121  2.0213 -2.0616
12613TIP3    H259331   2.687   1.386  11.900  2.9250  2.9842 -0.1790
12614TIP3   OH259332   5.606   2.273   5.318  0.4795  0.0690  0.1881
12614TIP3    H159333   5.521   2.245   5.353  0.5178  1.6730  1.6762
12614TIP3    H259334   5.659   2.290   5.396  1.0435  2.4199 -0.6437
12615TIP3   OH259335   5.460   3.630  15.015 -0.0561 -0.1084 -0.2646
12615TIP3    H159336   5.487   3.669  15.098  1.7284 -0.3221 -0.7218
12615TIP3    H259337   5.447   3.705  14.957 -0.7456  0.0085  0.0279
12616TIP3   OH259338   6.640   2.651  10.912 -0.2985 -0.0926  0.6303
12616TIP3    H159339   6.604   2.658  11.000  0.1702 -0.5309  0.8612
12616TIP3    H259340   6.625   2.559  10.887  2.3886 -0.8741  1.5202
12617TIP3   OH259341   3.190   3.925   3.032  0.4286  0.6138  0.1997
12617TIP3    H159342   3.197   4.018   3.011 -3.6979  1.3964  1.2706
12617TIP3    H259343   3.154   3.885   2.953 -1.6721  0.8489  0.9508
12618TIP3   OH259344   2.670   0.184   0.136 -0.3048  0.0520 -0.2981
12618TIP3    H159345   2.635   0.122   0.201  0.3973 -0.4377 -0.3725
12618TIP3    H259346   2.642   0.148   0.052  0.6659 -0.5493 -0.3797
12619TIP3   OH259347   5.385   2.466   3.302  0.6132 -0.3652  0.6011
12619TIP3    H159348   5.378   2.549   3.350 -0.5312  1.4276 -2.4190
12619TIP3    H259349   5.304   2.420   3.323  0.2585  0.2673  0.6665
12620TIP3   OH259350   4.133   0.802   2.390  0.5890  0.7580 -0.1521
12620TIP3    H159351   4.055   0.770   2.434 -0.2683  4.0135  0.9885
12620TIP3    H259352   4.190   0.726   2.383 -1.0625 -0.8713  2.5593
12621TIP3   OH259353   0.362   2.787  12.914  0.5587  0.2077  0.4331
12621TIP3    H159354   0.296   2.728  12.879 -0.4372  1.5809 -0.0961
12621TIP3    H259355   0.437   2.730  12.934  0.6179 -0.9079 -2.4436
12622TIP3   OH259356   4.027   2.625  13.639 -0.3049  0.2991 -0.2381
12622TIP3    H159357   4.020   2.658  13.549  0.7323 -0.3780 -0.5876
12622TIP3    H259358   4.099   2.676  13.677  0.3990 -0.5904 -0.3487
12623TIP3   OH259359   5.817   0.514   0.895  0.1777 -0.2624  0.2112
12623TIP3    H159360   5.890   0.468   0.937  0.3490  1.6689  2.2435
12623TIP3    H259361   5.777   0.565   0.966 -1.9659  0.2360 -1.2549
12624TIP3   OH259362   3.813   4.040  14.334  0.5573  0.2461  0.2644
12624TIP3    H159363   3.816   4.129  14.369  1.6403 -0.0620  1.0021
12624TIP3    H259364   3.839   4.049  14.243 -0.3162  0.7961  0.0490
12625TIP3   OH259365   3.309   0.274   1.283  0.2268 -0.5687 -0.0293
12625TIP3    H159366   3.368   0.342   1.250 -1.0884  0.8668  0.4107
12625TIP3    H259367   3.303   0.210   1.213  0.5754  0.3895 -0.9581
12626TIP3   OH259368   3.331   0.164   1.928  0.1208 -0.2732  0.2376
12626TIP3    H159369   3.305   0.250   1.893 -1.9783 -1.4303 -1.2735
12626TIP3    H259370   3.248   0.118   1.941  1.2239 -2.2242  0.6985
12627TIP3   OH259371   3.272   5.887  12.627 -0.0203 -0.1752 -0.9664
12627TIP3    H159372   3.284   5.909  12.535  0.0590 -0.4370 -1.0186
12627TIP3    H259373   3.178   5.874  12.637 -0.0778  0.2599 -0.9183
12628TIP3   OH259374   3.001   4.328  16.322  0.3006 -0.0667 -0.1745
12628TIP3    H159375   2.908   4.329  16.342  0.2009 -0.8138 -0.5682
12628TIP3    H259376   3.034   4.411  16.358 -0.4484  0.0624  0.2431
12629TIP3   OH259377   4.112   2.469  13.953  0.5935 -0.0434  0.8448
12629TIP3    H159378   4.109   2.538  13.887 -1.6131 -1.0335 -0.2012
12629TIP3    H259379   4.149   2.393  13.907 -1.0538 -0.7665  0.6375
12630TIP3   OH259380   3.464   5.699  13.998  0.2668  0.0829  0.1274
12630TIP3    H159381   3.513   5.771  13.958 -0.7141 -0.9758 -3.3324
12630TIP3    H259382   3.376   5.734  14.011 -0.0513 -0.2401 -1.0037
12631TIP3   OH259383   5.806   1.345  15.173  0.5994 -0.4663 -0.7659
12631TIP3    H159384   5.848   1.416  15.220 -0.1897 -1.4976  1.6927
12631TIP3    H259385   5.744   1.388  15.114 -0.4500  0.9354  1.2338
12632TIP3   OH259386   2.662   4.020   4.837 -0.1985 -0.4734 -0.3342
12632TIP3    H159387   2.647   3.993   4.928  1.8401 -0.1545  0.1302
12632TIP3    H259388   2.750   3.988   4.816  0.0677  0.9823 -1.6131
12633TIP3   OH259389   1.203   6.741  15.698  0.0426  0.3719  0.1758
12633TIP3    H159390   1.127   6.717  15.644 -0.5789  0.6502  0.9070
12633TIP3    H259391   1.234   6.658  15.734  1.7716 -0.1361 -2.2110
12634TIP3   OH259392   4.994   4.738  16.595 -0.3098  0.5416  0.5132
12634TIP3    H159393   4.918   4.789  16.569  0.9480  1.4262 -1.7754
12634TIP3    H259394   4.967   4.647  16.583 -0.1718  0.8224 -3.5649
12635TIP3   OH259395   6.705   4.675   0.608  0.1724  0.1301  0.1045
12635TIP3    H159396   6.793   4.664   0.642  0.5049  0.8790 -0.4973
12635TIP3    H259397   6.653   4.608   0.654  1.2397 -0.9857 -0.2501
12636TIP3   OH259398   6.265   4.207  16.736  0.2229  0.6746  0.2640
12636TIP3    H159399   6.309   4.185  16.818 -1.3547 -0.4505  0.8605
12636TIP3    H259400   6.181   4.246  16.763 -0.5820 -0.2593 -0.7841
12637TIP3   OH259401   3.449   1.427  12.425 -0.6947  0.3747  0.2050
12637TIP3    H159402   3.521   1.397  12.481 -1.3306  0.3645  1.0340
12637TIP3    H259403   3.482   1.507  12.384  0.9631 -1.2290 -1.8751
12638TIP3   OH259404   1.347   1.144  13.183  0.0297  0.0098  0.6223
12638TIP3    H159405   1.341   1.084  13.108  3.3153  0.7257 -0.3888
12638TIP3    H259406   1.390   1.092  13.252 -1.2237 -0.0733  1.3668
12639TIP3   OH259407   2.774   2.880  15.886  0.4717 -0.1252  0.0135
12639TIP3    H159408   2.715   2.807  15.873 -1.6928  1.1989  1.7599
12639TIP3    H259409   2.743   2.947  15.825  0.2832  0.5077  0.7888
12640TIP3   OH259410   6.632   2.838   4.990 -0.0057  0.0019 -0.1217
12640TIP3    H159411   6.543   2.807   5.005 -0.1594  0.3139 -0.3860
12640TIP3    H259412   6.688   2.767   5.023 -0.3289  0.2963  1.1148
12641TIP3   OH259413   3.589   1.873  14.756  0.1793  0.2412  0.8981
12641TIP3    H159414   3.649   1.869  14.682  0.2098 -1.1854  0.9774
12641TIP3    H259415   3.552   1.785  14.763 -0.8751  0.7123  1.7231
12642TIP3   OH259416   4.460   2.317  11.491 -0.0126  0.7564  0.0209
12642TIP3    H159417   4.524   2.320  11.563  1.2259  1.8149 -1.0581
12642TIP3    H259418   4.379   2.289  11.532  1.3107 -1.5230  1.3278
12643TIP3   OH259419   5.407   5.660   2.104 -0.1448 -0.6081  0.1468
12643TIP3    H159420   5.376   5.727   2.042 -1.2180  1.2343  2.5225
12643TIP3    H259421   5.328   5.611   2.127 -0.8605  1.7230  3.4138
12644TIP3   OH259422   3.657   4.464   0.244 -0.5659  0.0244 -0.3855
12644TIP3    H159423   3.750   4.481   0.261 -0.5389 -0.3260 -0.1752
12644TIP3    H259424   3.646   4.371   0.259 -0.5935 -0.2756 -2.0752
12645TIP3   OH259425   2.964   2.738  16.850  0.2776  0.5145 -0.1101
12645TIP3    H159426   3.001   2.734  16.761  0.0919 -0.4098 -0.1585
12645TIP3    H259427   3.040   2.747  16.907  0.3160  2.5894 -0.4327
12646TIP3   OH259428   4.630   0.981  11.744  1.0642 -0.5698  0.0708
12646TIP3    H159429   4.575   1.052  11.777  1.1993  0.1304 -1.1218
12646TIP3    H259430   4.582   0.901  11.764  1.1945 -0.2211  2.0022
12647TIP3   OH259431   5.770   6.360  14.424  0.0637 -0.1462 -0.1938
12647TIP3    H159432   5.790   6.393  14.337 -0.9108  0.2966 -0.2719
12647TIP3    H259433   5.749   6.439  14.475  0.5967 -0.4042  0.4362
12648TIP3   OH259434   1.209   1.874  12.417 -0.3476 -0.6195 -0.2265
12648TIP3    H159435   1.224   1.935  12.489 -0.4906 -1.6535  0.7014
12648TIP3    H259436   1.133   1.911  12.370  1.4223  1.5726 -1.5757
12649TIP3   OH259437   2.259   4.941  13.123 -0.4387 -0.5394 -0.0062
12649TIP3    H159438   2.277   4.976  13.210 -0.5192  0.7223 -0.4725
12649TIP3    H259439   2.250   4.847  13.136 -1.7024 -0.2501  1.5603
12650TIP3   OH259440   0.338   0.540  16.082 -0.3099 -0.1019  0.0273
12650TIP3    H159441   0.283   0.555  16.005 -0.8771  0.3086  0.5018
12650TIP3    H259442   0.314   0.610  16.143 -0.3835 -0.8448  0.8633
12651TIP3   OH259443   1.993   2.077  11.586  0.1075  0.0754 -0.5636
12651TIP3    H159444   2.073   2.026  11.578  0.2568  0.1358  0.4413
12651TIP3    H259445   2.023   2.165  11.607 -0.2477 -0.2868  1.6417
12652TIP3   OH259446   3.749   6.496  12.691  0.2327  0.4187 -0.3383
12652TIP3    H159447   3.707   6.425  12.641  0.9479  0.2048 -0.6524
12652TIP3    H259448   3.680   6.529  12.749 -0.5609  0.5570 -1.3483
12653TIP3   OH259449   2.525   1.134   0.274 -0.1067 -0.3044  0.4136
12653TIP3    H159450   2.565   1.072   0.213  0.1871  0.7247 -0.4809
12653TIP3    H259451   2.437   1.148   0.240  0.1025  0.3762  0.1303
12654TIP3   OH259452   3.154   3.875   0.633  0.1315 -0.5309 -0.1635
12654TIP3    H159453   3.099   3.821   0.576  0.2556 -1.3680  0.4827
12654TIP3    H259454   3.242   3.863   0.598 -0.0722  0.9002 -1.2683
12655TIP3   OH259455   1.016   0.831  11.378  0.3495  0.3540  0.5828
12655TIP3    H159456   1.005   0.793  11.465  0.0141 -0.7186  0.0801
12655TIP3    H259457   0.963   0.911  11.380 -0.9223 -0.4762  0.8639
12656TIP3   OH259458   3.090   0.402  11.110 -0.2711  0.2332 -0.2489
12656TIP3    H159459   3.172   0.447  11.089 -1.5636  2.0283 -1.8078
12656TIP3    H259460   3.059   0.368  11.026 -0.2177 -2.1679  0.6244
12657TIP3   OH259461   2.594   5.002   0.562 -0.6177  0.2691 -0.5055
12657TIP3    H159462   2.673   5.038   0.520  0.0854 -0.8527 -0.2007
12657TIP3    H259463   2.607   5.017   0.655  0.1054 -1.4427 -0.2777
12658TIP3   OH259464   2.206   2.562  12.233 -0.0263  0.1097  0.0683
12658TIP3    H159465   2.284   2.612  12.208  0.9021 -1.5824 -0.6309
12658TIP3    H259466   2.141   2.628  12.258  1.8020  1.5616  1.2314
12659TIP3   OH259467   5.977   0.532  12.843  0.4326 -0.5851 -0.5315
12659TIP3    H159468   6.041   0.509  12.776  1.1838  1.1449 -0.4628
12659TIP3    H259469   5.905   0.573  12.795 -0.0814 -1.4031 -0.4807
12660TIP3   OH259470   3.659   0.069   2.563 -0.2193  0.7518  0.0332
12660TIP3    H159471   3.717   0.068   2.639 -1.3162 -0.4170  0.8940
12660TIP3    H259472   3.658   0.161   2.535  0.3916  1.1624  1.2735
12661TIP3   OH259473   0.221   3.409  11.648 -0.5122  0.1897 -0.4784
12661TIP3    H159474   0.295   3.442  11.598  0.7068 -1.3973  0.1878
12661TIP3    H259475   0.154   3.477  11.639  0.9115  1.5591 -1.3179
12662TIP3   OH259476   4.327   5.337   6.089  0.0406 -0.2657 -0.5625
12662TIP3    H159477   4.318   5.317   6.182 -1.0378  0.7346 -0.4270
12662TIP3    H259478   4.303   5.256   6.044  1.3975 -1.0274  0.0119
12663TIP3   OH259479   2.766   2.355  13.763  0.0316  0.2471  0.2983
12663TIP3    H159480   2.720   2.436  13.784  0.6552  0.3642  1.2962
12663TIP3    H259481   2.814   2.333  13.843  1.7732  0.1842 -0.7069
12664TIP3   OH259482   5.119   3.052   1.521 -0.5712 -0.2930  0.4576
12664TIP3    H159483   5.132   3.129   1.577 -3.2574  0.4744  0.1629
12664TIP3    H259484   5.207   3.030   1.489  0.3075  2.6372  0.5844
12665TIP3   OH259485   0.759   2.113  15.334  0.3853  0.4214 -0.4639
12665TIP3    H159486   0.842   2.161  15.337  0.0627  1.1062 -1.7130
12665TIP3    H259487   0.704   2.156  15.400  1.0999 -0.2312  0.5854
12666TIP3   OH259488   1.868   2.236   1.428 -0.5878 -0.5735 -0.1182
12666TIP3    H159489   1.833   2.272   1.510 -0.2117 -1.7713  0.5925
12666TIP3    H259490   1.962   2.254   1.433 -0.7175  0.4066 -0.8614
12667TIP3   OH259491   4.380   5.846   3.276  0.6182  0.2023  0.2128
12667TIP3    H159492   4.398   5.887   3.361 -0.6741 -0.0369  0.6205
12667TIP3    H259493   4.441   5.773   3.271  1.8489  1.2040  0.1852
12668TIP3   OH259494   6.215   6.454   3.042 -0.5791  0.5475 -0.3462
12668TIP3    H159495   6.271   6.406   2.980  0.1100 -1.5350  1.7443
12668TIP3    H259496   6.246   6.545   3.036  0.4943  0.1346 -1.8982
12669TIP3   OH259497   3.709   0.058   3.319  0.3751  0.3279  0.2844
12669TIP3    H159498   3.795   0.099   3.313  1.3528 -1.6456 -0.0886
12669TIP3    H259499   3.666   0.080   3.237 -0.0793  2.4788  1.0281
12670TIP3   OH259500   4.222   4.146   5.739 -0.6708 -0.0290 -0.6706
12670TIP3    H159501   4.138   4.191   5.747  0.4675  2.1238 -0.0868
12670TIP3    H259502   4.279   4.209   5.693  0.7577 -1.2404 -0.6403
12671TIP3   OH259503   1.913   0.376   5.625 -0.3067 -0.4101  0.5480
12671TIP3    H159504   1.975   0.322   5.675  0.7046  1.2900  1.2137
12671TIP3    H259505   1.922   0.464   5.662  0.1889  0.8806 -2.2968
12672TIP3   OH259506   0.752   0.648  15.366 -0.5424 -0.0049 -0.4153
12672TIP3    H159507   0.778   0.704  15.293 -0.7915  0.2461 -0.3136
12672TIP3    H259508   0.701   0.706  15.423  1.0965  0.2705  0.8326
12673TIP3   OH259509   2.550   5.020   2.403  0.2110  0.2399 -0.1150
12673TIP3    H159510   2.496   5.076   2.347 -2.1126  0.5026  2.1489
12673TIP3    H259511   2.624   5.076   2.428 -0.3175  1.1592 -0.5313
12674TIP3   OH259512   1.036   4.366   2.115 -0.0875  0.1579  0.1741
12674TIP3    H159513   0.991   4.364   2.031  1.8489 -0.0386 -0.9177
12674TIP3    H259514   1.061   4.276   2.132 -0.8180  0.1239  1.2039
12675TIP3   OH259515   5.522   5.505  16.579 -0.2803 -0.7506  0.2937
12675TIP3    H159516   5.545   5.415  16.558 -2.1392 -1.0353 -0.7420
12675TIP3    H259517   5.476   5.500  16.662 -0.1847 -0.7194  0.3478
12676TIP3   OH259518   2.961   0.990  12.398 -0.4642  0.3805 -0.2999
12676TIP3    H159519   2.994   0.942  12.474  0.4234  2.2670  0.5987
12676TIP3    H259520   2.865   0.987  12.408 -0.3785  2.3211  2.1755
12677TIP3   OH259521   0.310   4.318   3.515 -0.6053  0.4467 -0.1057
12677TIP3    H159522   0.286   4.264   3.439  2.6300  0.1167 -1.0303
12677TIP3    H259523   0.340   4.400   3.476  0.0612  0.6880  0.9089
12678TIP3   OH259524   0.281   5.931   0.795 -0.0996  0.7389  0.2478
12678TIP3    H159525   0.213   5.878   0.753  1.2873 -1.8009  1.0089
12678TIP3    H259526   0.284   5.900   0.886  3.2150 -0.5419 -0.1773
12679TIP3   OH259527   1.430   3.231   2.807  0.0273 -0.4925 -0.4998
12679TIP3    H159528   1.515   3.213   2.847 -0.2333 -2.4724 -0.7130
12679TIP3    H259529   1.426   3.171   2.732 -1.9570 -1.1851  0.1074
12680TIP3   OH259530   5.701   1.544  12.375  0.3485 -0.4951 -0.0301
12680TIP3    H159531   5.708   1.617  12.313  1.3408 -0.0504  0.5874
12680TIP3    H259532   5.731   1.580  12.459  0.1875 -1.4199  0.4387
12681TIP3   OH259533   2.514   4.034  11.490 -0.8251  0.5878  0.1453
12681TIP3    H159534   2.537   4.104  11.551 -0.1616  0.0783  0.5014
12681TIP3    H259535   2.561   3.958  11.523 -0.8120  0.1952 -0.7532
12682TIP3   OH259536   4.392   2.663   0.540 -0.0512 -0.1798  0.2179
12682TIP3    H159537   4.452   2.636   0.470 -1.8788 -1.5915 -0.9042
12682TIP3    H259538   4.440   2.644   0.620  0.6075 -2.4197 -0.6184
12683TIP3   OH259539   1.650   6.408   3.534 -0.3884  0.6124  0.0166
12683TIP3    H159540   1.682   6.498   3.540 -0.4787  0.6375  0.1222
12683TIP3    H259541   1.571   6.407   3.588 -2.4351  1.3876 -2.7179
12684TIP3   OH259542   4.416   5.885  15.568  0.5687 -0.6684 -0.0616
12684TIP3    H159543   4.433   5.924  15.654 -3.4451 -0.4307  0.8357
12684TIP3    H259544   4.374   5.802  15.588  0.2401 -0.9538 -1.8168
12685TIP3   OH259545   3.465   0.978  14.666 -0.4031  0.5387 -0.8006
12685TIP3    H159546   3.507   0.892  14.673  0.7652  1.1219 -0.4382
12685TIP3    H259547   3.376   0.959  14.637  0.1014 -0.7333 -1.5775
12686TIP3   OH259548   5.796   6.663  13.157  0.0659 -0.1108 -0.1807
12686TIP3    H159549   5.754   6.591  13.111 -0.3563 -0.0137  0.0458
12686TIP3    H259550   5.829   6.624  13.238  0.5250 -0.2126 -0.4122
12687TIP3   OH259551   3.944   2.198  17.113 -0.1405  0.2773 -0.3186
12687TIP3    H159552   4.038   2.208  17.095 -0.1704  0.2502 -0.4941
12687TIP3    H259553   3.902   2.211  17.028 -0.2843  0.1299 -0.2717
12688TIP3   OH259554   4.075   6.480  15.120  0.5010 -0.3015 -0.0181
12688TIP3    H159555   4.083   6.393  15.160  1.7268 -0.3859 -0.4278
12688TIP3    H259556   4.047   6.536  15.192  0.7070 -0.8369  0.4886
12689TIP3   OH259557   5.374   5.895   3.768  0.0601 -0.0180  0.1233
12689TIP3    H159558   5.348   5.876   3.678 -0.1154 -1.7027  0.5101
12689TIP3    H259559   5.291   5.899   3.816  0.1589  0.8021  0.2455
12690TIP3   OH259560   6.245   1.759   4.275 -0.5142  0.2126  0.5041
12690TIP3    H159561   6.272   1.845   4.246  1.8827 -0.9602 -1.0527
12690TIP3    H259562   6.153   1.752   4.249  0.1628  1.0763 -2.4313
12691TIP3   OH259563   4.045   5.964   4.866  0.6787  0.2836  0.6934
12691TIP3    H159564   3.985   6.006   4.928 -0.1927  0.0967 -0.0154
12691TIP3    H259565   4.099   6.036   4.833  1.2149  0.3767  1.7014
12692TIP3   OH259566   0.392   1.239   2.993  0.1776  0.1351 -0.2900
12692TIP3    H159567   0.467   1.280   3.037  2.1888  0.5492 -3.7701
12692TIP3    H259568   0.400   1.146   3.014  0.9143  0.3367  0.3860
12693TIP3   OH259569   0.933   4.675  14.828 -0.4812  0.0538  0.6738
12693TIP3    H159570   0.843   4.643  14.832 -0.1086 -1.4027 -1.1944
12693TIP3    H259571   0.984   4.609  14.873 -0.0637 -0.5220 -0.5878
12694TIP3   OH259572   4.099   4.973   3.334  0.1321  0.1913 -0.6991
12694TIP3    H159573   4.068   4.888   3.304  2.2010 -0.1247 -2.2390
12694TIP3    H259574   4.076   5.033   3.264 -1.1991  0.9248  0.3215
12695TIP3   OH259575   0.682   5.585  13.597 -0.1395 -0.1417  0.1388
12695TIP3    H159576   0.624   5.644  13.644 -1.9294 -0.2773 -1.7335
12695TIP3    H259577   0.765   5.632  13.590  0.5802 -0.5123  4.0917
12696TIP3   OH259578   1.538   6.711  14.517  0.1200 -0.2229  0.4535
12696TIP3    H159579   1.619   6.762  14.509  1.0703 -1.7827 -0.4414
12696TIP3    H259580   1.556   6.650  14.589  0.3597 -1.5967 -0.7336
12697TIP3   OH259581   5.603   1.366   3.726 -0.0603  0.0359  0.2684
12697TIP3    H159582   5.512   1.395   3.725  0.5771  2.3410  1.3315
12697TIP3    H259583   5.628   1.362   3.634 -1.1757 -0.4322 -0.0302
12698TIP3   OH259584   6.813   4.263   1.825 -0.0029  0.4315 -0.0877
12698TIP3    H159585   6.818   4.357   1.840  0.2102  0.5513 -0.8656
12698TIP3    H259586   6.832   4.253   1.732 -0.4359 -0.3469 -0.0950
12699TIP3   OH259587   2.050   5.284   0.833  0.1678 -0.6994 -0.0588
12699TIP3    H159588   2.138   5.246   0.825  0.7584  0.3878  0.9915
12699TIP3    H259589   2.041   5.340   0.756  1.2092  0.7365  0.8303
12700TIP3   OH259590   5.193   1.192  14.802  0.0516 -0.4022 -0.5458
12700TIP3    H159591   5.238   1.274  14.782 -0.0151 -0.7330 -2.2333
12700TIP3    H259592   5.100   1.212  14.792  0.0372 -0.6907 -1.0231
12701TIP3   OH259593   0.169   3.191   1.370  0.4268 -0.0288  0.2399
12701TIP3    H159594   0.158   3.096   1.372  1.6224 -0.1990 -0.3673
12701TIP3    H259595   0.097   3.222   1.315  1.1929 -0.8148 -1.3013
12702TIP3   OH259596   3.322   4.788   4.918  0.4173 -0.0882 -0.2240
12702TIP3    H159597   3.340   4.801   5.011  0.7550 -0.1811 -0.2767
12702TIP3    H259598   3.408   4.771   4.879  0.5226  1.6658 -0.8436
12703TIP3   OH259599   6.106   0.348   1.712 -0.0085  0.0504  0.2558
12703TIP3    H159600   6.192   0.363   1.675 -0.4509  1.4328 -0.2772
12703TIP3    H259601   6.060   0.431   1.701 -0.5635  0.1919  2.8748
12704TIP3   OH259602   0.003   6.141  13.431 -0.3699  0.0733 -0.2351
12704TIP3    H159603   0.078   6.186  13.468 -0.4752 -1.8873  2.7999
12704TIP3    H259604  -0.031   6.200  13.365  0.6954  3.4487  1.9686
12705TIP3   OH259605   6.657   2.474  16.553 -0.0287 -0.1687  0.3682
12705TIP3    H159606   6.741   2.495  16.592  0.4891 -0.6103 -0.4854
12705TIP3    H259607   6.676   2.457  16.460 -1.0400 -0.3289  0.1693
12706TIP3   OH259608   1.996   6.826   2.369 -0.5073 -0.2318  0.0742
12706TIP3    H159609   1.951   6.744   2.347  0.7952 -0.3480 -2.5637
12706TIP3    H259610   2.065   6.800   2.430 -0.6373 -0.9738 -0.0901
12707TIP3   OH259611   1.380   1.884  11.205 -0.6112  0.0890  0.3832
12707TIP3    H159612   1.443   1.942  11.162  0.3328  1.2389  3.1101
12707TIP3    H259613   1.413   1.796  11.188 -0.6716  0.4211 -1.7264
12708TIP3   OH259614   3.447   0.458   3.077  0.3525 -0.2664 -0.1736
12708TIP3    H159615   3.469   0.425   3.164  2.7979 -0.4059 -0.7730
12708TIP3    H259616   3.377   0.521   3.092 -0.1936 -1.2554  1.7222
12709TIP3   OH259617   0.699   4.628  16.224  0.8001 -0.4086 -0.6191
12709TIP3    H159618   0.646   4.596  16.297 -1.3012 -0.5114 -2.0720
12709TIP3    H259619   0.789   4.606  16.247  0.7329  2.5913  3.4638
12710TIP3   OH259620   0.051   0.070  15.671  0.4227  0.7787 -0.0120
12710TIP3    H159621  -0.022   0.071  15.610  0.6755  1.5432 -0.3192
12710TIP3    H259622   0.010   0.073  15.758  0.0819  0.8420 -0.1765
12711TIP3   OH259623   6.362   1.331  15.516 -0.0436 -0.1228 -0.8946
12711TIP3    H159624   6.329   1.415  15.548  1.1465 -0.5950  1.8063
12711TIP3    H259625   6.450   1.324  15.553  0.4662 -1.9131 -2.3058
12712TIP3   OH259626   1.029   6.732  14.156  0.5734  0.1844  0.0758
12712TIP3    H159627   0.967   6.750  14.087 -0.4377 -1.7077  0.4117
12712TIP3    H259628   0.984   6.671  14.214  2.4189 -0.5871  0.8041
12713TIP3   OH259629   3.334   1.336   0.040  0.5491  0.1494  0.3344
12713TIP3    H159630   3.329   1.431   0.024 -1.2986  0.0318 -0.0264
12713TIP3    H259631   3.306   1.297  -0.043 -0.8561 -0.6472  1.1402
12714TIP3   OH259632   2.590   0.139  13.074 -0.3573 -0.1609  0.0942
12714TIP3    H159633   2.606   0.127  12.980  0.4977 -0.4254  0.2703
12714TIP3    H259634   2.598   0.234  13.087  1.2451 -0.2993  0.2015
12715TIP3   OH259635   1.463   5.735  15.766  0.2470 -0.0331 -0.0596
12715TIP3    H159636   1.509   5.652  15.762  1.6440  0.7063 -0.1604
12715TIP3    H259637   1.444   5.757  15.675  0.4200  0.0346 -0.0808
12716TIP3   OH259638   6.777   3.099   5.396 -0.0100 -0.4875  0.2849
12716TIP3    H159639   6.830   3.168   5.437  0.9823 -0.5080 -0.9096
12716TIP3    H259640   6.792   3.022   5.452  1.8077 -0.6787 -0.3984
12717TIP3   OH259641   1.508   2.435  16.003 -0.0215  0.1869  0.3136
12717TIP3    H159642   1.500   2.502  15.936 -0.1480  1.5109  1.6088
12717TIP3    H259643   1.585   2.460  16.054  0.5082 -1.2043  0.2371
12718TIP3   OH259644   3.316   0.105  16.943 -0.0890 -0.3657  0.2537
12718TIP3    H159645   3.353   0.169  16.883 -1.5677  0.5191  0.2422
12718TIP3    H259646   3.347   0.133  17.030  0.9135 -0.8478  0.0761
12719TIP3   OH259647   2.463   3.019   6.446 -0.3832 -0.3137  0.0749
12719TIP3    H159648   2.368   3.019   6.454 -0.2861 -0.0521  1.4018
12719TIP3    H259649   2.479   3.008   6.352 -1.6869 -2.5828  0.0359
12720TIP3   OH259650   4.011   0.236   5.360 -0.2425 -0.5256 -0.0404
12720TIP3    H159651   3.988   0.156   5.406 -0.6879 -0.2487  0.2314
12720TIP3    H259652   4.101   0.255   5.386 -0.7880  0.1439  1.4899
12721TIP3   OH259653   0.036   1.193   5.958 -0.2288 -0.2479 -0.2409
12721TIP3    H159654  -0.003   1.130   5.897 -1.7045  1.7796 -1.5478
12721TIP3    H259655  -0.037   1.217   6.015  0.2518  0.4259  0.0898
12722TIP3   OH259656   0.217   5.072   5.563  0.2015 -0.6494 -0.4326
12722TIP3    H159657   0.208   5.115   5.648  0.6024  1.1302 -1.2315
12722TIP3    H259658   0.128   5.053   5.535 -0.0067 -0.0273 -0.1979
12723TIP3   OH259659   4.511   1.076   2.157  0.0865 -0.1400  0.3681
12723TIP3    H159660   4.537   1.065   2.248 -0.0928  2.2910  0.7918
12723TIP3    H259661   4.593   1.085   2.109  0.2416  2.7497  0.9929
12724TIP3   OH259662   0.010   1.770  16.160  0.4288 -0.2382 -0.7108
12724TIP3    H159663  -0.009   1.719  16.239 -0.6106 -1.6961 -1.8441
12724TIP3    H259664   0.103   1.789  16.166  0.3120 -0.0289  1.0158
12725TIP3   OH259665   2.203   2.990  16.168  0.5641 -0.2414 -0.1442
12725TIP3    H159666   2.255   2.982  16.248 -2.7463 -2.2933  2.0821
12725TIP3    H259667   2.138   3.057  16.189  1.5396  1.5709 -2.4737
12726TIP3   OH259668   5.106   6.351  14.188  0.0760 -0.4332  0.0177
12726TIP3    H159669   5.141   6.271  14.150 -2.1460 -0.9530 -1.0648
12726TIP3    H259670   5.097   6.331  14.281  3.2530  0.0047  0.5142
12727TIP3   OH259671   5.126   5.634   3.690  0.2701  0.6376 -0.7826
12727TIP3    H159672   5.047   5.636   3.744  0.0306  0.8970 -1.1416
12727TIP3    H259673   5.186   5.695   3.734  0.8381 -0.6611  0.3322
12728TIP3   OH259674   1.791   4.425   1.440  0.2500 -0.0911 -0.2280
12728TIP3    H159675   1.767   4.332   1.442 -2.2215  0.4856 -0.0206
12728TIP3    H259676   1.847   4.437   1.517  0.7740 -1.4315 -0.3711
12729TIP3   OH259677   3.377   3.207   0.072 -0.1665 -0.0086  0.0203
12729TIP3    H159678   3.289   3.242   0.087 -0.0147  1.1940 -1.5990
12729TIP3    H259679   3.364   3.113   0.062 -1.4593  0.2554 -1.1807
12730TIP3   OH259680   2.795   4.656  15.411  0.6177 -0.3285 -0.0423
12730TIP3    H159681   2.823   4.575  15.454 -0.1045 -1.5579 -1.7765
12730TIP3    H259682   2.846   4.659  15.331 -1.9374 -1.0878 -1.8308
12731TIP3   OH259683   4.865   3.321   0.831  0.1196  0.0468  0.2185
12731TIP3    H159684   4.952   3.357   0.847 -0.0206 -0.3003  1.9658
12731TIP3    H259685   4.865   3.298   0.738  1.7552  0.3989  0.1055
12732TIP3   OH259686   3.348   2.026   2.804  0.0751 -0.3674 -0.0594
12732TIP3    H159687   3.319   1.939   2.776 -0.9338  0.4996 -1.8919
12732TIP3    H259688   3.287   2.049   2.874 -0.1879 -0.7836 -0.1463
12733TIP3   OH259689   6.814   5.019   2.079  0.7688  0.1476 -0.2291
12733TIP3    H159690   6.757   5.054   2.010 -0.9414  1.4415  1.7329
12733TIP3    H259691   6.821   5.090   2.142  1.8734 -1.1656  1.1835
12734TIP3   OH259692   3.187   0.456   1.051 -0.2231  0.0652  0.2563
12734TIP3    H159693   3.162   0.365   1.035 -0.0613 -0.1432  1.1355
12734TIP3    H259694   3.217   0.488   0.966 -1.4335 -0.3262 -0.3304
12735TIP3   OH259695   0.503   5.436   0.044 -0.0452  0.1937 -0.2702
12735TIP3    H159696   0.407   5.443   0.052  0.0694  0.5884  0.9337
12735TIP3    H259697   0.517   5.345   0.018 -0.7791  0.3559 -1.3340
12736TIP3   OH259698   2.963   0.561  17.042 -0.4645 -0.0101 -0.1632
12736TIP3    H159699   2.911   0.624  17.090  2.8750  2.5075  0.4995
12736TIP3    H259700   2.980   0.490  17.104 -0.4205  0.7263  0.6752
12737TIP3   OH259701   4.820   4.402   0.608 -0.2167  0.4338  0.2339
12737TIP3    H159702   4.813   4.422   0.701  0.2140  0.4017  0.2760
12737TIP3    H259703   4.913   4.414   0.587 -0.1821 -0.2315 -0.0296
12738TIP3   OH259704   3.842   1.384   1.673 -0.0970  0.0196  0.3917
12738TIP3    H159705   3.792   1.388   1.755 -0.2866  2.0591  0.2183
12738TIP3    H259706   3.928   1.351   1.700  0.2449  1.8036  1.6550
12739TIP3   OH259707   5.071   2.565   3.228  0.3811  0.0778  0.5331
12739TIP3    H159708   5.116   2.644   3.257 -0.3817  0.4131  0.8273
12739TIP3    H259709   5.107   2.496   3.284  1.4508  0.0997 -0.0975
12740TIP3   OH259710   4.423   3.304   2.595  0.6866  1.2029  0.3747
12740TIP3    H159711   4.369   3.261   2.661  0.8913  2.7579  1.6134
12740TIP3    H259712   4.366   3.373   2.560  0.6836  0.5880 -0.8911
12741TIP3   OH259713   3.457   2.832   2.711 -0.1887  0.0576 -1.1519
12741TIP3    H159714   3.385   2.862   2.766  0.6556 -0.4512  0.2852
12741TIP3    H259715   3.415   2.776   2.645 -0.9042 -2.4633  1.2596
12742TIP3   OH259716   0.243   4.561   1.188 -0.4670 -0.0495  0.0139
12742TIP3    H159717   0.269   4.570   1.097  4.0191  0.1043  1.0793
12742TIP3    H259718   0.225   4.651   1.217  3.6194  0.8242  0.4533
12743TIP3   OH259719   6.240   5.088  11.827 -0.3616 -0.2203  0.0376
12743TIP3    H159720   6.205   5.060  11.911 -1.7907  2.1055  0.2998
12743TIP3    H259721   6.276   5.175  11.844 -0.5181  0.2207 -1.7220
12744TIP3   OH259722   2.947   0.330  13.254 -0.2877  0.1249 -0.0542
12744TIP3    H159723   2.989   0.262  13.201 -1.7534 -1.1925  0.4305
12744TIP3    H259724   3.021   0.377  13.294  0.7834 -0.3212 -1.4053
12745TIP3   OH259725   4.613   2.397   5.527 -0.5421  0.1839 -0.5901
12745TIP3    H159726   4.589   2.383   5.436  0.1782  0.1582 -0.7839
12745TIP3    H259727   4.685   2.460   5.524 -0.9002  0.6316 -0.0015
12746TIP3   OH259728   3.465   6.589  16.153 -0.0480  0.2851  0.3295
12746TIP3    H159729   3.530   6.654  16.180 -0.0090  0.2852  0.2376
12746TIP3    H259730   3.390   6.604  16.210 -1.1213  2.2268 -1.4424
12747TIP3   OH259731   4.251   3.541   0.028 -0.4415 -0.1222  0.2783
12747TIP3    H159732   4.335   3.520   0.067  0.3424 -1.2063 -1.7975
12747TIP3    H259733   4.208   3.456   0.016 -1.0017  0.2442 -0.3897
12748TIP3   OH259734   5.043   1.233   0.466  0.7468 -0.6115  0.0486
12748TIP3    H159735   4.979   1.276   0.523  0.0506 -1.3975 -0.1329
12748TIP3    H259736   5.118   1.217   0.523  0.4247 -0.5224  0.5065
12749TIP3   OH259737   3.009   0.067  14.399  0.1970 -0.6918  0.1205
12749TIP3    H159738   3.005  -0.028  14.387  2.1214 -0.8474  0.3901
12749TIP3    H259739   2.966   0.082  14.483 -0.5005 -1.2612 -0.1204
12750TIP3   OH259740   0.023   3.881  14.245 -0.6440  0.1418 -0.3216
12750TIP3    H159741   0.080   3.853  14.173 -1.2172  0.0418 -0.7466
12750TIP3    H259742  -0.040   3.941  14.204 -0.5412  0.6349  0.2332
12751TIP3   OH259743   5.412   0.565  11.666  0.4609 -0.3440 -0.5119
12751TIP3    H159744   5.371   0.575  11.580 -1.0209  1.6052  0.3575
12751TIP3    H259745   5.381   0.481  11.698  0.8667 -1.0039 -1.7555
12752TIP3   OH259746   3.661   5.345   1.570  0.2211  0.5529 -0.1387
12752TIP3    H159747   3.714   5.415   1.532 -0.9797  1.0940 -0.8727
12752TIP3    H259748   3.571   5.377   1.565 -0.2302 -0.5178  0.6880
12753TIP3   OH259749   5.812   5.262  10.769 -0.4504 -0.5148  0.5792
12753TIP3    H159750   5.783   5.317  10.697 -2.1534 -0.4580  1.2632
12753TIP3    H259751   5.748   5.192  10.773  0.4709 -1.3550  1.1065
12754TIP3   OH259752   4.952   0.165  15.769 -0.3263  0.8905  0.1457
12754TIP3    H159753   4.934   0.093  15.830  0.7429  0.6524  0.2107
12754TIP3    H259754   4.868   0.207  15.756 -0.9595 -0.3137  0.1965
12755TIP3   OH259755   0.027   4.731  16.352 -0.2660  0.2177  0.2843
12755TIP3    H159756  -0.030   4.679  16.408  1.1263 -1.4930  0.1916
12755TIP3    H259757   0.113   4.691  16.360  0.1414  0.2280 -2.6334
12756TIP3   OH259758   2.725   6.126  15.045 -0.0600 -0.0125  0.4774
12756TIP3    H159759   2.777   6.131  15.125 -0.1773 -1.4292  0.6644
12756TIP3    H259760   2.762   6.052  14.997 -1.4678 -0.6173  0.2938
12757TIP3   OH259761   0.355   5.267   2.930 -0.0029 -0.1981 -0.1195
12757TIP3    H159762   0.394   5.346   2.969  2.0683 -1.2466  0.0912
12757TIP3    H259763   0.358   5.284   2.835 -1.1722  0.6434 -0.0274
12758TIP3   OH259764   4.748   3.288   4.157  0.2902  0.2440  0.5049
12758TIP3    H159765   4.817   3.241   4.111 -0.5305 -0.1991 -0.2984
12758TIP3    H259766   4.736   3.239   4.239 -0.1757 -0.6444 -0.0789
12759TIP3   OH259767   0.216   2.320  13.385 -0.0665 -0.8832 -0.0545
12759TIP3    H159768   0.155   2.391  13.363  1.8887  0.5424 -1.1043
12759TIP3    H259769   0.265   2.304  13.305  1.0061 -1.9454  0.7754
12760TIP3   OH259770   5.418   6.378  14.257 -0.1296 -0.8072 -0.2390
12760TIP3    H159771   5.447   6.462  14.220 -0.0493 -0.4036  0.7032
12760TIP3    H259772   5.337   6.399  14.303 -0.4356 -1.3788 -0.5077
12761TIP3   OH259773   6.242   3.506  12.477  0.3548  0.4795 -0.8093
12761TIP3    H159774   6.224   3.587  12.428 -1.2191 -0.4027 -1.7394
12761TIP3    H259775   6.224   3.528  12.568 -1.1695  0.8813 -1.1909
12762TIP3   OH259776   5.856   0.504   1.622 -0.3010  0.2679 -0.6085
12762TIP3    H159777   5.761   0.500   1.634 -0.0918  1.1870  1.9290
12762TIP3    H259778   5.868   0.565   1.550 -1.6439 -0.6556 -1.6634
12763TIP3   OH259779   3.187   4.868   4.320 -0.3436 -0.3055 -0.3705
12763TIP3    H159780   3.226   4.780   4.320 -1.2726 -0.7317 -1.4142
12763TIP3    H259781   3.217   4.908   4.239  0.1720  0.4073  0.1551
12764TIP3   OH259782   2.186   3.814   4.642  0.1296  0.5017  0.1611
12764TIP3    H159783   2.100   3.842   4.673  0.9083 -0.0909  3.2295
12764TIP3    H259784   2.166   3.752   4.571 -2.1224 -0.8749  1.8190
12765TIP3   OH259785   4.436   4.199   3.822  0.3250 -0.3279 -0.4063
12765TIP3    H159786   4.434   4.116   3.870  2.0731 -0.1799  0.0295
12765TIP3    H259787   4.399   4.179   3.737 -0.2782 -1.2878  0.0632
12766TIP3   OH259788   1.761   1.617  14.467  0.4532  0.1262 -0.0347
12766TIP3    H159789   1.799   1.650  14.385  1.7832  1.1541  0.9648
12766TIP3    H259790   1.692   1.679  14.488  1.1492  0.7600  0.4219
12767TIP3   OH259791   4.721   2.875  17.123  0.1139 -0.2004  0.0757
12767TIP3    H159792   4.652   2.898  17.185  0.1266  0.4106 -0.1316
12767TIP3    H259793   4.674   2.842  17.046 -0.1101  2.2617 -0.9491
12768TIP3   OH259794   3.645   4.196  15.021 -0.1003 -0.1498 -1.1479
12768TIP3    H159795   3.649   4.163  14.931 -0.7679 -1.0555 -0.8552
12768TIP3    H259796   3.632   4.118  15.075 -1.2802  0.5294 -0.4001
12769TIP3   OH259797   2.647   1.683   1.947 -0.4966  0.1387  1.0191
12769TIP3    H159798   2.673   1.716   2.033 -0.4064  1.0259  0.6625
12769TIP3    H259799   2.729   1.658   1.904 -0.5201 -0.0606  1.0867
12770TIP3   OH259800   2.628   0.594  16.915 -0.2896 -0.0521 -0.0773
12770TIP3    H159801   2.690   0.619  16.983  0.4928 -0.9557 -0.4373
12770TIP3    H259802   2.625   0.669  16.856  0.9125 -0.2072 -0.3625
12771TIP3   OH259803   5.298   1.292  12.852  0.0013  0.1212  0.3976
12771TIP3    H159804   5.379   1.243  12.834 -1.1452 -1.2642 -1.2668
12771TIP3    H259805   5.316   1.380  12.819  0.4915 -0.4554 -0.9164
12772TIP3   OH259806   5.546   5.313   5.102  0.0044  0.1396  0.1453
12772TIP3    H159807   5.526   5.239   5.045  0.3188 -1.0927  1.5589
12772TIP3    H259808   5.564   5.386   5.043  0.4030 -1.0980 -1.3033
12773TIP3   OH259809   3.737   1.683  13.771  0.1068  0.0784 -0.4178
12773TIP3    H159810   3.716   1.732  13.851 -0.2844 -1.5833  0.5272
12773TIP3    H259811   3.801   1.617  13.798 -0.7467 -1.1346 -1.2600
12774TIP3   OH259812   6.750   4.355  12.897 -0.4025 -0.3248 -0.0706
12774TIP3    H159813   6.812   4.385  12.830 -1.1023  0.7087 -0.2706
12774TIP3    H259814   6.743   4.261  12.883  0.2499 -0.2754 -0.7816
12775TIP3   OH259815   2.135   1.080  11.805 -0.1260  0.1468 -0.3698
12775TIP3    H159816   2.082   1.070  11.884 -0.3432 -0.3239 -0.5758
12775TIP3    H259817   2.162   0.992  11.782  0.1269  0.3056 -0.6969
12776TIP3   OH259818   5.134   2.441   6.167 -0.2762  0.6762  0.7782
12776TIP3    H159819   5.159   2.460   6.258  0.6038 -0.7635  0.8726
12776TIP3    H259820   5.047   2.402   6.174 -0.8905  1.9931  0.8312
12777TIP3   OH259821   0.019   0.618   3.597 -0.4460 -0.3103  0.3360
12777TIP3    H159822   0.043   0.532   3.564 -0.4670 -0.4769  0.7457
12777TIP3    H259823   0.072   0.679   3.546 -1.3840 -0.4620 -0.8730
12778TIP3   OH259824   0.885   6.156   6.342 -0.0862  0.1177 -0.4009
12778TIP3    H159825   0.865   6.120   6.428 -2.1548  1.0892 -0.4312
12778TIP3    H259826   0.975   6.188   6.349  0.5988 -1.8859  0.6572
12779TIP3   OH259827   0.952   5.488   1.131  0.1125 -0.0202 -0.2167
12779TIP3    H159828   0.893   5.423   1.093  0.0346 -0.0104 -0.1153
12779TIP3    H259829   0.972   5.548   1.060 -0.0118 -0.0155 -0.2468
12780TIP3   OH259830   6.170   3.527   2.231 -0.2882  0.1700  0.2297
12780TIP3    H159831   6.130   3.460   2.175  3.5488 -0.7948 -1.6736
12780TIP3    H259832   6.235   3.479   2.282  0.8526  2.0531  0.6433
12781TIP3   OH259833   3.189   0.229  14.981  0.4182 -0.2126 -0.1198
12781TIP3    H159834   3.145   0.181  14.911  0.3560  0.4690 -0.5519
12781TIP3    H259835   3.241   0.162  15.026  0.2773 -0.7006 -0.6639
12782TIP3   OH259836   3.311   3.516  11.493 -0.0187 -0.1765 -0.1606
12782TIP3    H159837   3.371   3.446  11.519 -0.8272 -0.8738 -0.1107
12782TIP3    H259838   3.252   3.526  11.568 -0.8735 -0.5256 -0.7726
12783TIP3   OH259839   0.213   1.667   5.893  0.7383  0.2815  0.6160
12783TIP3    H159840   0.121   1.692   5.878  0.8613 -0.3632 -1.6081
12783TIP3    H259841   0.226   1.678   5.987 -1.9855 -0.7878  1.2081
12784TIP3   OH259842   2.716   2.847  15.549 -0.2351 -0.4050  0.2126
12784TIP3    H159843   2.784   2.796  15.505 -0.2385 -0.3958  0.1970
12784TIP3    H259844   2.676   2.786  15.610  0.7918 -0.0211  1.3139
12785TIP3   OH259845   4.230   4.621  16.271  0.6223  0.0454 -0.3789
12785TIP3    H159846   4.226   4.611  16.176 -1.3101 -2.3441 -0.1606
12785TIP3    H259847   4.168   4.692  16.290  0.3530 -0.0548 -0.8607
12786TIP3   OH259848   4.542   5.990  13.448 -0.4085 -0.6127  0.3044
12786TIP3    H159849   4.561   5.993  13.354  1.0427 -1.5282  0.5329
12786TIP3    H259850   4.489   5.911  13.459 -2.1893  0.5050  0.0279
12787TIP3   OH259851   4.335   6.411  16.002  0.4463  0.1655 -0.6388
12787TIP3    H159852   4.294   6.427  16.087  1.1676  0.1719 -0.2855
12787TIP3    H259853   4.312   6.320  15.981  0.9632 -0.1138 -0.0343
12788TIP3   OH259854   2.501   1.049   0.716  0.5805 -0.0951 -0.0151
12788TIP3    H159855   2.410   1.069   0.736  0.2950  0.7180 -1.9133
12788TIP3    H259856   2.514   0.960   0.750 -0.7893 -0.0633  0.6637
12789TIP3   OH259857   5.883   4.080   4.974  0.1985 -0.8897  0.7063
12789TIP3    H159858   5.859   4.166   4.939  1.3882 -0.1621  1.5712
12789TIP3    H259859   5.871   4.020   4.901 -1.8585 -0.2214  0.4263
12790TIP3   OH259860   0.573   4.159  14.342 -0.1884  0.1574  0.5148
12790TIP3    H159861   0.636   4.206  14.287 -0.2030 -0.2206  0.1663
12790TIP3    H259862   0.488   4.192  14.315 -0.1961 -0.0365  0.2971
12791TIP3   OH259863   5.715   3.559  13.247  0.1656  0.1581  0.1032
12791TIP3    H159864   5.689   3.646  13.217  0.1951  0.2678  0.3935
12791TIP3    H259865   5.632   3.512  13.258  0.1844 -0.1683 -0.9801
12792TIP3   OH259866   3.876   4.327  17.153 -0.2549  0.8310  0.0716
12792TIP3    H159867   3.873   4.297  17.243 -0.4489 -0.3932 -0.3320
12792TIP3    H259868   3.789   4.363  17.137 -0.1751  1.1856  0.3984
12793TIP3   OH259869   1.688   1.044   3.696  1.1920  0.1642  0.2373
12793TIP3    H159870   1.687   1.139   3.680 -3.8698  0.6070  1.3244
12793TIP3    H259871   1.703   1.036   3.790  0.1680  0.0531  0.4010
12794TIP3   OH259872   0.796   3.204  12.710  0.2906 -0.1913  0.1048
12794TIP3    H159873   0.829   3.123  12.672  3.1879  1.0197 -0.2218
12794TIP3    H259874   0.746   3.245  12.639 -0.9470 -1.4907  0.1882
12795TIP3   OH259875   0.351   2.470  12.581  0.4169 -0.2737  0.3881
12795TIP3    H159876   0.353   2.482  12.486  0.1698 -1.8707  0.1587
12795TIP3    H259877   0.311   2.384  12.594 -1.0100  0.5661  2.0141
12796TIP3   OH259878   1.766   3.561  14.193 -0.3415  0.0770  0.7585
12796TIP3    H159879   1.769   3.616  14.115  3.5830  0.6130  1.0958
12796TIP3    H259880   1.767   3.623  14.266  0.0550 -0.4178  1.1841
12797TIP3   OH259881   6.180   3.899   4.117  0.3325  0.1256  0.0955
12797TIP3    H159882   6.252   3.943   4.071 -0.6649  2.0932  0.3418
12797TIP3    H259883   6.219   3.819   4.151  2.3676  1.0453  0.0616
12798TIP3   OH259884   4.264   1.551  16.961 -0.2280  0.1483 -0.0650
12798TIP3    H159885   4.293   1.482  17.021  0.7173 -0.1517 -0.8451
12798TIP3    H259886   4.313   1.628  16.988 -1.5985  0.6766  1.0829
12799TIP3   OH259887   3.270   2.053  16.049 -0.3782  0.2982  0.6195
12799TIP3    H159888   3.347   2.070  16.103 -0.2215  1.3835  0.1001
12799TIP3    H259889   3.240   1.966  16.075  0.6331  0.1355  1.2976
12800TIP3   OH259890   2.614   0.991  14.522 -0.7775 -0.2150 -0.4283
12800TIP3    H159891   2.548   0.944  14.471  0.4484 -0.0916 -2.2068
12800TIP3    H259892   2.696   0.949  14.499 -0.1373 -0.0143  1.3419
12801TIP3   OH259893   6.732   1.676   1.688 -0.1234 -0.0647 -0.7047
12801TIP3    H159894   6.703   1.587   1.667  1.2928 -0.9603  0.8960
12801TIP3    H259895   6.757   1.714   1.604 -1.2876 -0.9595 -1.4864
12802TIP3   OH259896   3.422   0.776   2.340 -0.5430  0.9493 -0.4354
12802TIP3    H159897   3.508   0.771   2.300 -0.4794 -0.3991 -0.1588
12802TIP3    H259898   3.433   0.837   2.413 -0.0552  1.4600 -0.9180
12803TIP3   OH259899   5.468   5.399   5.996  0.3738  0.0031 -0.3780
12803TIP3    H159900   5.410   5.400   6.072  0.9245 -2.3831  0.1465
12803TIP3    H259901   5.431   5.334   5.938  2.5549 -1.7660  0.0696
12804TIP3   OH259902   5.847   0.629  15.466  0.2146 -0.2784 -0.0444
12804TIP3    H159903   5.854   0.690  15.540  1.7580  0.0422 -0.4088
12804TIP3    H259904   5.849   0.685  15.389  0.6063 -0.7188 -0.3597
12805TIP3   OH259905   2.962   0.246   6.297 -1.0538 -0.4728  0.0705
12805TIP3    H159906   2.990   0.160   6.327 -0.2030 -0.3438 -0.3352
12805TIP3    H259907   2.870   0.251   6.322 -1.0444 -1.3966  0.3227
12806TIP3   OH259908   4.181   2.396  14.664 -0.3470 -0.0971 -0.7328
12806TIP3    H159909   4.228   2.410  14.582  2.1817  0.6484  0.7139
12806TIP3    H259910   4.123   2.471  14.673 -0.3111  0.0389 -1.6021
12807TIP3   OH259911   0.784   5.999  12.848  0.1590  0.3116 -0.0786
12807TIP3    H159912   0.741   6.082  12.868 -0.0538  1.1469 -3.3313
12807TIP3    H259913   0.745   5.936  12.908 -0.3626  2.3488  1.8574
12808TIP3   OH259914   3.119   0.486  14.908 -0.1518  0.2569  0.5018
12808TIP3    H159915   3.082   0.434  14.836 -0.5222  1.2119 -0.0282
12808TIP3    H259916   3.160   0.422  14.966 -0.6329 -0.6195 -0.1014
12809TIP3   OH259917   1.183   3.228  15.998  0.0850 -0.2138 -0.2991
12809TIP3    H159918   1.213   3.144  16.035  1.0078  0.6118  0.9201
12809TIP3    H259919   1.109   3.204  15.943  0.9491 -1.9633 -0.8001
12810TIP3   OH259920   0.471   3.800  14.417 -0.0407 -0.2011  0.0030
12810TIP3    H159921   0.554   3.848  14.423  0.2813 -0.6686 -0.5744
12810TIP3    H259922   0.430   3.835  14.337 -1.4093  1.5584  1.3987
12811TIP3   OH259923   4.911   1.281   1.249 -0.3596  0.2839  0.2321
12811TIP3    H159924   4.947   1.361   1.288 -0.2070  0.7393 -0.8109
12811TIP3    H259925   4.980   1.249   1.191 -1.0916  0.4269 -0.7637
12812TIP3   OH259926   3.317   6.002   3.166 -0.0466  0.2976 -0.1326
12812TIP3    H159927   3.366   6.027   3.088 -1.1241  2.7314 -0.1164
12812TIP3    H259928   3.301   5.908   3.155  1.5817  0.1555 -1.8044
12813TIP3   OH259929   0.997   5.342   6.524  0.2162  0.2200 -0.1601
12813TIP3    H159930   0.946   5.267   6.496 -0.5725  1.3686 -1.9720
12813TIP3    H259931   1.088   5.317   6.507  0.0119 -0.4972 -0.2324
12814TIP3   OH259932   6.334   6.564  12.032  0.2288  0.4166  0.4258
12814TIP3    H159933   6.364   6.493  12.088  2.6580  0.9466 -0.1028
12814TIP3    H259934   6.344   6.643  12.085  0.7767  0.7082 -0.0915
12815TIP3   OH259935   0.432   6.033  16.151  0.2292  0.3124  0.7144
12815TIP3    H159936   0.512   6.085  16.163 -0.4104  2.2636 -2.3420
12815TIP3    H259937   0.366   6.077  16.205  0.8548 -0.5297  2.2244
12816TIP3   OH259938   5.334   4.811  16.945 -0.2634 -0.2440 -0.0472
12816TIP3    H159939   5.266   4.744  16.951 -1.8981  1.2772 -1.0019
12816TIP3    H259940   5.335   4.837  16.853  0.5169  0.8713  0.2526
12817TIP3   OH259941   4.905   1.584   4.498 -0.6177 -0.2623  0.2622
12817TIP3    H159942   4.999   1.565   4.501 -0.9267 -1.8327  0.7698
12817TIP3    H259943   4.871   1.527   4.429 -0.7764  2.5539 -2.1908
12818TIP3   OH259944   3.262   6.799   1.611  0.2305  0.4528  0.0859
12818TIP3    H159945   3.346   6.842   1.599  0.1977 -0.0106 -2.3556
12818TIP3    H259946   3.282   6.705   1.610 -0.2447  0.3489 -0.0915
12819TIP3   OH259947   2.153   2.048   0.612  0.1277 -0.6576  0.0022
12819TIP3    H159948   2.089   2.022   0.678  0.8214  0.1586  1.0400
12819TIP3    H259949   2.118   2.015   0.530 -1.7083 -0.0849  0.5135
12820TIP3   OH259950   0.311   4.875  15.293  0.0141 -0.1259  0.1819
12820TIP3    H159951   0.258   4.949  15.322 -1.0541 -0.5303 -0.6920
12820TIP3    H259952   0.327   4.892  15.200  0.1843 -0.7544  0.0919
12821TIP3   OH259953   1.682   2.949   6.263  0.2572 -0.4492  0.0591
12821TIP3    H159954   1.685   2.860   6.227 -0.6202 -0.2851 -0.4470
12821TIP3    H259955   1.622   2.941   6.338  0.2439 -0.2997  0.0636
12822TIP3   OH259956   5.579   6.307   4.596 -0.6316  0.1686  0.1422
12822TIP3    H159957   5.484   6.320   4.598 -1.0974 -1.6919 -3.3562
12822TIP3    H259958   5.593   6.224   4.642 -0.9394 -0.4617 -0.8867
12823TIP3   OH259959   3.729   6.549  13.713 -0.0333 -0.4732 -0.3285
12823TIP3    H159960   3.792   6.483  13.684  0.8989  0.6829 -1.0112
12823TIP3    H259961   3.702   6.592  13.632 -1.9247 -1.1115 -0.0794
12824TIP3   OH259962   5.517   0.295   2.728 -0.4515 -0.2937 -0.3615
12824TIP3    H159963   5.504   0.206   2.762 -2.7920  0.2567  0.3511
12824TIP3    H259964   5.507   0.286   2.633 -0.2853 -0.8508 -0.3318
12825TIP3   OH259965   0.069   4.609   3.564 -0.0372 -1.1612  0.2693
12825TIP3    H159966   0.124   4.678   3.601 -1.3363  0.4376 -0.6371
12825TIP3    H259967  -0.001   4.598   3.629 -0.0158 -1.3762  0.2554
12826TIP3   OH259968   2.489   5.859   5.402  0.0253  0.8196 -0.1743
12826TIP3    H159969   2.543   5.810   5.463  0.8365 -0.0468 -1.5222
12826TIP3    H259970   2.551   5.897   5.339 -0.8229  0.8969 -0.9935
12827TIP3   OH259971   5.645   2.215   4.254 -0.3734 -0.1775  0.5210
12827TIP3    H159972   5.589   2.139   4.236 -0.7835  0.3916 -0.6363
12827TIP3    H259973   5.631   2.274   4.181  1.7680 -0.0168  0.1698
12828TIP3   OH259974   2.411   1.511   4.776  0.6423  0.7369 -0.0308
12828TIP3    H159975   2.399   1.571   4.849 -0.2725  1.6698 -0.9067
12828TIP3    H259976   2.506   1.497   4.772  0.7680  1.2853  0.8479
12829TIP3   OH259977   4.706   3.453   1.005  0.8845  0.1716  0.0530
12829TIP3    H159978   4.763   3.530   1.006  4.0898 -2.0237  0.7187
12829TIP3    H259979   4.748   3.393   0.943  0.6237 -2.4640  2.2631
12830TIP3   OH259980   1.275   3.629  12.751 -0.1103 -0.0778  0.2508
12830TIP3    H159981   1.325   3.707  12.776 -0.5636  0.2321  0.2030
12830TIP3    H259982   1.268   3.579  12.832 -2.1653  1.2522  0.9970
12831TIP3   OH259983   3.066   0.519  15.699 -0.1097 -0.2427 -0.4030
12831TIP3    H159984   3.015   0.493  15.776  1.4144 -0.0999  0.7160
12831TIP3    H259985   3.016   0.487  15.624 -1.7908 -0.1487  0.6235
12832TIP3   OH259986   1.490   6.329   2.751  0.1073 -0.1763 -0.0412
12832TIP3    H159987   1.576   6.321   2.709  0.1058  0.6447 -0.2088
12832TIP3    H259988   1.471   6.241   2.783  1.8655  0.0051  1.6756
12833TIP3   OH259989   4.788   6.116  14.310 -0.0403  0.0753 -0.0055
12833TIP3    H159990   4.788   6.199  14.262  1.0681  0.2359  0.2460
12833TIP3    H259991   4.834   6.055  14.253 -0.9998 -0.4309 -0.2611
12834TIP3   OH259992   1.040   0.288   3.572  0.4207  0.5243  0.3193
12834TIP3    H159993   1.098   0.212   3.573  0.4569  0.4766 -1.3438
12834TIP3    H259994   1.091   0.357   3.530 -0.6834  0.4566 -1.2538
12835TIP3   OH259995   2.162   4.569   4.908 -0.2197 -0.2576  0.5584
12835TIP3    H159996   2.150   4.491   4.854 -1.3111  0.1185  0.2391
12835TIP3    H259997   2.195   4.536   4.992  0.2624 -0.9614  0.0977
12836TIP3   OH259998   0.172   2.886  16.755 -0.7525  0.1956 -0.3067
12836TIP3    H159999   0.085   2.870  16.791 -0.5181  0.3792  0.3501
12836TIP3    H260000   0.232   2.852  16.821 -0.2983  1.2129 -0.1861
12837TIP3   OH260001   6.578   2.055  15.517 -0.1777  0.6520 -0.3945
12837TIP3    H160002   6.533   1.971  15.528  0.4807  0.4853  1.3726
12837TIP3    H260003   6.584   2.067  15.422 -0.4410 -1.2009 -0.6799
12838TIP3   OH260004   0.475   0.761  13.401  0.7450 -0.1935  0.4689
12838TIP3    H160005   0.544   0.764  13.468  0.0912  1.6511  1.1557
12838TIP3    H260006   0.513   0.807  13.326  0.4469  0.4274  0.6885
12839TIP3   OH260007   3.869   3.548  12.574  0.5065 -0.0054  0.2848
12839TIP3    H160008   3.835   3.618  12.628  2.0874  2.3650 -1.5527
12839TIP3    H260009   3.812   3.547  12.497  1.5294  0.5198 -0.5002
12840TIP3   OH260010   4.057   1.896   2.915  0.8278 -0.0525  0.2934
12840TIP3    H160011   4.149   1.880   2.936  1.3128  0.1127 -1.5346
12840TIP3    H260012   4.053   1.988   2.888  0.1135 -0.0398  0.3992
12841TIP3   OH260013   2.942   5.206   4.596 -0.1680 -0.3679 -0.3650
12841TIP3    H160014   3.011   5.149   4.563 -2.0763 -3.4244  0.4998
12841TIP3    H260015   2.970   5.230   4.684 -1.0301 -3.4363  0.8758
12842TIP3   OH260016   2.415   0.896   3.534 -0.2137  0.4935  0.7246
12842TIP3    H160017   2.380   0.807   3.528 -0.3961  0.6185 -0.0507
12842TIP3    H260018   2.494   0.886   3.588  1.1804 -0.5853 -1.3624
12843TIP3   OH260019   6.532   2.780   4.361 -0.4463 -0.6420 -0.1090
12843TIP3    H160020   6.459   2.796   4.420  0.6902  2.8983  0.5838
12843TIP3    H260021   6.610   2.799   4.414  1.1789 -4.8440 -0.6124
12844TIP3   OH260022   3.166   5.648  12.730  0.4503  0.0967  0.3084
12844TIP3    H160023   3.219   5.632  12.653  0.3302 -1.2200  0.4787
12844TIP3    H260024   3.200   5.730  12.766  2.7099 -0.9381  0.7031
12845TIP3   OH260025   0.227   4.453  14.508 -0.1399  0.6714  0.3118
12845TIP3    H160026   0.143   4.484  14.542  0.5005  1.0448  1.5951
12845TIP3    H260027   0.291   4.516  14.540  1.2036 -1.7973  2.8698
12846TIP3   OH260028   6.802   2.031   1.743  0.9030  0.0081  0.0034
12846TIP3    H160029   6.787   1.977   1.820  0.0368  0.1639 -0.0458
12846TIP3    H260030   6.863   1.981   1.689  0.3384 -0.7879  0.0916
12847TIP3   OH260031   2.226   2.504  13.682 -0.3479  0.4896  0.4001
12847TIP3    H160032   2.241   2.505  13.587 -1.6101  1.3806  0.1815
12847TIP3    H260033   2.263   2.421  13.712 -0.2974  0.0093 -0.9391
12848TIP3   OH260034   6.264   0.360   6.816  0.7019 -0.3042 -0.1363
12848TIP3    H160035   6.225   0.307   6.886  0.3904  0.2614  0.1303
12848TIP3    H260036   6.287   0.297   6.748  0.1918 -0.7597  0.1037
12849TIP3   OH260037   4.706   2.468  11.384  0.2757  0.1396 -0.1367
12849TIP3    H160038   4.787   2.418  11.388  0.9339  1.0348 -1.4633
12849TIP3    H260039   4.707   2.522  11.464  1.8878  1.4023 -0.9531
12850TIP3   OH260040   0.068   5.523  16.567 -0.1337  0.3645  0.0578
12850TIP3    H160041   0.078   5.492  16.477 -0.2484 -1.8155  0.7304
12850TIP3    H260042   0.053   5.617  16.559  1.2012  0.4450 -2.0973
12851TIP3   OH260043   6.409   1.099   2.764 -0.0670 -0.1112  0.2140
12851TIP3    H160044   6.406   1.044   2.687 -1.7194 -0.4638  0.5002
12851TIP3    H260045   6.340   1.165   2.750  0.1179  0.2804  1.0384
12852TIP3   OH260046   3.138   0.717  16.590  0.1816 -0.2649 -0.4229
12852TIP3    H160047   3.125   0.625  16.565  0.2293 -0.3146 -0.2687
12852TIP3    H260048   3.055   0.744  16.628  0.7748 -0.8556  1.3971
12853TIP3   OH260049   0.075   4.524   1.855  0.2199  0.5495 -0.0065
12853TIP3    H160050   0.116   4.564   1.779  0.5420  2.2619  1.0010
12853TIP3    H260051  -0.002   4.579   1.873 -1.3685 -1.3605 -0.6047
12854TIP3   OH260052   0.594   0.878  10.849  0.2068  0.4228  0.1275
12854TIP3    H160053   0.648   0.852  10.775 -0.6472  1.5028 -0.9125
12854TIP3    H260054   0.614   0.971  10.862  0.0539  0.3374  0.9913
12855TIP3   OH260055   3.188   6.150  15.367  0.6112 -0.8802  0.3819
12855TIP3    H160056   3.210   6.132  15.458  2.4429  2.8928  0.9135
12855TIP3    H260057   3.102   6.190  15.370 -0.4217 -2.9491  0.0507
12856TIP3   OH260058   2.469   6.592   0.909  0.0041 -0.2927  0.4190
12856TIP3    H160059   2.461   6.672   0.858 -0.7275  0.1569  1.2168
12856TIP3    H260060   2.411   6.605   0.984  0.8556 -1.0314  1.2401
12857TIP3   OH260061   3.799   3.830  16.341  0.4512 -0.4244  0.0120
12857TIP3    H160062   3.864   3.802  16.405  3.3318 -0.4717 -2.6813
12857TIP3    H260063   3.844   3.898  16.290 -1.6569 -0.3734 -1.9267
12858TIP3   OH260064   2.444   2.772  11.659  0.0702 -0.5371 -0.0846
12858TIP3    H160065   2.444   2.725  11.576  0.4505 -0.5070 -0.1028
12858TIP3    H260066   2.493   2.852  11.642  0.5053 -0.7231  0.2757
12859TIP3   OH260067   2.167   5.679  16.121  0.3024 -0.1516 -0.5241
12859TIP3    H160068   2.124   5.673  16.207 -0.0467 -0.8081 -0.7378
12859TIP3    H260069   2.139   5.600  16.075 -0.5762  0.8507 -1.7411
12860TIP3   OH260070   1.697   1.436   1.085 -0.8443 -0.1178 -0.1530
12860TIP3    H160071   1.613   1.410   1.046  0.0123 -0.5677 -1.7833
12860TIP3    H260072   1.677   1.517   1.133 -2.2535 -0.3654 -0.2677
12861TIP3   OH260073   1.171   6.547  12.011 -0.3545 -0.1400 -0.1581
12861TIP3    H160074   1.093   6.598  12.031 -0.3843  0.2690 -1.2840
12861TIP3    H260075   1.155   6.509  11.925  0.2955 -0.8308  0.0056
12862TIP3   OH260076   4.743   3.559  16.553 -0.0493  0.5274  0.6495
12862TIP3    H160077   4.829   3.532  16.520 -0.4282  0.8169 -0.6333
12862TIP3    H260078   4.746   3.539  16.647  0.6749 -1.3638  0.2651
12863TIP3   OH260079   5.942   2.938   0.277 -1.0490 -0.7791 -0.4774
12863TIP3    H160080   5.892   3.019   0.285 -0.0865 -0.1517 -0.5794
12863TIP3    H260081   6.009   2.945   0.345 -1.2968 -1.7563 -0.1205
12864TIP3   OH260082   3.294   5.170  12.254  0.2990  0.1730  0.3527
12864TIP3    H160083   3.279   5.093  12.309 -0.3743  0.5794  0.7412
12864TIP3    H260084   3.227   5.232  12.280  0.9381  0.9633  0.1471
12865TIP3   OH260085   6.057   3.797  15.500  0.4849 -0.3397  0.7850
12865TIP3    H160086   6.051   3.893  15.493 -0.1924 -0.3050  1.5939
12865TIP3    H260087   6.043   3.780  15.593 -0.1726 -1.2732  0.5262
12866TIP3   OH260088   3.388   0.521  13.865  0.0398  0.3770 -0.4078
12866TIP3    H160089   3.350   0.554  13.784 -0.2563  0.1848 -0.3505
12866TIP3    H260090   3.312   0.499  13.920  0.2058  2.0035  0.5546
12867TIP3   OH260091   0.726   0.382   1.539  0.6362 -0.1883  0.0946
12867TIP3    H160092   0.653   0.347   1.591 -0.0643  1.5357  0.3130
12867TIP3    H260093   0.756   0.307   1.487 -0.8110 -1.1174  0.5454
12868TIP3   OH260094   0.833   4.998  17.018  0.5447  0.2494 -0.0459
12868TIP3    H160095   0.799   5.003  17.108  1.6217  0.5422  0.3685
12868TIP3    H260096   0.832   5.088  16.987  1.0995  0.2907  0.0429
12869TIP3   OH260097   2.132   5.519   0.972  0.0675  0.5144  0.0705
12869TIP3    H160098   2.069   5.474   0.916  1.0634 -1.2801  0.3211
12869TIP3    H260099   2.087   5.526   1.057  0.1790 -0.8248  0.2695
12870TIP3   OH260100   1.958   0.669  12.295 -0.0936 -0.7917  0.4555
12870TIP3    H160101   1.900   0.613  12.243  0.9049 -2.1883  0.7555
12870TIP3    H260102   2.009   0.718  12.231 -1.1056 -0.0652  0.1859
12871TIP3   OH260103   5.365   6.732  13.146 -0.5700 -0.1233 -0.8843
12871TIP3    H160104   5.400   6.687  13.223 -1.1016  1.1641  0.1576
12871TIP3    H260105   5.399   6.683  13.072  1.9334 -0.0387  0.0938
12872TIP3   OH260106   4.361   4.515  12.565  1.1366  0.3554 -0.1389
12872TIP3    H160107   4.433   4.555  12.516  0.9556  1.3619  0.4077
12872TIP3    H260108   4.282   4.542  12.519  1.1131 -1.7875 -1.5027
12873TIP3   OH260109   0.324   2.289  15.438  0.1092  0.3037  0.2535
12873TIP3    H160110   0.378   2.361  15.405 -0.4665  0.9059  0.6237
12873TIP3    H260111   0.378   2.211  15.423  0.2307  0.6521 -1.2797
12874TIP3   OH260112   3.587   3.357  12.812 -0.3395  0.4047 -0.7717
12874TIP3    H160113   3.668   3.396  12.842 -0.4281  0.5780 -0.7576
12874TIP3    H260114   3.561   3.297  12.882 -0.1777  0.2810 -0.8165
12875TIP3   OH260115   0.562   6.380  11.566 -0.3357  0.0805 -0.7228
12875TIP3    H160116   0.501   6.319  11.525 -0.0147  0.0821 -1.2018
12875TIP3    H260117   0.644   6.331  11.571 -0.7605 -0.5577  1.4558
12876TIP3   OH260118   1.850   3.534   4.034 -0.4146  0.1299 -0.0632
12876TIP3    H160119   1.902   3.492   3.966  1.1456  2.7599 -0.6317
12876TIP3    H260120   1.865   3.628   4.021 -1.3597  0.7885  2.9244
12877TIP3   OH260121   4.915   5.289  16.138 -0.3314  0.2285  0.0115
12877TIP3    H160122   4.995   5.238  16.120 -0.4113  0.0885  0.0480
12877TIP3    H260123   4.903   5.279  16.233 -0.6758 -0.1728 -0.0709
12878TIP3   OH260124   6.217   6.539  15.485 -0.2166 -0.0835 -0.6164
12878TIP3    H160125   6.173   6.578  15.560 -2.3765  2.9684 -3.2022
12878TIP3    H260126   6.310   6.557  15.500 -0.2426 -1.6644  2.2904
12879TIP3   OH260127   1.196   2.010  13.749  0.3511 -0.5829 -0.1374
12879TIP3    H160128   1.180   1.959  13.670  0.9960 -3.0466  1.2097
12879TIP3    H260129   1.276   2.060  13.729 -0.6983  0.5392 -1.7443
12880TIP3   OH260130   4.270   0.785  15.287  0.5238 -0.1016  0.3563
12880TIP3    H160131   4.178   0.758  15.281  0.0749  0.9309  1.7730
12880TIP3    H260132   4.294   0.810  15.198 -1.6151  2.6537  0.4005
12881TIP3   OH260133   3.876   3.858  12.161 -0.4382 -0.0863 -0.0577
12881TIP3    H160134   3.871   3.847  12.066 -1.1007 -3.5154  0.2372
12881TIP3    H260135   3.969   3.847  12.181 -0.0827  2.0396 -0.3680
12882TIP3   OH260136   3.258   2.815   5.994 -0.3131 -0.0417 -0.2238
12882TIP3    H160137   3.241   2.886   6.057 -1.8472  0.6673 -1.3519
12882TIP3    H260138   3.181   2.759   6.001 -0.0349 -0.4934 -0.7696
12883TIP3   OH260139   3.933   4.680   4.672 -0.1275 -0.2201  0.4416
12883TIP3    H160140   3.999   4.740   4.706 -0.8492  0.2697  1.0215
12883TIP3    H260141   3.945   4.682   4.577  1.1512 -0.6981  0.5660
12884TIP3   OH260142   3.619   2.671  13.212  1.0877 -0.0222 -0.1580
12884TIP3    H160143   3.615   2.748  13.267 -1.0525 -0.2127  0.0263
12884TIP3    H260144   3.710   2.641  13.219  1.2446  0.8050  2.0531
12885TIP3   OH260145   4.205   3.412  14.926  0.4195 -0.0432  0.3490
12885TIP3    H160146   4.204   3.389  14.833 -0.1584 -0.7084  0.5096
12885TIP3    H260147   4.125   3.374  14.961  1.1765 -0.7688  1.3522
12886TIP3   OH260148   5.666   0.901  12.548 -1.0325 -0.2821 -0.1333
12886TIP3    H160149   5.658   0.924  12.456  0.7139  0.0395 -0.2497
12886TIP3    H260150   5.665   0.985  12.594 -0.0930 -0.3031 -0.0485
12887TIP3   OH260151   6.694   1.368   4.910  0.2169  0.0752  0.0154
12887TIP3    H160152   6.634   1.411   4.971  0.4036 -0.6020  0.6876
12887TIP3    H260153   6.777   1.364   4.957  0.4610 -0.1274 -0.4288
12888TIP3   OH260154   5.918   3.034  11.091 -0.0559  0.2866  0.5626
12888TIP3    H160155   5.914   3.092  11.015  0.3605  0.2407  0.4994
12888TIP3    H260156   5.836   2.986  11.089 -0.0567  0.2993  0.1482
12889TIP3   OH260157   2.632   0.680   3.957  0.8367  0.0701  0.3144
12889TIP3    H160158   2.570   0.618   3.995  0.8596  0.4323  0.9540
12889TIP3    H260159   2.578   0.732   3.896  0.7528 -0.3602  0.0166
12890TIP3   OH260160   0.759   6.547   5.795  0.2185  0.7682  0.7646
12890TIP3    H160161   0.760   6.470   5.851  1.2001  1.3948  1.6662
12890TIP3    H260162   0.669   6.578   5.797 -0.0030  0.1066  1.0432
12891TIP3   OH260163   6.677   3.625   3.406 -0.4603  0.1597  0.3967
12891TIP3    H160164   6.615   3.629   3.333 -1.3872  0.9112  1.2093
12891TIP3    H260165   6.630   3.580   3.476  0.8225 -1.6116  0.1868
12892TIP3   OH260166   1.831   0.819  12.522 -0.1813  0.3292  0.0497
12892TIP3    H160167   1.906   0.764  12.501 -0.1763  0.9588 -1.7393
12892TIP3    H260168   1.759   0.757  12.536  0.5975 -0.2680  1.6098
12893TIP3   OH260169   6.239   2.829  16.681  0.5116 -0.0554 -0.3083
12893TIP3    H160170   6.295   2.769  16.730 -0.1429 -0.5706 -0.1721
12893TIP3    H260171   6.262   2.813  16.589  0.9308  0.0869 -0.2272
12894TIP3   OH260172   3.265   4.679   2.985  0.4613 -0.2906 -1.2706
12894TIP3    H160173   3.353   4.644   2.977  0.1302 -1.5315 -0.0304
12894TIP3    H260174   3.275   4.758   3.039  0.8202 -0.4344 -1.1252
12895TIP3   OH260175   2.668   1.528  12.364 -0.0818  0.0059  0.5329
12895TIP3    H160176   2.629   1.477  12.435 -0.2925 -0.9177 -0.2102
12895TIP3    H260177   2.712   1.462  12.309  1.0014  0.8285  0.3947
12896TIP3   OH260178   1.306   0.147  11.562  0.3905 -0.2344  0.0350
12896TIP3    H160179   1.273   0.064  11.528  0.4031 -0.7858  1.3241
12896TIP3    H260180   1.383   0.123  11.612 -0.2844  0.3907  1.4198
12897TIP3   OH260181   6.322   2.347  14.530 -0.3896  0.0116  0.7769
12897TIP3    H160182   6.230   2.371  14.543 -0.2376  0.0878  1.7794
12897TIP3    H260183   6.351   2.315  14.616  0.4781 -0.1443  0.4346
12898TIP3   OH260184   5.070   2.356  10.898  0.1389  0.0599 -0.1423
12898TIP3    H160185   5.062   2.302  10.977 -1.8462  1.4936  0.7445
12898TIP3    H260186   5.161   2.385  10.898  0.8935 -2.1395  0.0829
12899TIP3   OH260187   5.219   5.288   5.058 -0.2279  0.0429  0.2687
12899TIP3    H160188   5.303   5.249   5.032 -0.1633 -0.6138  1.3746
12899TIP3    H260189   5.237   5.382   5.063  0.5006 -0.1112  0.6732
12900TIP3   OH260190   4.343   1.381  11.803  0.7347 -0.0990  0.2464
12900TIP3    H160191   4.365   1.426  11.721  0.3904  0.4207  0.4314
12900TIP3    H260192   4.281   1.440  11.846 -0.0397 -0.9365  0.3077
12901TIP3   OH260193   1.400   4.539  13.208  0.1929 -0.4957 -0.3976
12901TIP3    H160194   1.443   4.521  13.292 -0.8729 -0.6498  0.1261
12901TIP3    H260195   1.371   4.453  13.178  1.3327 -0.5623 -1.3671
12902TIP3   OH260196   2.428   5.668  14.088  0.2778  0.2197  0.6811
12902TIP3    H160197   2.335   5.676  14.110  0.4040  1.7594  0.7581
12902TIP3    H260198   2.437   5.714  14.005  0.8125 -0.7689  0.1748
12903TIP3   OH260199   4.842   3.486  12.611  0.3498  0.6835  0.4010
12903TIP3    H160200   4.931   3.503  12.643  0.4582  2.7070 -0.8019
12903TIP3    H260201   4.854   3.464  12.519 -0.3499  0.0260  0.4561
12904TIP3   OH260202   3.753   0.626   0.350 -0.6500  0.3054 -0.1492
12904TIP3    H160203   3.841   0.607   0.382  0.1904  3.1567 -0.5142
12904TIP3    H260204   3.766   0.685   0.276 -2.8001  3.5885  1.7843
12905TIP3   OH260205   3.305   2.394  11.868 -0.2033  0.0079 -0.5628
12905TIP3    H160206   3.304   2.341  11.947 -1.4529  0.3958 -0.3053
12905TIP3    H260207   3.324   2.483  11.898 -2.9926  0.6303 -0.3302
12906TIP3   OH260208   3.440   4.441  11.448 -0.6114 -0.4197  0.0290
12906TIP3    H160209   3.423   4.524  11.493 -0.2682 -0.8281  0.9164
12906TIP3    H260210   3.384   4.445  11.370 -0.6737  0.6017  0.1138
12907TIP3   OH260211   6.518   1.658   3.175  0.0472 -0.2332 -0.0088
12907TIP3    H160212   6.553   1.654   3.264 -1.3949 -0.7617  0.5558
12907TIP3    H260213   6.542   1.745   3.143  2.1246 -0.6711  0.2195
12908TIP3   OH260214   2.060   2.699  13.440  0.0228 -0.1068  0.1277
12908TIP3    H160215   1.984   2.659  13.481  1.7441 -1.8693  1.8115
12908TIP3    H260216   2.114   2.625  13.411  1.7438  1.0223  0.2724
12909TIP3   OH260217   2.883   3.769  13.672  0.6364  0.3439 -0.4034
12909TIP3    H160218   2.833   3.820  13.736 -1.0251 -0.2655 -1.1577
12909TIP3    H260219   2.969   3.757  13.712 -0.0888  0.7075  1.3265
12910TIP3   OH260220   1.283   0.020   4.189 -0.2562 -0.1315  0.2860
12910TIP3    H160221   1.364  -0.026   4.209 -0.0071  0.4785  0.6870
12910TIP3    H260222   1.238  -0.038   4.127  0.1614 -0.7946  0.5922
12911TIP3   OH260223   6.695   0.825  11.110  0.3352  0.2318 -0.0096
12911TIP3    H160224   6.749   0.788  11.041  0.1946  1.2609 -0.6824
12911TIP3    H260225   6.606   0.801  11.087  0.3730 -0.2847  0.3624
12912TIP3   OH260226   1.125   4.827   2.070 -0.0441  0.2936  0.2282
12912TIP3    H160227   1.166   4.741   2.082 -1.9593 -0.9575 -1.4927
12912TIP3    H260228   1.113   4.860   2.159  1.7819 -0.6580  0.8848
12913TIP3   OH260229   6.132   6.069   6.051 -0.0284  0.8581  0.4085
12913TIP3    H160230   6.110   6.019   6.130  1.8209 -1.2608 -0.3228
12913TIP3    H260231   6.073   6.144   6.054 -3.3535 -1.5419  1.3654
12914TIP3   OH260232   3.994   3.605  14.277  0.6694  0.2594  0.8796
12914TIP3    H160233   4.084   3.617  14.307  0.9551 -2.4758  1.3248
12914TIP3    H260234   3.959   3.535  14.331 -0.1050 -2.1439 -2.3860
12915TIP3   OH260235   2.429   2.664   2.343 -0.3030 -0.2588 -0.2999
12915TIP3    H160236   2.362   2.599   2.365 -1.2737  1.7249  3.6197
12915TIP3    H260237   2.380   2.737   2.305  0.1835 -0.2249 -0.8694
12916TIP3   OH260238   3.341   0.878  11.795  0.0233 -0.3620  0.1896
12916TIP3    H160239   3.415   0.837  11.750  0.4182  0.0247  0.4787
12916TIP3    H260240   3.350   0.852  11.886  0.2405  0.3092  0.3644
12917TIP3   OH260241   6.044   3.020  11.613  1.0976 -0.1949  0.4781
12917TIP3    H160242   6.043   3.007  11.518  0.0033 -1.1938  0.6093
12917TIP3    H260243   5.985   3.094  11.627  2.2095  0.7566  0.2994
12918TIP3   OH260244   4.896   3.296   2.616 -0.1174 -0.1593  0.2970
12918TIP3    H160245   4.804   3.294   2.642  0.1508 -0.2286  1.2772
12918TIP3    H260246   4.943   3.262   2.692  0.6005 -1.6769 -0.7715
12919TIP3   OH260247   1.736   1.243  16.622  0.1547  0.1142  0.3677
12919TIP3    H160248   1.789   1.227  16.700 -0.3621  0.1512  0.7353
12919TIP3    H260249   1.646   1.249  16.656  0.2681  5.3064  0.5706
12920TIP3   OH260250   4.038   5.975  10.906 -0.5395 -0.1456  0.1696
12920TIP3    H160251   4.024   5.999  10.814  0.2123 -0.3446  0.0019
12920TIP3    H260252   4.036   5.880  10.906 -0.5173 -0.1451  0.3628
12921TIP3   OH260253   2.559   5.776  12.947  0.3049 -0.2630 -0.1862
12921TIP3    H160254   2.468   5.792  12.922  0.1002  0.0066  0.6825
12921TIP3    H260255   2.553   5.725  13.028  0.9452 -2.1484 -1.2546
12922TIP3   OH260256   4.181   0.980  15.459  0.3509 -0.6855 -0.1586
12922TIP3    H160257   4.223   0.927  15.391  0.7938 -1.1536  0.4773
12922TIP3    H260258   4.209   0.941  15.542 -1.2085 -0.9190  0.2971
12923TIP3   OH260259   6.180   1.822   6.254 -0.0563  0.3158  0.1865
12923TIP3    H160260   6.251   1.864   6.206 -1.2880  0.2276 -1.8686
12923TIP3    H260261   6.120   1.894   6.277  0.5287  0.3588  1.6767
12924TIP3   OH260262   6.626   3.976  11.371 -0.4940  0.0202 -0.1360
12924TIP3    H160263   6.684   3.900  11.374  0.8442  0.9757 -0.8156
12924TIP3    H260264   6.642   4.023  11.453  2.9352  2.5015 -1.9831
12925TIP3   OH260265   1.927   1.278  16.185  0.4136  0.1837  0.4263
12925TIP3    H160266   2.006   1.263  16.236 -0.2234 -0.2030  1.3337
12925TIP3    H260267   1.953   1.341  16.118  1.3135  0.5729  1.1218
12926TIP3   OH260268   5.360   6.661   5.958  0.2074  0.3258 -0.2508
12926TIP3    H160269   5.434   6.655   5.897 -1.0551  2.2464 -2.1459
12926TIP3    H260270   5.303   6.589   5.933  0.3621  0.2458 -0.3804
12927TIP3   OH260271   0.535   4.124  11.933  0.5887  0.0113  0.4570
12927TIP3    H160272   0.558   4.065  12.005 -0.3661 -0.3568  0.4762
12927TIP3    H260273   0.565   4.079  11.854 -0.7972 -0.8846  0.4031
12928TIP3   OH260274   1.644   0.170  15.112 -0.5096 -0.4599 -0.8591
12928TIP3    H160275   1.709   0.171  15.183 -0.6292 -2.3228 -0.6645
12928TIP3    H260276   1.681   0.228  15.045  0.4559 -0.0392  0.0095
12929TIP3   OH260277   5.609   3.679  10.739 -0.0997  0.5011  0.4421
12929TIP3    H160278   5.614   3.748  10.673  0.2363 -1.6839 -2.0376
12929TIP3    H260279   5.562   3.718  10.812 -0.1371  3.2366 -0.9096
12930TIP3   OH260280   0.284   5.640   0.241 -0.2159 -0.1509  0.5547
12930TIP3    H160281   0.234   5.565   0.210 -1.4686  0.7408  0.3309
12930TIP3    H260282   0.314   5.684   0.161 -1.7478  1.0397  0.6028
12931TIP3   OH260283   0.068   3.573  13.963 -0.0150 -0.0507 -0.4043
12931TIP3    H160284   0.052   3.482  13.937 -0.5037  0.7085 -2.9474
12931TIP3    H260285   0.160   3.573  13.992  0.6837 -0.9631 -2.4285
12932TIP3   OH260286   4.593   4.787   0.260 -0.2391  0.3416 -0.2325
12932TIP3    H160287   4.602   4.768   0.167  1.0886  0.8652 -0.2287
12932TIP3    H260288   4.584   4.701   0.302  0.3055  0.0462 -0.7278
12933TIP3   OH260289   1.792   2.514   2.159 -0.1895  0.0516  0.2929
12933TIP3    H160290   1.885   2.491   2.160 -0.0362  0.6694  0.7815
12933TIP3    H260291   1.756   2.472   2.237 -0.2776  0.0033  0.2266
12934TIP3   OH260292   2.257   5.080   2.495  0.0885 -0.1819  0.1717
12934TIP3    H160293   2.174   5.122   2.517  0.0572 -0.9185  1.5413
12934TIP3    H260294   2.269   5.099   2.402 -1.3560  0.3684  0.0691
12935TIP3   OH260295   3.024   5.682   5.092 -0.3326  0.4542 -0.6807
12935TIP3    H160296   2.962   5.609   5.099 -1.2534  1.1307 -1.5206
12935TIP3    H260297   3.078   5.661   5.016 -0.2183  0.3759 -0.5787
12936TIP3   OH260298   0.265   0.306   3.553 -0.0683  0.3662  0.7287
12936TIP3    H160299   0.195   0.356   3.511  0.0239 -1.0848 -1.2523
12936TIP3    H260300   0.245   0.215   3.533  0.9270 -0.2851  2.4673
12937TIP3   OH260301   6.629   3.553  13.678  0.1888  0.2079  0.3419
12937TIP3    H160302   6.698   3.614  13.650 -0.8680  1.6797  0.8076
12937TIP3    H260303   6.560   3.610  13.713  0.0888 -1.3491  2.9637
12938TIP3   OH260304   4.238   1.728   5.155 -0.8662  0.1114  0.6223
12938TIP3    H160305   4.218   1.719   5.062  1.0311  1.8392 -0.0179
12938TIP3    H260306   4.209   1.817   5.177 -1.7203 -0.4324  1.8455
12939TIP3   OH260307   6.661   5.887  11.129 -0.1104 -0.0616 -0.3014
12939TIP3    H160308   6.602   5.896  11.054  1.6777 -0.4719 -1.8115
12939TIP3    H260309   6.672   5.792  11.140  1.6660 -0.0022 -1.2301
12940TIP3   OH260310   0.097   2.845   3.960  0.1247 -0.6297  0.4131
12940TIP3    H160311   0.075   2.816   4.049  0.0756  1.8437  1.2997
12940TIP3    H260312   0.192   2.852   3.960  0.0169  1.6682  1.1489
12941TIP3   OH260313   0.541   2.437  11.387  0.5988  0.1587  0.0918
12941TIP3    H160314   0.476   2.412  11.452  0.5964  2.1822  0.9670
12941TIP3    H260315   0.618   2.384  11.408 -0.2938 -1.2266 -0.0574
12942TIP3   OH260316   2.041   2.432   2.238  0.0329 -0.0325 -0.0349
12942TIP3    H160317   1.999   2.388   2.312 -0.8512 -0.2352 -0.6343
12942TIP3    H260318   2.135   2.431   2.259 -0.3256  1.3293  1.8008
12943TIP3   OH260319   0.568   2.606   1.155 -0.3715 -0.6703  0.1346
12943TIP3    H160320   0.619   2.639   1.082  0.9140  0.8016  1.6084
12943TIP3    H260321   0.492   2.664   1.160 -0.4776 -0.7940 -0.0616
12944TIP3   OH260322   0.385   3.426  12.580 -0.0582  0.0862 -0.1499
12944TIP3    H160323   0.451   3.495  12.568  0.0139 -0.3399 -2.6915
12944TIP3    H260324   0.302   3.469  12.558 -0.3278 -0.0056  0.6793
12945TIP3   OH260325   4.863   0.903   4.459  0.0738  0.1494  0.0114
12945TIP3    H160326   4.872   0.909   4.554 -0.4996 -1.1671  0.1661
12945TIP3    H260327   4.835   0.813   4.442  1.1184  0.0532 -1.4880
12946TIP3   OH260328   5.164   4.289  14.886  0.6201  0.1942 -0.3371
12946TIP3    H160329   5.179   4.309  14.979  0.4872  0.8585 -0.4556
12946TIP3    H260330   5.153   4.374  14.845 -3.1074 -0.0991 -0.3370
12947TIP3   OH260331   2.099   5.918   1.041 -0.0448 -0.0760  0.0262
12947TIP3    H160332   2.170   5.867   1.002  0.9118  0.5741  0.8496
12947TIP3    H260333   2.090   5.883   1.130 -1.7930 -1.1438 -0.5245
12948TIP3   OH260334   4.264   3.572  12.144  0.0849  0.6358  0.7682
12948TIP3    H160335   4.173   3.547  12.158  0.4303 -1.2972 -0.0999
12948TIP3    H260336   4.266   3.608  12.055  0.2093  0.4959  0.7151
12949TIP3   OH260337   1.022   0.512  16.462 -0.1303 -0.1656 -0.3567
12949TIP3    H160338   1.008   0.538  16.553  1.2450  0.0906 -0.1950
12949TIP3    H260339   1.036   0.418  16.466 -0.3711 -0.2017 -0.3452
12950TIP3   OH260340   3.786   4.555  13.426 -0.0187 -0.5030 -0.2340
12950TIP3    H160341   3.875   4.564  13.458  1.0860  0.9706 -3.2789
12950TIP3    H260342   3.754   4.645  13.416 -1.8528 -0.9964  0.7246
12951TIP3   OH260343   6.557   3.875   5.773 -0.1521  0.1586  0.3386
12951TIP3    H160344   6.491   3.925   5.822  0.6657  0.4448  1.1592
12951TIP3    H260345   6.505   3.815   5.719 -1.0937  0.4050  0.9357
12952TIP3   OH260346   6.102   0.803  11.012  0.2961  0.7264 -0.0457
12952TIP3    H160347   6.115   0.875  11.074  2.9968 -0.0935  0.4468
12952TIP3    H260348   6.189   0.787  10.975 -0.3717 -1.8072 -0.6945
12953TIP3   OH260349   5.138   6.149  12.590 -0.0619 -0.3904  0.4636
12953TIP3    H160350   5.054   6.107  12.572  0.5092 -1.2030 -0.4937
12953TIP3    H260351   5.124   6.242  12.573  0.1843 -0.9406 -3.8874
12954TIP3   OH260352   1.460   3.039  14.991  0.9172  0.9516  1.2303
12954TIP3    H160353   1.547   3.000  14.996  1.3513  1.3963 -1.4087
12954TIP3    H260354   1.410   2.994  15.059  2.7066 -0.6161  1.6009
12955TIP3   OH260355   0.682   2.348   3.159  0.3069  0.1954 -0.1822
12955TIP3    H160356   0.767   2.355   3.204 -0.2430  0.5911  0.8156
12955TIP3    H260357   0.682   2.261   3.121  2.4474  1.2077 -2.8346
12956TIP3   OH260358   5.753   3.943  13.878 -0.2181 -0.0511 -0.2445
12956TIP3    H160359   5.803   3.984  13.807  1.2190 -1.5412 -0.1553
12956TIP3    H260360   5.705   4.015  13.918  1.0995  1.3015 -0.9791
12957TIP3   OH260361   5.227   6.208   4.420 -0.0466  0.5708  0.4197
12957TIP3    H160362   5.237   6.284   4.478  2.0097 -0.3275  1.3547
12957TIP3    H260363   5.298   6.149   4.446 -1.3147 -1.5016 -0.5587
12958TIP3   OH260364   2.291   1.729  11.266  0.5479 -0.1214 -0.4883
12958TIP3    H160365   2.307   1.758  11.177 -0.5672 -2.6588 -1.6145
12958TIP3    H260366   2.197   1.742  11.279  0.8086  0.8247  0.5759
12959TIP3   OH260367   2.426   1.871  13.273 -0.2668 -0.6578  0.0455
12959TIP3    H160368   2.422   1.931  13.348 -0.0519 -1.0635  0.3894
12959TIP3    H260369   2.367   1.799  13.297 -3.4099  1.0642 -1.8956
12960TIP3   OH260370   4.467   4.598  16.014  0.1578 -0.4389  0.4058
12960TIP3    H160371   4.439   4.689  16.006 -0.7582 -0.7632 -0.2768
12960TIP3    H260372   4.418   4.551  15.946  1.2327 -1.3127  0.2008
12961TIP3   OH260373   1.320   4.305  16.867  0.1889 -0.3049  0.4905
12961TIP3    H160374   1.366   4.263  16.940 -0.9061 -1.2672  0.6496
12961TIP3    H260375   1.390   4.335  16.809  1.0271 -1.7743  0.6953
12962TIP3   OH260376   0.902   0.051   2.748  0.4156  0.1684  0.2167
12962TIP3    H160377   0.831  -0.005   2.718 -0.6073  1.0787  0.8697
12962TIP3    H260378   0.860   0.115   2.805  1.4030  2.1456 -1.1558
12963TIP3   OH260379   6.485   5.703   3.772 -0.3060 -0.2500 -0.5147
12963TIP3    H160380   6.402   5.700   3.820 -0.6159  0.0405 -1.0246
12963TIP3    H260381   6.549   5.665   3.833 -0.1891  2.3373  1.1114
12964TIP3   OH260382   4.657   2.436   3.230  0.1542 -0.0802 -0.3508
12964TIP3    H160383   4.729   2.497   3.210 -0.7073  0.4615 -1.9448
12964TIP3    H260384   4.612   2.476   3.304  0.0258  0.8873 -0.9291
12965TIP3   OH260385   3.190   3.507   1.932  0.2544  0.2587  0.3226
12965TIP3    H160386   3.170   3.597   1.959 -3.0394 -0.3434  0.2992
12965TIP3    H260387   3.149   3.499   1.846  0.7009 -1.2102  0.2303
12966TIP3   OH260388   2.953   1.896   0.665 -0.2933  0.0692  0.4034
12966TIP3    H160389   3.019   1.889   0.596 -0.8351 -0.0293 -0.1013
12966TIP3    H260390   3.003   1.886   0.746  0.2769 -0.2685  0.0147
12967TIP3   OH260391   4.430   2.976   1.453 -0.6267  0.0235  0.6128
12967TIP3    H160392   4.354   2.979   1.395  0.2774 -0.8040 -0.6775
12967TIP3    H260393   4.395   2.948   1.537 -2.0280  1.5544  0.6086
12968TIP3   OH260394   1.251   1.194  14.621 -0.4527  0.0693 -0.2451
12968TIP3    H160395   1.173   1.246  14.600 -1.5331 -1.0808  0.7514
12968TIP3    H260396   1.292   1.241  14.694  0.4482  1.2640 -1.4559
12969TIP3   OH260397   5.742   0.982   5.767 -0.2795  0.0005  0.0302
12969TIP3    H160398   5.764   1.027   5.848 -0.1640 -3.5474  2.1909
12969TIP3    H260399   5.827   0.962   5.727 -0.2744  0.1906 -0.0583
12970TIP3   OH260400   2.404   1.429  11.890 -0.0407 -0.2083 -0.0505
12970TIP3    H160401   2.494   1.455  11.868 -0.1872  0.6829  0.3611
12970TIP3    H260402   2.408   1.404  11.982 -0.2455 -0.0344  0.0057
12971TIP3   OH260403   1.568   4.895  13.841  0.1453 -0.5227  0.4786
12971TIP3    H160404   1.478   4.882  13.810 -0.1638  0.4597  0.9073
12971TIP3    H260405   1.620   4.908  13.762 -0.4502  0.9129  0.2929
12972TIP3   OH260406   6.666   6.654  14.244  0.4796  0.2566  0.0677
12972TIP3    H160407   6.697   6.563  14.243 -1.2403 -0.3754  0.8290
12972TIP3    H260408   6.696   6.690  14.160 -3.5783 -2.7422 -3.1044
12973TIP3   OH260409   1.351   3.442   0.737 -0.0592  0.1265 -0.6636
12973TIP3    H160410   1.262   3.465   0.763  0.4083  0.6503  0.5476
12973TIP3    H260411   1.340   3.382   0.664 -1.4843 -1.8126  1.0418
12974TIP3   OH260412   1.159   2.494  13.066 -0.0657 -0.2961 -0.5006
12974TIP3    H160413   1.175   2.454  13.151 -0.3634  0.0410 -0.2858
12974TIP3    H260414   1.244   2.490  13.021  0.4315  0.7388  0.3186
12975TIP3   OH260415   4.553   1.423  12.736  0.1634  0.1457  0.7303
12975TIP3    H160416   4.482   1.443  12.675  1.6000  0.7401 -0.8323
12975TIP3    H260417   4.511   1.373  12.806 -2.0838  1.8591  0.7254
12976TIP3   OH260418   3.776   5.433  16.031  0.3217 -0.4159  0.3673
12976TIP3    H160419   3.870   5.446  16.042  0.1165  0.0843  1.7252
12976TIP3    H260420   3.736   5.483  16.102 -0.9752 -0.6339 -0.1738
12977TIP3   OH260421   5.433   0.503   4.410  0.5312  0.0449 -0.4325
12977TIP3    H160422   5.368   0.432   4.407 -0.1871  0.6583  0.0812
12977TIP3    H260423   5.495   0.482   4.340 -0.8896  0.0746 -1.7512
12978TIP3   OH260424   5.335   6.505   3.957 -0.0636 -0.2882 -0.0082
12978TIP3    H160425   5.294   6.581   3.915  0.6098 -0.7205 -1.5483
12978TIP3    H260426   5.427   6.510   3.929  0.1253 -1.2982  0.4183
12979TIP3   OH260427   1.349   5.154   5.798  0.2580 -0.0520 -0.0365
12979TIP3    H160428   1.357   5.139   5.892  1.0078 -0.5039 -0.1642
12979TIP3    H260429   1.365   5.069   5.758 -0.5000  0.0428 -0.5614
12980TIP3   OH260430   5.765   5.790   0.541  0.2832  0.2878 -0.1142
12980TIP3    H160431   5.786   5.817   0.631  1.8603 -0.6326 -0.1732
12980TIP3    H260432   5.832   5.831   0.487 -0.3671  0.4312 -0.8293
12981TIP3   OH260433   3.581   5.354   1.006  0.0925  0.2769  0.1371
12981TIP3    H160434   3.633   5.274   1.016  0.6117  0.4894 -0.7481
12981TIP3    H260435   3.626   5.403   0.937  0.3048  1.7541  1.2714
12982TIP3   OH260436   1.837   6.192   3.405  0.0068  0.2301  0.1902
12982TIP3    H160437   1.802   6.109   3.439 -1.2111  0.6670  0.0784
12982TIP3    H260438   1.764   6.253   3.414  0.2463  0.8152 -1.5493
12983TIP3   OH260439   0.897   1.716  13.174  0.7357 -0.2098  0.2323
12983TIP3    H160440   0.969   1.692  13.115 -1.4012  0.3111 -2.8285
12983TIP3    H260441   0.860   1.632  13.201  1.5190 -0.4592  0.5608
12984TIP3   OH260442   6.327   0.224  12.704 -0.9329 -0.5974  0.0934
12984TIP3    H160443   6.422   0.228  12.692 -0.7814 -2.3323  0.4068
12984TIP3    H260444   6.315   0.222  12.799 -1.3832  0.7099  0.0913
12985TIP3   OH260445   6.816   6.518   0.431 -0.3710 -0.3188 -0.4790
12985TIP3    H160446   6.811   6.546   0.340 -1.7349  1.8915  0.2132
12985TIP3    H260447   6.849   6.595   0.478  3.2123 -2.2786  0.6049
12986TIP3   OH260448   0.537   5.543  12.303 -0.5833 -0.7396 -0.0061
12986TIP3    H160449   0.589   5.566  12.381 -0.9836  0.9031 -0.1876
12986TIP3    H260450   0.585   5.471  12.263  0.0265 -1.1325  1.3629
12987TIP3   OH260451   3.045   2.313   3.610  0.2167  0.4184  0.4211
12987TIP3    H160452   3.094   2.387   3.644 -2.1006  1.1268  2.5290
12987TIP3    H260453   3.085   2.237   3.652  0.8654  0.7399  0.4011
12988TIP3   OH260454   5.322   1.081   0.550 -0.0504  0.1669 -0.4494
12988TIP3    H160455   5.399   1.091   0.495  0.9329 -2.2484  0.3598
12988TIP3    H260456   5.337   1.139   0.624 -0.9771  2.7713 -2.1659
12989TIP3   OH260457   5.731   2.223  13.756  0.3423 -0.1821  0.1607
12989TIP3    H160458   5.755   2.304  13.710  1.4936  0.4490  1.8002
12989TIP3    H260459   5.635   2.222  13.753  0.3526  0.3301 -1.3679
12990TIP3   OH260460   3.284   4.666   1.810 -0.4016 -0.0736  0.0203
12990TIP3    H160461   3.255   4.600   1.748 -0.5886 -0.2330  0.2733
12990TIP3    H260462   3.229   4.652   1.887  0.8655 -0.8785  0.8129
12991TIP3   OH260463   1.439   3.286  16.566 -0.2610 -0.5687  0.1312
12991TIP3    H160464   1.492   3.343  16.623 -1.8553 -0.2889  1.3998
12991TIP3    H260465   1.493   3.208  16.554  1.6576  0.8340 -1.0280
12992TIP3   OH260466   2.678   4.410   3.195  0.1322  0.5321 -0.1913
12992TIP3    H160467   2.759   4.452   3.224 -0.2527  0.3945  1.1419
12992TIP3    H260468   2.702   4.319   3.179  0.0158  0.2143  1.3297
12993TIP3   OH260469   6.062   5.131  16.670  0.1345 -1.0531  0.3490
12993TIP3    H160470   6.115   5.069  16.720  0.4136 -0.6098  0.6080
12993TIP3    H260471   6.075   5.105  16.578  0.9676 -0.8260  0.3922
12994TIP3   OH260472   3.029   3.115   2.738 -0.7545 -0.0538  0.1074
12994TIP3    H160473   2.992   3.058   2.805  1.4189 -1.3268  0.3276
12994TIP3    H260474   3.032   3.201   2.780 -1.5106 -0.3423  0.7927
12995TIP3   OH260475   3.020   2.128   5.557  0.3568 -0.2926 -0.4670
12995TIP3    H160476   3.012   2.074   5.635 -1.4490 -0.0930 -0.4683
12995TIP3    H260477   3.097   2.183   5.574  0.4337 -0.7661  0.8338
12996TIP3   OH260478   0.201   1.253  17.173  0.4415 -0.3151 -0.3704
12996TIP3    H160479   0.164   1.165  17.175 -1.7787  0.3826 -3.0677
12996TIP3    H260480   0.179   1.291  17.258 -1.3185 -1.4058 -0.2897
12997TIP3   OH260481   5.055   2.171  14.038 -0.1671  0.1249 -0.3673
12997TIP3    H160482   5.036   2.154  14.130 -1.4545 -0.5996 -0.7547
12997TIP3    H260483   5.051   2.267  14.031  0.8243  0.2508  0.4947
12998TIP3   OH260484   5.978   1.674   3.158 -0.3818 -0.4691 -0.8437
12998TIP3    H160485   5.997   1.619   3.082  1.3756 -0.1355 -0.6727
12998TIP3    H260486   5.993   1.763   3.128 -1.6955 -0.1584 -0.6654
12999TIP3   OH260487   5.890   1.307  14.029 -0.0472 -0.1570 -0.3309
12999TIP3    H160488   5.931   1.249  14.093  0.4302  0.9031  0.3524
12999TIP3    H260489   5.963   1.357  13.991 -0.6845  2.4927  1.6318
13000TIP3   OH260490   4.961   2.270   4.773 -0.0933  0.0248  0.0321
13000TIP3    H160491   4.891   2.242   4.714  0.6572  2.4038 -2.2020
13000TIP3    H260492   5.011   2.190   4.790 -2.6278 -1.5089  0.7942
13001TIP3   OH260493   2.643   4.061  16.225  0.3694  0.7871 -0.0573
13001TIP3    H160494   2.628   4.072  16.131  0.1749 -0.0545 -0.1307
13001TIP3    H260495   2.674   4.146  16.254 -1.0601  1.5272 -0.5948
13002TIP3   OH260496   0.889   0.144  11.208  0.1050  0.2441 -0.3338
13002TIP3    H160497   0.952   0.166  11.139 -1.8423  2.9427 -1.4608
13002TIP3    H260498   0.907   0.207  11.278 -1.6218  1.5042 -0.9459
13003TIP3   OH260499   6.571   0.779  12.487 -0.1156 -0.3002  0.1511
13003TIP3    H160500   6.518   0.791  12.565 -0.9936  1.3785 -0.6643
13003TIP3    H260501   6.655   0.819  12.509  0.6339 -2.2674  1.1591
13004TIP3   OH260502   3.981   5.241  15.778  0.2551  0.5066  0.3392
13004TIP3    H160503   3.904   5.189  15.753 -0.6837  1.7791  0.5092
13004TIP3    H260504   3.999   5.295  15.701  1.3246 -0.1433  0.1043
13005TIP3   OH260505   0.514   3.967   5.942  0.6105 -0.0337  0.0970
13005TIP3    H160506   0.493   3.972   5.849 -1.1535 -0.0608  0.4516
13005TIP3    H260507   0.519   4.058   5.970  0.6377 -0.0296  0.0782
13006TIP3   OH260508   5.921   2.355  14.120  0.6096 -0.0372  0.0941
13006TIP3    H160509   5.941   2.396  14.035  1.1472  1.1916  0.7802
13006TIP3    H260510   5.838   2.310  14.105 -0.0136  1.2918 -0.7509
13007TIP3   OH260511   5.102   4.614  13.979  0.1892 -0.4194 -0.4054
13007TIP3    H160512   5.165   4.659  14.036  0.0909 -0.5331 -0.2050
13007TIP3    H260513   5.076   4.537  14.029 -1.3467  0.4677  0.2362
13008TIP3   OH260514   1.830   0.119  14.262 -0.2796 -0.4794  0.4635
13008TIP3    H160515   1.762   0.076  14.211 -1.0900  1.7005 -0.3925
13008TIP3    H260516   1.912   0.082  14.228 -0.7187  1.3918 -3.0817
13009TIP3   OH260517   3.658   3.097  15.686 -0.0821 -0.2461 -0.2223
13009TIP3    H160518   3.626   3.049  15.762  2.0099  0.1287  0.9835
13009TIP3    H260519   3.710   3.169  15.723  0.8337  0.0669 -2.0003
13010TIP3   OH260520   5.366   6.033  16.565  0.7900  0.2336  0.1228
13010TIP3    H160521   5.399   6.031  16.475  2.1794 -0.0453  0.6042
13010TIP3    H260522   5.363   5.940  16.591  0.3479  0.3089  0.3522
13011TIP3   OH260523   4.708   4.119  14.129  0.4781 -0.3080  0.0054
13011TIP3    H160524   4.641   4.161  14.075 -0.2416 -1.2547  0.1239
13011TIP3    H260525   4.753   4.059  14.070  1.4761  0.5578 -0.1541
13012TIP3   OH260526   3.248   1.530  10.120 -0.2043  0.2866 -0.3765
13012TIP3    H160527   3.320   1.468  10.110  0.0863  0.6307 -0.4476
13012TIP3    H260528   3.238   1.540  10.215  0.9976  1.5451 -0.3471
13013TIP3   OH260529   4.524   0.216   2.836 -0.4570  0.1797 -0.5208
13013TIP3    H160530   4.487   0.269   2.906  0.5396 -0.3101  0.4226
13013TIP3    H260531   4.491   0.255   2.755  0.0762  2.1050  0.1373
13014TIP3   OH260532   3.688   1.507  11.176  0.0475  0.1460 -0.2430
13014TIP3    H160533   3.727   1.493  11.090 -0.4951 -1.1486 -0.3017
13014TIP3    H260534   3.763   1.510  11.236  0.5566  2.5669 -0.8720
13015TIP3   OH260535   2.426   1.400  16.657  0.5065 -0.2569 -0.0163
13015TIP3    H160536   2.411   1.328  16.719 -1.3511  0.8223  0.8734
13015TIP3    H260537   2.338   1.433  16.637  1.0972  0.0019 -2.6026
13016TIP3   OH260538   5.990   0.382   4.041  0.0068 -0.5680 -0.3191
13016TIP3    H160539   6.070   0.356   3.996  0.0029 -0.3125 -0.4724
13016TIP3    H260540   5.994   0.336   4.125  0.9077  0.3890  0.1788
13017TIP3   OH260541   0.215   6.592   6.285 -0.1551 -0.7011 -0.0458
13017TIP3    H160542   0.310   6.585   6.274  0.3642  1.2680  2.3499
13017TIP3    H260543   0.194   6.681   6.258 -0.7433 -0.0205  2.4589
13018TIP3   OH260544   3.456   3.822   5.680  0.0787  0.0566 -0.5348
13018TIP3    H160545   3.441   3.835   5.587  0.6226  0.7955 -0.5309
13018TIP3    H260546   3.524   3.886   5.702  0.2900 -0.4356  0.2665
13019TIP3   OH260547   4.662   2.688   6.205  0.0077 -0.1457 -0.0692
13019TIP3    H160548   4.675   2.598   6.234  1.1445  0.4031  1.1901
13019TIP3    H260549   4.750   2.722   6.192 -0.1359  1.9980  3.3960
13020TIP3   OH260550   1.879   2.391   5.075  0.2901 -0.3314 -0.2092
13020TIP3    H160551   1.912   2.302   5.062  1.9433  0.4632 -1.7147
13020TIP3    H260552   1.786   2.378   5.095  0.0895 -2.3417 -2.0122
13021TIP3   OH260553   5.332   3.013   0.534 -0.2567 -0.3239  0.3077
13021TIP3    H160554   5.314   3.003   0.441 -2.0604  1.1266  0.4301
13021TIP3    H260555   5.268   2.956   0.577 -0.4912  0.2087  0.6763
13022TIP3   OH260556   6.820   0.707  10.830 -0.5799  0.7056  0.0747
13022TIP3    H160557   6.762   0.633  10.851 -0.3388  0.0420 -1.4924
13022TIP3    H260558   6.894   0.667  10.785  0.8243  1.6160  1.4728
13023TIP3   OH260559   4.669   0.961  13.941 -0.2389 -0.2631 -0.6002
13023TIP3    H160560   4.752   0.917  13.956 -0.5301 -0.7177 -0.2784
13023TIP3    H260561   4.617   0.940  14.019  0.4548  2.6921  0.8127
13024TIP3   OH260562   4.086   3.272  14.323 -0.3670 -0.7578 -0.4810
13024TIP3    H160563   4.081   3.232  14.236 -0.6420 -0.6657 -0.5094
13024TIP3    H260564   4.163   3.329  14.319 -1.3526  0.5867 -1.2391
13025TIP3   OH260565   1.451   1.989   4.817 -0.7851 -0.3943  0.6832
13025TIP3    H160566   1.374   1.991   4.760  1.2543  4.6752 -2.6174
13025TIP3    H260567   1.524   1.971   4.758  1.0982  1.1311  2.3726
13026TIP3   OH260568   0.829   5.350  10.728  0.5610 -0.5433 -0.6726
13026TIP3    H160569   0.781   5.429  10.704 -1.1578 -0.9542  1.1396
13026TIP3    H260570   0.899   5.380  10.786 -2.1012 -0.5057  2.7943
13027TIP3   OH260571   5.571   1.187   6.039  0.2632  0.7178  0.1621
13027TIP3    H160572   5.644   1.126   6.049  0.3629  0.3101 -2.3415
13027TIP3    H260573   5.611   1.269   6.011 -0.0822  1.0990  0.7731
13028TIP3   OH260574   3.275   1.631  17.100 -0.3050  0.3197 -0.1628
13028TIP3    H160575   3.365   1.662  17.090 -0.5588  0.8054 -1.0942
13028TIP3    H260576   3.267   1.562  17.034 -0.1513 -0.8430  0.9934
13029TIP3   OH260577   2.052   0.403   4.637  0.1251  0.5797 -0.0038
13029TIP3    H160578   2.004   0.379   4.557  0.1328 -0.6506  0.3357
13029TIP3    H260579   2.042   0.498   4.643 -1.8829  0.4373 -0.2180
13030TIP3   OH260580   2.769   3.439  11.121  0.1972  0.0817 -0.0742
13030TIP3    H160581   2.677   3.423  11.143 -0.0753  0.3888 -0.9556
13030TIP3    H260582   2.767   3.468  11.029  1.2921 -1.1808 -0.5205
13031TIP3   OH260583   6.042   1.827  14.548 -0.1927  0.6499  0.8279
13031TIP3    H160584   6.083   1.747  14.582 -0.6854  0.5537  1.2006
13031TIP3    H260585   5.956   1.799  14.518 -0.8623  1.2618  2.1025
13032TIP3   OH260586   2.362   6.146  15.236 -0.0714  0.3809 -0.2879
13032TIP3    H160587   2.382   6.101  15.154  0.2492 -0.4179  0.2170
13032TIP3    H260588   2.274   6.182  15.223 -0.5434 -0.8183 -0.5348
13033TIP3   OH260589   3.132   3.523   3.053  0.1391 -0.3328 -0.4708
13033TIP3    H160590   3.194   3.575   3.003  0.1332 -0.2016 -0.3444
13033TIP3    H260591   3.143   3.554   3.143 -0.5882  0.1681 -0.5459
13034TIP3   OH260592   4.844   0.363  12.716 -0.2799  0.4121  0.1012
13034TIP3    H160593   4.933   0.377  12.683  0.9549 -1.2718  2.3955
13034TIP3    H260594   4.837   0.421  12.792 -0.0868 -1.3294  1.5216
13035TIP3   OH260595   1.279   5.173  11.910  0.4339 -0.0158 -0.1160
13035TIP3    H160596   1.315   5.233  11.845  0.8435  1.3087  1.2694
13035TIP3    H260597   1.245   5.230  11.979  0.2008 -1.3636  0.9284
13036TIP3   OH260598   2.859   2.057  13.912 -0.5353  0.1592 -0.3394
13036TIP3    H160599   2.894   2.143  13.935  1.9425 -1.0861  0.9385
13036TIP3    H260600   2.898   2.037  13.827  0.3264 -0.4115  0.1788
13037TIP3   OH260601   4.247   1.988  12.236  0.7651  0.0423  0.0293
13037TIP3    H160602   4.169   2.039  12.214  1.5322  1.3811  0.3318
13037TIP3    H260603   4.254   1.995  12.332  2.0405  1.1761 -0.1094
13038TIP3   OH260604   2.613   3.512   1.751 -0.2870  0.9282 -0.3484
13038TIP3    H160605   2.662   3.593   1.765  0.3645  0.6062 -0.7459
13038TIP3    H260606   2.641   3.454   1.823 -1.0059  1.1671  0.1331
13039TIP3   OH260607   6.159   5.831  17.163 -0.1523  0.1073 -0.1143
13039TIP3    H160608   6.228   5.890  17.133 -1.8793  1.2712 -1.9985
13039TIP3    H260609   6.165   5.835  17.259  1.0120  1.8146 -0.2157
13040TIP3   OH260610   5.953   0.891   4.032  0.1571  0.3813 -0.2082
13040TIP3    H160611   5.885   0.862   3.971  0.0328  0.8199 -0.2823
13040TIP3    H260612   5.922   0.976   4.063  0.0169 -0.0196  0.7875
13041TIP3   OH260613   6.071   0.798  12.976  0.0020  0.4767 -0.0370
13041TIP3    H160614   6.111   0.881  13.001  1.8139 -0.6333  0.9689
13041TIP3    H260615   6.103   0.782  12.887  1.0809  0.0535  0.4098
13042TIP3   OH260616   5.877   4.644  13.090  0.2243 -0.1175 -0.1342
13042TIP3    H160617   5.911   4.558  13.065 -2.9059 -1.4443 -0.3850
13042TIP3    H260618   5.878   4.644  13.186  3.1531  0.9688 -0.0706
13043TIP3   OH260619   5.738   2.465  13.173  0.1032  0.0184  0.5266
13043TIP3    H160620   5.700   2.405  13.238  0.4727 -0.8785 -0.0683
13043TIP3    H260621   5.831   2.445  13.173  0.0137 -0.4900 -0.7744
13044TIP3   OH260622   0.938   5.509  16.278 -0.0374  0.2567 -0.4090
13044TIP3    H160623   0.989   5.554  16.345 -0.1842  0.8632 -0.7021
13044TIP3    H260624   0.852   5.496  16.317 -0.0668  0.4419 -0.4124
13045TIP3   OH260625   2.081   4.223   2.089  0.0532 -0.3664  0.5022
13045TIP3    H160626   2.128   4.226   2.173 -1.6399  2.2894  1.4819
13045TIP3    H260627   2.117   4.296   2.039 -1.3365  0.2498  0.3553
13046TIP3   OH260628   1.633   5.982   3.451  0.2618 -0.3460 -0.0195
13046TIP3    H160629   1.590   5.940   3.376 -0.5069  1.3682 -0.5782
13046TIP3    H260630   1.562   6.024   3.499  1.0600  0.8134  0.1775
13047TIP3   OH260631   2.670   6.167  11.199 -0.1769 -0.5471 -0.3557
13047TIP3    H160632   2.712   6.218  11.268 -0.5820  0.0892 -0.5760
13047TIP3    H260633   2.675   6.076  11.231 -0.5575 -0.2419  0.6138
13048TIP3   OH260634   1.668   5.328  12.552 -0.3615  0.2960  0.6693
13048TIP3    H160635   1.623   5.244  12.560 -0.5765  0.3984  0.5148
13048TIP3    H260636   1.643   5.377  12.630 -0.4782  0.3359  0.6053
13049TIP3   OH260637   0.049   0.968  16.220 -0.2648  0.0257 -0.8012
13049TIP3    H160638  -0.032   0.985  16.268  0.2205  1.1161 -0.3253
13049TIP3    H260639   0.062   1.046  16.166  0.3552 -0.2252 -1.0300
13050TIP3   OH260640   3.450   1.848  11.695 -0.1786 -0.7206 -0.3470
13050TIP3    H160641   3.420   1.877  11.781  1.3905 -2.3570  0.8343
13050TIP3    H260642   3.425   1.755  11.692  0.4615 -0.8724 -1.3397
13051TIP3   OH260643   1.800   0.275   4.865 -0.4832  0.4329 -0.1110
13051TIP3    H160644   1.751   0.356   4.879 -1.6528 -0.3678  0.5875
13051TIP3    H260645   1.746   0.224   4.806 -0.4002 -0.3736  0.4956
13052TIP3   OH260646   1.665   0.299   5.165 -0.0671 -0.0161  0.4697
13052TIP3    H160647   1.689   0.365   5.230 -1.9755 -0.6149  1.8683
13052TIP3    H260648   1.620   0.347   5.096  0.4043  0.3992  0.4447
13053TIP3   OH260649   6.363   2.313  13.330 -0.0898 -0.3941 -0.2198
13053TIP3    H160650   6.350   2.404  13.305  3.6241 -0.0760 -1.6002
13053TIP3    H260651   6.347   2.311  13.424  2.1476  2.3422  0.3358
13054TIP3   OH260652   1.672   4.979   5.112 -0.7367 -0.1061  0.0311
13054TIP3    H160653   1.742   4.982   5.048 -0.6068  0.6763  0.2065
13054TIP3    H260654   1.638   5.069   5.116 -2.2938 -0.6151 -0.6549
13055TIP3   OH260655   3.387   4.384  16.923  0.9553 -0.0182 -0.2056
13055TIP3    H160656   3.407   4.450  16.857  2.6503 -1.2024 -0.9314
13055TIP3    H260657   3.328   4.323  16.879  0.9637 -0.0584 -0.1613
13056TIP3   OH260658   5.427   1.785   1.223 -0.2580  0.9679  0.3219
13056TIP3    H160659   5.463   1.707   1.266  0.0245  1.0400  0.2236
13056TIP3    H260660   5.389   1.837   1.293 -1.3041  0.2923  0.2767
13057TIP3   OH260661   5.395   1.647   1.663  0.3602  0.4477  0.3464
13057TIP3    H160662   5.301   1.666   1.660  0.2437 -0.0594 -2.2920
13057TIP3    H260663   5.400   1.551   1.657  0.9781  0.5616 -2.1105
13058TIP3   OH260664   4.694   2.072   5.407 -0.2131  0.3847  0.2948
13058TIP3    H160665   4.691   2.094   5.500  1.4662 -1.3195  0.8125
13058TIP3    H260666   4.760   2.130   5.370 -1.5492  1.7182 -0.0704
13059TIP3   OH260667   1.455   5.246  13.267 -0.6435  0.4513 -0.4596
13059TIP3    H160668   1.490   5.157  13.269  0.3116  0.7768 -1.9265
13059TIP3    H260669   1.530   5.302  13.284 -1.4887  0.9814  1.9225
13060TIP3   OH260670   3.813   2.247  11.180  0.5833  0.0136 -0.5094
13060TIP3    H160671   3.834   2.176  11.120  1.6688 -0.2382  0.1474
13060TIP3    H260672   3.877   2.315  11.160  0.0359  0.5124 -0.6063
13061TIP3   OH260673   6.221   0.387   4.584 -0.1499  0.3365 -0.4266
13061TIP3    H160674   6.278   0.447   4.632  1.6297 -0.1324 -1.8207
13061TIP3    H260675   6.213   0.311   4.641  0.8641  0.3076 -0.3061
13062TIP3   OH260676   1.752   4.654  15.817 -0.1628  0.6301  0.0191
13062TIP3    H160677   1.708   4.692  15.894 -2.1863  0.8422 -1.1713
13062TIP3    H260678   1.720   4.706  15.743 -2.7298 -2.9585 -1.6652
13063TIP3   OH260679   4.690   5.766   0.287 -0.2104  0.2326 -0.1343
13063TIP3    H160680   4.777   5.725   0.282 -0.7204 -0.8588 -0.3360
13063TIP3    H260681   4.708   5.856   0.313  1.0401  0.2262 -0.8717
13064TIP3   OH260682   5.507   4.186   4.190 -0.7902 -0.1656  0.6207
13064TIP3    H160683   5.419   4.188   4.227  0.3580  0.7838  3.5436
13064TIP3    H260684   5.515   4.268   4.141 -1.1034  0.3660  1.4498
13065TIP3   OH260685   5.734   5.195   3.631  0.1003 -0.1927 -0.2662
13065TIP3    H160686   5.707   5.177   3.722  2.2983 -2.0186  0.0955
13065TIP3    H260687   5.747   5.109   3.592  0.4561  0.5801 -1.9445
13066TIP3   OH260688   5.964   6.490   3.860 -0.8416  0.4682 -0.1965
13066TIP3    H160689   5.919   6.440   3.927 -0.4439  1.0576  0.5210
13066TIP3    H260690   6.025   6.428   3.821 -0.3276  0.3934  0.7101
13067TIP3   OH260691   3.294   1.180  12.871 -0.0687  0.1899  0.3197
13067TIP3    H160692   3.325   1.138  12.951  0.3077 -0.3984 -0.1316
13067TIP3    H260693   3.211   1.137  12.851  0.7850 -1.0449 -0.6775
13068TIP3   OH260694   6.083   0.491  16.334 -0.2412 -0.3169 -0.1285
13068TIP3    H160695   6.095   0.568  16.389  0.4136 -1.6907  1.7685
13068TIP3    H260696   6.126   0.420  16.383  0.3416 -1.6360 -2.4044
13069TIP3   OH260697   2.054   2.678  16.791  0.0976 -0.4554  0.0736
13069TIP3    H160698   1.963   2.675  16.818 -0.3281 -0.2736 -1.2500
13069TIP3    H260699   2.103   2.651  16.868 -1.0034  0.4317  1.1198
13070TIP3   OH260700   4.340   1.332  17.108 -0.5135  0.1153 -0.4262
13070TIP3    H160701   4.272   1.308  17.171  0.6074 -0.6508  0.5342
13070TIP3    H260702   4.422   1.328  17.158  0.3516  0.0309 -1.7923
13071TIP3   OH260703   4.557   5.890   4.229  0.1953  0.1112  0.2046
13071TIP3    H160704   4.504   5.901   4.308  1.9070 -0.1646  1.4400
13071TIP3    H260705   4.539   5.801   4.200  0.3187 -0.1402  0.8812
13072TIP3   OH260706   2.500   1.948   5.314  0.4183 -0.3470  0.1130
13072TIP3    H160707   2.497   2.023   5.374  0.6228  0.0102 -0.3142
13072TIP3    H260708   2.447   1.881   5.357 -2.5237  1.1323 -0.9782
13073TIP3   OH260709   1.116   1.905   0.223 -0.7888 -0.1358 -0.1351
13073TIP3    H160710   1.069   1.950   0.152 -2.8212 -1.6454  0.1547
13073TIP3    H260711   1.113   1.813   0.198 -1.0680 -0.6293  1.6424
13074TIP3   OH260712   1.090   5.327  16.611  0.2476  0.1442  0.3569
13074TIP3    H160713   1.053   5.255  16.662 -0.4596 -0.4892 -1.0046
13074TIP3    H260714   1.184   5.307  16.607 -0.0896 -1.3284 -0.9271
13075TIP3   OH260715   1.911   4.174  11.314 -0.1241 -0.8600 -0.0389
13075TIP3    H160716   1.930   4.206  11.403  0.9453 -0.1814 -0.4833
13075TIP3    H260717   1.830   4.219  11.289 -0.0026 -0.4461  0.2979
13076TIP3   OH260718   5.384   2.879   2.566  0.5696  0.2675  0.0335
13076TIP3    H160719   5.364   2.860   2.658  1.9524  0.4629  0.3905
13076TIP3    H260720   5.417   2.969   2.566 -1.7824  1.2002 -1.0400
13077TIP3   OH260721   3.588   1.565   4.226 -0.6264  0.6918  0.4276
13077TIP3    H160722   3.617   1.566   4.317 -1.0305  0.3972  0.5632
13077TIP3    H260723   3.650   1.623   4.181 -1.1088  1.7516  1.0898
13078TIP3   OH260724   5.689   0.446  14.783 -0.6027  0.1764  0.1250
13078TIP3    H160725   5.650   0.490  14.707 -1.4737  0.7861  0.9072
13078TIP3    H260726   5.743   0.513  14.825  0.6695 -0.4352 -0.4876
13079TIP3   OH260727   5.799   5.686  15.094  0.0998  0.2256  0.9024
13079TIP3    H160728   5.749   5.768  15.099 -0.4313 -0.0845  0.8160
13079TIP3    H260729   5.876   5.709  15.043 -0.4716  0.4741  0.1161
13080TIP3   OH260730   0.117   0.168   0.496  0.3626 -0.1556  0.4913
13080TIP3    H160731   0.056   0.095   0.484  1.2394 -1.0009  1.0473
13080TIP3    H260732   0.064   0.238   0.534 -0.8778  0.1199 -1.5890
13081TIP3   OH260733   2.269   6.525  14.123  0.3294  0.1303  0.0313
13081TIP3    H160734   2.290   6.555  14.035  1.3444  1.0253  0.5527
13081TIP3    H260735   2.181   6.489  14.116 -0.0109  1.1354 -1.1228
13082TIP3   OH260736   2.549   0.922   4.521 -0.4140 -0.1743  0.0846
13082TIP3    H160737   2.518   0.987   4.584 -1.4952 -1.0238  0.4826
13082TIP3    H260738   2.496   0.844   4.540  1.5321 -1.5158  0.3215
13083TIP3   OH260739   5.849   3.394   0.112 -0.2121  0.0577  0.6017
13083TIP3    H160740   5.912   3.429   0.174 -1.1487  1.6264  0.7050
13083TIP3    H260741   5.811   3.470   0.069 -2.3361 -0.7811  0.8353
13084TIP3   OH260742   2.588   3.611  12.890 -0.7491 -0.4341 -0.2551
13084TIP3    H160743   2.538   3.651  12.960 -0.3716 -0.4759  0.0424
13084TIP3    H260744   2.660   3.672  12.874 -0.8961 -0.3680 -0.6857
13085TIP3   OH260745   1.015   4.031  15.230 -0.2821  0.3284 -0.0387
13085TIP3    H160746   1.076   4.035  15.303  2.2425 -0.2356 -1.9522
13085TIP3    H260747   1.046   4.097  15.169 -2.7745  1.3137 -0.3673
13086TIP3   OH260748   5.121   2.747  17.045 -0.3598  0.0267  0.2680
13086TIP3    H160749   5.180   2.701  16.986  1.1926  0.4756  1.4010
13086TIP3    H260750   5.043   2.766  16.992  0.8791  0.2320 -1.5464
13087TIP3   OH260751   6.668   6.624  12.306  0.3032  0.0089 -0.1246
13087TIP3    H160752   6.746   6.581  12.271  1.4648  1.5373  0.4369
13087TIP3    H260753   6.628   6.669  12.231 -1.4207 -2.6192 -0.9029
13088TIP3   OH260754   1.850   0.239  14.697  0.0723 -0.3022  0.3569
13088TIP3    H160755   1.915   0.195  14.752 -0.0217 -0.3225  0.4535
13088TIP3    H260756   1.892   0.247  14.612  0.7104  0.8758  0.7690
13089TIP3   OH260757   3.462   4.139   5.955  0.7567 -0.6067  0.5252
13089TIP3    H160758   3.437   4.222   5.997  1.3379  0.8835 -1.8622
13089TIP3    H260759   3.391   4.078   5.977 -0.1336  0.7588  1.6341
13090TIP3   OH260760   2.537   3.437   3.460  0.5075 -0.5373 -0.1524
13090TIP3    H160761   2.569   3.380   3.390  0.6537 -0.5151 -0.1032
13090TIP3    H260762   2.509   3.517   3.415 -0.5343 -0.9855 -0.3283
13091TIP3   OH260763   4.606   4.811   4.996  0.2105 -0.5711  0.5076
13091TIP3    H160764   4.593   4.817   4.901 -0.4431  1.2541  0.6730
13091TIP3    H260765   4.673   4.876   5.015  0.2314 -0.8221  1.3163
13092TIP3   OH260766   4.935   4.347  14.473  0.6544  0.0191 -0.1959
13092TIP3    H160767   5.001   4.280  14.490  0.7992  0.3400  0.5413
13092TIP3    H260768   4.975   4.429  14.502  0.1663  0.3046 -0.3114
13093TIP3   OH260769   5.192   2.839   5.522 -0.0840 -0.4964  0.0786
13093TIP3    H160770   5.234   2.876   5.445 -0.8958  0.0826 -0.1053
13093TIP3    H260771   5.100   2.831   5.498 -0.8543  1.9925  1.7594
13094TIP3   OH260772   4.885   5.363  16.415 -0.1082 -0.0792 -0.4157
13094TIP3    H160773   4.893   5.363  16.510 -1.9543  1.0137 -0.2182
13094TIP3    H260774   4.940   5.436  16.387 -0.9772  0.7545 -0.0076
13095TIP3   OH260775   5.522   1.431  16.922  1.0661  0.1704 -0.8768
13095TIP3    H160776   5.513   1.371  16.995  2.2219  1.1595  0.1325
13095TIP3    H260777   5.536   1.374  16.846  1.7784 -0.8492 -0.0177
13096TIP3   OH260778   4.805   3.712   2.440  0.4377 -0.2166  0.8304
13096TIP3    H160779   4.890   3.742   2.474  0.0441  1.1812  0.6393
13096TIP3    H260780   4.809   3.732   2.347 -0.7059  1.3980  1.0914
13097TIP3   OH260781   3.382   5.713  16.599  0.0196 -0.4464  0.0416
13097TIP3    H160782   3.322   5.764  16.652  0.0978 -2.0498  1.7957
13097TIP3    H260783   3.468   5.753  16.614  0.3734 -1.9603  2.7995
13098TIP3   OH260784   5.943   2.618  13.630  0.3313 -0.1501  0.0117
13098TIP3    H160785   5.995   2.678  13.577  0.7846  0.0879  0.7073
13098TIP3    H260786   5.869   2.670  13.661  0.9164  0.1651  0.9116
13099TIP3   OH260787   2.531   2.643   3.841  0.1628  0.0160 -0.2326
13099TIP3    H160788   2.561   2.589   3.915  0.7769 -0.4172 -0.7901
13099TIP3    H260789   2.583   2.723   3.849 -2.5177  1.7231  2.1131
13100TIP3   OH260790   6.450   3.569  14.878  0.0483  0.1025  0.0432
13100TIP3    H160791   6.356   3.586  14.885  0.4772  2.4671  0.9273
13100TIP3    H260792   6.482   3.570  14.968  1.0779  0.3968 -0.3092
13101TIP3   OH260793   5.720   2.987  15.241  0.0824  0.4541  0.7088
13101TIP3    H160794   5.812   2.973  15.220  0.2735  0.6678  1.3681
13101TIP3    H260795   5.700   3.073  15.204  0.2897  0.6258  0.9854
13102TIP3   OH260796   3.745   6.034  17.058  0.5527  0.5778 -0.6482
13102TIP3    H160797   3.808   5.987  17.002  0.0979 -4.1342  2.1890
13102TIP3    H260798   3.796   6.060  17.134 -0.1146  0.6173 -0.2055
13103TIP3   OH260799   4.816   5.011   5.131 -0.9176  0.7567  0.3986
13103TIP3    H160800   4.779   5.096   5.154  0.0957  0.9783  1.3150
13103TIP3    H260801   4.848   4.976   5.215  0.2875  0.2834 -0.2346
13104TIP3   OH260802   5.730   4.073  10.898  0.2390 -0.2649  0.2314
13104TIP3    H160803   5.741   4.100  10.990  0.4827 -0.9973  0.4250
13104TIP3    H260804   5.787   3.996  10.889  0.9116  0.3216 -0.7724
13105TIP3   OH260805   2.628   3.441   5.980  0.1256 -0.4354  0.3257
13105TIP3    H160806   2.647   3.527   5.944 -0.4189  0.5084  2.1720
13105TIP3    H260807   2.554   3.455   6.039  0.3598 -2.0648  1.0699
13106TIP3   OH260808   2.304   1.623  11.561  0.1633 -0.7636 -0.0203
13106TIP3    H160809   2.217   1.635  11.522  0.3814  0.8727 -0.0696
13106TIP3    H260810   2.286   1.604  11.653 -0.2603 -0.3828 -0.0168
13107TIP3   OH260811   2.655   5.009  14.317  0.4723 -0.3735  0.0791
13107TIP3    H160812   2.638   5.102  14.323  1.7790 -0.1438  0.7719
13107TIP3    H260813   2.580   4.967  14.359 -1.2859  0.1940 -2.2754
13108TIP3   OH260814   0.065   0.130   3.418 -0.1650  0.3173 -0.0798
13108TIP3    H160815  -0.026   0.105   3.403 -0.4639  0.0113  1.9550
13108TIP3    H260816   0.106   0.051   3.453  0.5538  0.8072  0.2108
13109TIP3   OH260817   5.003   2.581   0.776  0.2095  0.3296  0.1422
13109TIP3    H160818   5.039   2.524   0.844 -1.8522 -0.6613  0.5005
13109TIP3    H260819   4.986   2.664   0.821 -1.4688 -0.4280  1.0033
13110TIP3   OH260820   5.008   0.957  12.995  0.7815  0.5869  0.2712
13110TIP3    H160821   5.032   1.027  12.934  1.3795  0.3815  0.2684
13110TIP3    H260822   5.066   0.969  13.070  0.8546  0.1150  0.2905
13111TIP3   OH260823   4.878   3.307  16.647 -0.1393  0.4649  0.4348
13111TIP3    H160824   4.909   3.357  16.723  1.2907  1.6536 -0.8826
13111TIP3    H260825   4.945   3.239  16.635  1.0916  1.9092 -1.3123
13112TIP3   OH260826   5.557   3.189  11.718 -0.0711 -0.0344 -0.3500
13112TIP3    H160827   5.552   3.236  11.634  1.6950 -0.7391 -0.8961
13112TIP3    H260828   5.558   3.257  11.784 -3.1485  0.5184 -0.7199
13113TIP3   OH260829   3.733   3.941   5.202 -0.1581  0.1400 -0.7547
13113TIP3    H160830   3.785   3.923   5.123  0.8650  0.5709 -0.2060
13113TIP3    H260831   3.760   3.873   5.264 -0.2483  0.3609 -0.4707
13114TIP3   OH260832   6.255   6.358  13.415  0.3549  0.7342 -0.2548
13114TIP3    H160833   6.184   6.390  13.470  1.3114  0.2875  1.3046
13114TIP3    H260834   6.319   6.321  13.477  2.1510  1.5131 -1.5545
13115TIP3   OH260835   4.026   4.234   1.087 -0.6314 -0.3267  0.0184
13115TIP3    H160836   4.087   4.245   1.014  0.7781 -0.7718  1.0843
13115TIP3    H260837   4.024   4.140   1.102 -0.8144 -0.2336  0.6064
13116TIP3   OH260838   0.300   5.089  11.267  0.2366  0.4131 -0.5657
13116TIP3    H160839   0.234   5.137  11.316  0.4127  0.2690 -0.1815
13116TIP3    H260840   0.278   5.105  11.175  1.0327  2.2836 -0.4851
13117TIP3   OH260841   2.589   0.013  12.453  0.0300 -0.5179 -0.7706
13117TIP3    H160842   2.671   0.058  12.472  0.1104 -1.3952  1.3250
13117TIP3    H260843   2.524   0.083  12.445  0.1284  0.1060  2.4556
13118TIP3   OH260844   3.252   4.807   4.035  0.1771  0.5254  0.2788
13118TIP3    H160845   3.217   4.746   4.100 -0.3468  1.1084  0.5596
13118TIP3    H260846   3.178   4.866   4.016  0.2192  0.1561 -1.0999
13119TIP3   OH260847   3.282   1.291  12.636  0.1733 -0.4757 -0.3976
13119TIP3    H160848   3.363   1.301  12.586  0.3881 -1.1658 -0.1999
13119TIP3    H260849   3.306   1.235  12.710 -0.2550  0.1274  0.2157
13120TIP3   OH260850   0.440   1.975  12.337 -0.4533 -0.3583 -0.2736
13120TIP3    H160851   0.418   1.890  12.375 -2.6217 -0.1463 -0.9203
13120TIP3    H260852   0.518   2.003  12.385 -1.9031 -0.9607  2.7403
13121TIP3   OH260853   4.771   4.928   1.282 -1.1588 -0.1016 -0.6195
13121TIP3    H160854   4.818   4.928   1.365 -0.8529  0.4979 -0.7912
13121TIP3    H260855   4.709   5.000   1.289 -0.7895  0.2752 -1.0960
13122TIP3   OH260856   6.195   1.284   6.207  0.1237  0.2603 -0.0987
13122TIP3    H160857   6.169   1.372   6.234  0.4054  0.4280 -0.3639
13122TIP3    H260858   6.120   1.229   6.229  0.2943  0.4115  0.8873
13123TIP3   OH260859   3.976   6.533  12.843  0.9263  0.2362  0.2327
13123TIP3    H160860   3.962   6.513  12.936  0.6688 -1.8562 -0.2078
13123TIP3    H260861   3.895   6.507  12.800  1.3795  0.2919 -0.6835
13124TIP3   OH260862   6.427   4.456   2.185  0.1019  0.5592 -0.1424
13124TIP3    H160863   6.370   4.532   2.177 -0.9251 -0.2729 -1.1886
13124TIP3    H260864   6.503   4.477   2.130 -0.3025  0.7281 -0.6464
13125TIP3   OH260865   4.705   6.777  10.422 -0.6366 -0.8856  0.3513
13125TIP3    H160866   4.621   6.734  10.441 -0.8550 -0.6525 -0.0608
13125TIP3    H260867   4.708   6.851  10.482 -1.1152 -0.4111 -0.1978
13126TIP3   OH260868   2.645   6.382   0.662 -0.4625 -0.1024 -0.7274
13126TIP3    H160869   2.709   6.442   0.626  1.4163 -1.4282  0.2355
13126TIP3    H260870   2.678   6.360   0.750 -1.5799 -1.7374 -0.6587
13127TIP3   OH260871   0.865   3.326  14.856 -0.4940  0.5360 -0.1271
13127TIP3    H160872   0.942   3.273  14.877 -1.8025 -1.3552  0.1769
13127TIP3    H260873   0.840   3.368  14.938 -1.0363 -0.6100  0.3142
13128TIP3   OH260874   5.160   0.670  14.053 -0.3067 -0.1452  0.1382
13128TIP3    H160875   5.220   0.745  14.052  0.2070 -0.5360  0.8243
13128TIP3    H260876   5.075   0.707  14.029  0.2103  0.4097 -0.9033
13129TIP3   OH260877   5.234   2.136  16.911  0.2857 -0.0009 -0.3157
13129TIP3    H160878   5.302   2.203  16.899 -1.7173  2.1704 -0.1560
13129TIP3    H260879   5.216   2.138  17.005  1.1517 -1.8234 -0.0657
13130TIP3   OH260880   4.887   4.742  11.915 -0.1104 -0.4894  0.1643
13130TIP3    H160881   4.850   4.698  11.838 -0.9959  1.1146 -0.3953
13130TIP3    H260882   4.824   4.726  11.985  0.5535 -1.7143  0.4970
13131TIP3   OH260883   3.809   1.845   0.171  0.0657  0.1796  0.2318
13131TIP3    H160884   3.844   1.869   0.085 -1.8442 -0.0732 -0.6833
13131TIP3    H260885   3.848   1.760   0.191 -0.2080 -0.2150 -0.8567
13132TIP3   OH260886   4.844   5.913  15.676 -0.3175 -0.1555  0.0879
13132TIP3    H160887   4.921   5.905  15.620  1.4059  0.0760  2.3278
13132TIP3    H260888   4.854   5.997  15.719 -1.3063 -0.5685  1.1691
13133TIP3   OH260889   2.994   0.445  11.896  0.2285 -0.6335 -0.2817
13133TIP3    H160890   3.033   0.530  11.877 -0.4767  0.5514  2.8365
13133TIP3    H260891   3.062   0.397  11.943 -0.7098  0.0152  1.8867
13134TIP3   OH260892   3.106   0.744  16.049  0.0813 -0.0919 -0.0242
13134TIP3    H160893   3.154   0.785  16.121  1.5510 -2.1798  0.2833
13134TIP3    H260894   3.046   0.683  16.092 -0.8628  0.4640 -0.5197
13135TIP3   OH260895   0.531   4.861  13.948  0.2149  0.5587  0.0836
13135TIP3    H160896   0.566   4.936  13.997  2.5348 -1.2264  1.3773
13135TIP3    H260897   0.460   4.828  14.004 -0.2019  1.2182 -0.0409
13136TIP3   OH260898   4.084   0.253  11.790 -0.2176  0.0208  0.9549
13136TIP3    H160899   4.100   0.346  11.799 -1.3241  0.2480  0.7580
13136TIP3    H260900   3.990   0.246  11.771 -0.2666 -1.1581  1.4873
13137TIP3   OH260901   1.895   0.626   3.649 -0.9091  0.3578  0.2531
13137TIP3    H160902   1.806   0.648   3.676 -0.9728  0.5280 -0.0835
13137TIP3    H260903   1.941   0.710   3.646 -0.8414  0.3151  0.0608
13138TIP3   OH260904   4.199   6.628  13.627  0.7371  0.1164  0.2476
13138TIP3    H160905   4.115   6.672  13.639  0.2622  0.1469 -2.5235
13138TIP3    H260906   4.179   6.554  13.569  2.9235  1.5429 -2.5639
13139TIP3   OH260907   1.961   3.157  13.965  0.4545 -0.1444 -0.3850
13139TIP3    H160908   1.957   3.119  14.052 -1.9727 -1.1962 -0.8774
13139TIP3    H260909   1.875   3.196  13.951  0.7263 -0.1088 -2.3511
13140TIP3   OH260910   5.371   0.318  15.925  0.0541 -0.2695 -0.7491
13140TIP3    H160911   5.298   0.257  15.913 -0.9122  0.5779  0.5167
13140TIP3    H260912   5.401   0.302  16.015 -0.8233  1.6847 -0.0493
13141TIP3   OH260913   3.691   6.810   4.129  0.0256 -0.6080 -0.3605
13141TIP3    H160914   3.759   6.787   4.065  0.5725  3.2488 -1.4439
13141TIP3    H260915   3.609   6.803   4.079  0.3570  1.3176 -1.2961
13142TIP3   OH260916   5.360   5.701   6.745  0.4483 -0.4289 -0.3206
13142TIP3    H160917   5.321   5.703   6.658  1.6144 -0.5492 -0.8590
13142TIP3    H260918   5.351   5.610   6.773  1.9430 -0.8861 -1.2133
13143TIP3   OH260919   4.883   6.728  11.655  0.3815  0.0038  0.0595
13143TIP3    H160920   4.910   6.636  11.665 -0.5343 -0.2327  0.4376
13143TIP3    H260921   4.902   6.767  11.740 -0.7616 -0.2519  0.4485
13144TIP3   OH260922   0.050   4.001  11.803 -0.0579 -0.3227 -0.0224
13144TIP3    H160923   0.001   3.936  11.853 -0.6149 -0.6278 -0.9604
13144TIP3    H260924   0.126   4.021  11.858 -1.0090 -0.1344  1.2727
13145TIP3   OH260925   0.313   5.286  13.296  0.6033  0.6849 -0.6519
13145TIP3    H160926   0.280   5.230  13.366 -1.8938  1.9136 -0.7353
13145TIP3    H260927   0.362   5.227  13.238  0.1627 -0.8955  0.5446
13146TIP3   OH260928   4.110   6.588   4.282  0.4934 -0.1379  0.0441
13146TIP3    H160929   4.081   6.660   4.225  0.8989  0.5931  0.7396
13146TIP3    H260930   4.206   6.591   4.276  0.5362 -0.1076  0.6948
13147TIP3   OH260931   3.150   3.654   4.623  0.3003 -0.0310  0.1397
13147TIP3    H160932   3.166   3.571   4.579  0.1007  0.5885 -1.1557
13147TIP3    H260933   3.120   3.629   4.710  3.0791 -1.2653  0.8412
13148TIP3   OH260934   0.434   0.867  14.852 -0.6159 -0.4593  0.7226
13148TIP3    H160935   0.434   0.819  14.935  0.5943 -1.0005  0.4261
13148TIP3    H260936   0.342   0.871  14.827 -0.7263 -3.3964  0.3177
13149TIP3   OH260937   4.018   6.621  16.222 -0.1003  0.3820 -0.1220
13149TIP3    H160938   3.977   6.656  16.143 -0.7252  0.3291  0.1763
13149TIP3    H260939   4.055   6.537  16.195 -0.0733  0.4892 -0.4230
13150TIP3   OH260940   5.590   3.644  11.332  0.1629  0.1484  0.8568
13150TIP3    H160941   5.508   3.596  11.344  0.8140 -0.8072  1.6052
13150TIP3    H260942   5.575   3.729  11.373 -0.3269 -0.1522  1.3087
13151TIP3   OH260943   2.347   0.140  12.294  1.0702 -0.1405 -0.3709
13151TIP3    H160944   2.415   0.169  12.232  2.4537 -1.0153  0.6688
13151TIP3    H260945   2.322   0.053  12.262  0.1983  0.2993 -0.9177
13152TIP3   OH260946   4.890   2.593  14.257 -0.0374  0.3472 -0.5130
13152TIP3    H160947   4.949   2.522  14.282 -0.5698 -0.0112 -0.2665
13152TIP3    H260948   4.807   2.573  14.301 -0.3642  0.8128 -0.9021
13153TIP3   OH260949   4.512   2.216  11.983 -0.2968 -0.4858 -0.7817
13153TIP3    H160950   4.581   2.261  12.032  0.9967 -0.1497 -2.7809
13153TIP3    H260951   4.532   2.123  11.993 -1.4834 -0.5954  1.2430
13154TIP3   OH260952   6.093   0.599   1.954  0.0203 -0.0274  0.0639
13154TIP3    H160953   6.188   0.601   1.962 -0.0786  1.5703  1.6858
13154TIP3    H260954   6.073   0.666   1.888  0.0839 -2.2555 -2.3501
13155TIP3   OH260955   5.270   3.554  16.243  0.0596 -0.0661  0.4377
13155TIP3    H160956   5.313   3.499  16.178 -1.1096  0.4993 -0.8764
13155TIP3    H260957   5.335   3.565  16.312  1.4049 -0.5776 -0.6993
13156TIP3   OH260958   4.016   1.844   1.687 -0.1599  0.3251 -0.3012
13156TIP3    H160959   4.080   1.787   1.730 -0.2653  1.4655  1.4680
13156TIP3    H260960   3.934   1.826   1.734 -0.6109  0.5756 -0.9914
13157TIP3   OH260961   0.206   1.980   6.688  0.0742  0.3202 -0.4610
13157TIP3    H160962   0.219   2.045   6.757 -2.3243 -0.4561  0.8412
13157TIP3    H260963   0.112   1.963   6.689  0.1561 -0.7328 -3.0493
13158TIP3   OH260964   3.637   1.404  13.901  0.3947  0.4794 -0.4965
13158TIP3    H160965   3.713   1.367  13.946  0.8163  1.7976 -0.1046
13158TIP3    H260966   3.562   1.369  13.950  0.7801  0.1661 -0.1157
13159TIP3   OH260967   5.910   3.363   2.644 -0.3192 -0.2649 -0.0806
13159TIP3    H160968   5.929   3.271   2.665  0.0543 -1.3913 -4.4602
13159TIP3    H260969   5.815   3.370   2.653 -0.3963 -1.1925 -0.0242
13160TIP3   OH260970   4.533   1.188  12.163 -0.6023 -0.0319 -0.5324
13160TIP3    H160971   4.597   1.213  12.229 -0.0909 -1.2726 -0.5215
13160TIP3    H260972   4.450   1.223  12.194 -0.5262 -1.2716  1.2170
13161TIP3   OH260973   3.868   1.188   6.148 -0.5371 -0.4911  0.2556
13161TIP3    H160974   3.875   1.275   6.187  1.4187  0.4405 -1.9730
13161TIP3    H260975   3.848   1.130   6.223 -0.8785  1.6850  1.9422
13162TIP3   OH260976   3.372   2.703   5.183  0.3762 -0.3667 -0.1945
13162TIP3    H160977   3.280   2.728   5.194  0.3045 -1.0161  0.8001
13162TIP3    H260978   3.372   2.608   5.192  1.2860 -0.2765  0.9399
13163TIP3   OH260979   3.241   1.923  14.003 -0.0131  0.5718  0.5409
13163TIP3    H160980   3.214   1.845  14.052 -0.6775  0.2053 -0.3628
13163TIP3    H260981   3.202   1.996  14.051 -0.7381  0.2114  0.5160
13164TIP3   OH260982   2.426   2.468  14.222  0.0363  0.4373 -0.0227
13164TIP3    H160983   2.360   2.475  14.153  0.4011  1.4971 -0.2794
13164TIP3    H260984   2.401   2.535  14.286  1.2569  1.3839 -0.4820
13165TIP3   OH260985   5.667   2.259   5.938  0.3686 -0.7984  0.0373
13165TIP3    H160986   5.573   2.263   5.956  0.3494 -2.0555  0.2906
13165TIP3    H260987   5.676   2.195   5.869  1.1364 -1.6032  0.8554
13166TIP3   OH260988   4.233   3.989  16.432 -0.3981 -0.1894  0.6211
13166TIP3    H160989   4.227   3.893  16.441 -0.3692 -0.1974  0.5569
13166TIP3    H260990   4.278   4.017  16.512  0.9120 -0.3786 -0.0128
13167TIP3   OH260991   4.347   2.710  12.815  0.1770 -0.4797  0.1494
13167TIP3    H160992   4.348   2.626  12.859  1.4790  0.2212  1.5628
13167TIP3    H260993   4.254   2.732  12.806 -0.1509 -1.3816  1.1461
13168TIP3   OH260994   4.336   2.444  13.624  0.5720  0.2638  0.0164
13168TIP3    H160995   4.298   2.519  13.578  0.6679  0.0478 -0.4253
13168TIP3    H260996   4.324   2.370  13.564  1.7964  0.2173 -0.2089
13169TIP3   OH260997   0.081   2.189  14.862 -0.1437 -0.4665 -0.4357
13169TIP3    H160998   0.073   2.203  14.956  1.1786  1.6820 -0.5728
13169TIP3    H260999   0.026   2.257  14.822  0.7934 -0.1354 -1.2046
13170TIP3   OH261000   5.194   3.657   2.920 -0.1745 -0.3215  0.2880
13170TIP3    H161001   5.274   3.709   2.911 -1.3014  1.6516  0.9999
13170TIP3    H261002   5.207   3.582   2.862  3.1156 -1.3121  2.0499
13171TIP3   OH261003   4.437   4.300  16.131 -0.0288  0.0530  0.1134
13171TIP3    H161004   4.425   4.392  16.153  0.0695  0.5397 -1.7455
13171TIP3    H261005   4.407   4.292  16.040  1.8847 -1.2891 -0.4671
13172TIP3   OH261006   2.221   0.625   5.131 -0.3296 -0.2323 -0.6770
13172TIP3    H161007   2.167   0.595   5.058 -1.5983  0.1189  0.0746
13172TIP3    H261008   2.192   0.715   5.147 -2.0063 -1.1104  1.8920
13173TIP3   OH261009   0.184   4.224  12.857 -0.4636 -0.8315  0.1389
13173TIP3    H161010   0.214   4.222  12.766  2.2448  1.4018  0.8338
13173TIP3    H261011   0.197   4.135  12.889 -0.6707 -1.4400 -1.4002
13174TIP3   OH261012   3.512   2.784   4.479 -0.3051  0.1129 -0.2361
13174TIP3    H161013   3.525   2.704   4.428 -0.6190 -0.4888  0.5984
13174TIP3    H261014   3.574   2.776   4.552  0.7297  1.3490 -0.9441
13175TIP3   OH261015   2.123   3.727   3.248  0.5078 -0.0032  0.2665
13175TIP3    H161016   2.055   3.718   3.181 -0.9801 -0.8191  1.8079
13175TIP3    H261017   2.190   3.663   3.222 -1.3448 -2.3607  1.0026
13176TIP3   OH261018   4.024   3.903   0.848  0.8561 -0.3887 -0.2588
13176TIP3    H161019   4.007   3.988   0.808  0.9447 -0.4700 -0.4675
13176TIP3    H261020   4.111   3.879   0.818  0.9146 -0.4565 -0.0306
13177TIP3   OH261021   1.561   1.644  13.044  0.2772  0.6817  0.2505
13177TIP3    H161022   1.594   1.614  13.128  2.3791  0.3303 -0.6389
13177TIP3    H261023   1.488   1.585  13.025 -1.2891  1.7656  2.5008
13178TIP3   OH261024   1.679   6.257  13.182  0.3366  0.2775  0.4581
13178TIP3    H161025   1.738   6.326  13.154  1.7887 -1.0822  0.0153
13178TIP3    H261026   1.735   6.180  13.193 -0.7567 -0.2329  3.5345
13179TIP3   OH261027   5.642   5.147  15.407 -0.0756  0.2630  0.1581
13179TIP3    H161028   5.681   5.161  15.494 -1.2658 -1.2051  0.9807
13179TIP3    H261029   5.717   5.130  15.350  0.7407  1.3048  0.8640
13180TIP3   OH261030   3.629   5.560  16.212  0.7387  0.1030 -0.2019
13180TIP3    H161031   3.540   5.527  16.221  0.6776  0.1697 -0.5520
13180TIP3    H261032   3.620   5.655  16.219  0.7640  0.1183 -0.3684
13181TIP3   OH261033   0.199   6.341  14.106 -0.2650  0.4547 -0.6637
13181TIP3    H161034   0.205   6.308  14.196 -2.3271 -0.0564 -0.6592
13181TIP3    H261035   0.132   6.285  14.065  0.2479  1.0360 -2.3539
13182TIP3   OH261036   0.298   2.123   2.206 -0.3354  0.0532 -0.0930
13182TIP3    H161037   0.371   2.185   2.210  0.1239 -0.1583 -3.0623
13182TIP3    H261038   0.329   2.048   2.257  1.0250  0.4721 -0.2556
13183TIP3   OH261039   1.943   3.322   3.267 -0.5348  0.2746 -0.1206
13183TIP3    H161040   1.909   3.385   3.330  1.3459  0.8344  0.3877
13183TIP3    H261041   1.966   3.374   3.190  1.2931  0.3119  0.4062
13184TIP3   OH261042   2.064   5.397   3.957 -1.2754  0.5468  0.0022
13184TIP3    H161043   2.043   5.384   4.049  0.7164  0.1586  0.4563
13184TIP3    H261044   2.050   5.491   3.942 -3.7505  0.2515  0.0534
13185TIP3   OH261045   0.656   5.143  10.370 -0.3370  0.5090 -0.1207
13185TIP3    H161046   0.697   5.183  10.447 -0.1854  0.0587  0.0391
13185TIP3    H261047   0.661   5.210  10.302  1.1606  0.2812 -0.2676
13186TIP3   OH261048   3.592   0.171   5.172 -0.3497  0.4206 -0.3688
13186TIP3    H161049   3.525   0.105   5.189  0.3430 -0.1019  0.4394
13186TIP3    H261050   3.558   0.251   5.214  0.0369 -0.1453  1.1076
13187TIP3   OH261051   0.152   4.938   3.190 -0.4867 -0.0211 -0.0281
13187TIP3    H161052   0.170   4.912   3.281  2.1102  0.4726 -0.3089
13187TIP3    H261053   0.105   5.020   3.197  0.5404  0.5185  0.9217
13188TIP3   OH261054   2.548   0.973   6.631 -0.5843  0.3065  0.0385
13188TIP3    H161055   2.534   0.885   6.597  2.0154 -0.4557  0.7691
13188TIP3    H261056   2.634   0.999   6.598 -0.8903  2.2164  0.6126
13189TIP3   OH261057   4.295   6.357  14.251  0.1654  0.1285 -0.1428
13189TIP3    H161058   4.375   6.354  14.199  0.5282 -2.2567  0.4358
13189TIP3    H261059   4.309   6.428  14.313  1.2009  0.6835 -0.9846
13190TIP3   OH261060   2.095   3.895  11.654 -0.2120 -0.2687  0.2001
13190TIP3    H161061   2.122   3.980  11.687 -1.4838  1.1103 -2.0555
13190TIP3    H261062   2.026   3.914  11.591 -1.6024 -3.0982  0.6822
13191TIP3   OH261063   6.383   3.171   4.461  0.0849  0.1205 -0.4450
13191TIP3    H161064   6.409   3.100   4.519 -1.8177 -0.8337 -0.6923
13191TIP3    H261065   6.317   3.220   4.509 -1.2615 -0.4731 -1.6016
13192TIP3   OH261066   4.220   2.294  17.084  0.3669  0.0393 -0.5059
13192TIP3    H161067   4.282   2.229  17.051 -1.2874 -0.7520 -2.2542
13192TIP3    H261068   4.274   2.360  17.126  2.4883 -0.0724 -2.8289
13193TIP3   OH261069   2.077   3.776  14.343  0.4797 -0.0058  0.1030
13193TIP3    H161070   2.012   3.733  14.399  1.1907 -0.2134  0.7876
13193TIP3    H261071   2.127   3.832  14.403 -0.5225  1.9424 -0.7842
13194TIP3   OH261072   5.301   3.592   1.659 -0.0962 -0.6392  0.1208
13194TIP3    H161073   5.275   3.623   1.572 -2.4411 -1.0975  0.5929
13194TIP3    H261074   5.306   3.671   1.712 -0.6734 -0.5336  0.0298
13195TIP3   OH261075   5.929   2.421  15.534  0.2284  0.0687  0.0495
13195TIP3    H161076   5.998   2.431  15.469  0.4224 -0.8147  0.1079
13195TIP3    H261077   5.957   2.347  15.587  0.3060  1.0506  1.4463
13196TIP3   OH261078   5.690   1.588   0.816  0.0110  0.3517 -0.2767
13196TIP3    H161079   5.774   1.634   0.819 -0.7233  1.7945 -1.0634
13196TIP3    H261080   5.674   1.563   0.908  1.0666  0.4673 -0.0475
13197TIP3   OH261081   1.875   1.477  12.713  0.0934 -0.0765  0.1278
13197TIP3    H161082   1.833   1.552  12.755  0.3594  0.7235 -0.9966
13197TIP3    H261083   1.960   1.470  12.757  0.3299  0.6942 -0.1876
13198TIP3   OH261084   1.073   2.924   4.951  0.6194 -0.3293 -0.0997
13198TIP3    H161085   1.133   2.882   4.889  0.5187 -1.8000  0.7459
13198TIP3    H261086   1.102   2.893   5.037 -0.8557 -0.4498  0.3845
13199TIP3   OH261087   5.436   4.032   1.756 -0.1385  0.1683 -0.2447
13199TIP3    H161088   5.368   4.095   1.731  0.1546  0.8191  0.5460
13199TIP3    H261089   5.497   4.033   1.682 -0.3083  0.5748 -0.3863
13200TIP3   OH261090   0.262   2.923   5.741 -0.0876 -0.2181  0.1422
13200TIP3    H161091   0.320   2.856   5.705  0.2452  1.2323 -2.2211
13200TIP3    H261092   0.318   3.000   5.753 -1.0905  0.6199 -0.3387
13201TIP3   OH261093   0.356   4.911  10.290 -0.0415 -0.2131  0.1244
13201TIP3    H161094   0.291   4.841  10.275 -2.7692  2.3167 -0.8351
13201TIP3    H261095   0.424   4.894  10.226 -1.3718 -1.1692 -1.1163
13202TIP3   OH261096   3.095   4.900   0.960  0.4456 -0.4896 -0.3013
13202TIP3    H161097   3.005   4.870   0.942  0.0082  0.8089 -0.3392
13202TIP3    H261098   3.094   4.923   1.053  0.5549  0.1431 -0.4544
13203TIP3   OH261099   4.034   5.497  11.513  0.4288  0.3280 -0.5321
13203TIP3    H161100   4.019   5.498  11.607 -0.5637  3.4408 -0.6085
13203TIP3    H261101   4.116   5.545  11.501  0.7890 -0.4408 -1.2489
13204TIP3   OH261102   0.811   1.898  11.711 -0.5456 -0.5145 -0.1017
13204TIP3    H161103   0.756   1.828  11.747 -0.1593 -0.5764  0.3607
13204TIP3    H261104   0.901   1.871  11.730 -0.3889  0.0472 -0.0317
13205TIP3   OH261105   0.359   1.779   0.646 -0.0217  0.2653  0.4754
13205TIP3    H161106   0.313   1.794   0.564  0.4665 -1.6722 -0.2019
13205TIP3    H261107   0.445   1.746   0.620  0.3618  0.1799  1.7728
13206TIP3   OH261108   1.034   1.204  16.560  0.3828  0.1055  0.2673
13206TIP3    H161109   1.029   1.190  16.466  1.0422  2.5337 -0.2141
13206TIP3    H261110   0.945   1.227  16.586 -0.2417 -2.5446  0.6763
13207TIP3   OH261111   4.617   3.255   2.377  0.1501 -0.0463 -0.7056
13207TIP3    H161112   4.703   3.297   2.383  1.2706 -2.4178  1.5400
13207TIP3    H261113   4.564   3.301   2.442  0.8797 -0.9766  0.5803
13208TIP3   OH261114   1.565   0.451   6.061 -0.5755 -0.2248  0.0099
13208TIP3    H161115   1.624   0.458   5.985 -2.1008 -0.8388 -1.2831
13208TIP3    H261116   1.578   0.362   6.093  0.3269  0.1475  0.7128
13209TIP3   OH261117   3.746   0.267  14.389 -0.1277  1.0728 -0.3885
13209TIP3    H161118   3.821   0.281  14.331 -0.1284 -0.0013 -0.6666
13209TIP3    H261119   3.761   0.181  14.428 -2.4321 -0.3569 -2.3757
13210TIP3   OH261120   4.128   4.459  15.570 -0.0236 -0.2803 -0.1253
13210TIP3    H161121   4.189   4.424  15.505  0.6667 -0.0323  0.3681
13210TIP3    H261122   4.135   4.554  15.560 -0.7463 -0.2520 -0.4301
13211TIP3   OH261123   0.143   1.948  16.833  0.2931 -0.5519 -0.1853
13211TIP3    H161124   0.230   1.987  16.844  0.1254 -0.4965  1.1161
13211TIP3    H261125   0.135   1.933  16.739  0.6933  1.7692 -0.6427
13212TIP3   OH261126   6.691   0.783  15.594  0.1444  1.2031 -0.0432
13212TIP3    H161127   6.680   0.800  15.687 -2.4149 -1.6587  0.3590
13212TIP3    H261128   6.619   0.831  15.552  0.0574  0.8874 -0.2669
13213TIP3   OH261129   3.326   5.269   0.929 -0.3840 -0.0150 -0.0257
13213TIP3    H161130   3.409   5.307   0.957  0.1910  0.7149 -2.4879
13213TIP3    H261131   3.259   5.321   0.975  0.4701  1.6099 -0.5682
13214TIP3   OH261132   3.303   2.270   3.956  0.1374 -0.1592 -0.1861
13214TIP3    H161133   3.225   2.222   3.985 -1.1110  1.4140 -0.7961
13214TIP3    H261134   3.334   2.222   3.879  0.2123 -1.2015  0.4771
13215TIP3   OH261135   4.782   4.249   3.563  0.0299 -0.2285 -0.3378
13215TIP3    H161136   4.780   4.224   3.656  0.5075  1.2948  0.0996
13215TIP3    H261137   4.774   4.165   3.516  0.7506 -1.1178  1.0620
13216TIP3   OH261138   5.203   3.721  10.565 -0.6289  0.0653 -0.7511
13216TIP3    H161139   5.294   3.712  10.538 -0.1438  0.2249  0.7507
13216TIP3    H261140   5.157   3.650  10.520  0.5998 -1.2494 -0.0052
13217TIP3   OH261141   2.458   2.362  15.507  0.0239  0.2606  0.0162
13217TIP3    H161142   2.535   2.308  15.526  0.8620  1.6367  0.6461
13217TIP3    H261143   2.405   2.357  15.587 -0.5683 -0.7096 -0.4275
13218TIP3   OH261144   4.290   3.138  15.598 -0.3819  0.3219  0.7181
13218TIP3    H161145   4.377   3.179  15.603 -1.0592  1.7208  1.7196
13218TIP3    H261146   4.280   3.114  15.506  0.3276  1.8234  0.2144
13219TIP3   OH261147   2.673   4.398  10.571  0.1846  0.6350  0.0886
13219TIP3    H161148   2.695   4.490  10.557 -0.0359  0.8662  1.1430
13219TIP3    H261149   2.710   4.352  10.496  0.7259  1.5246 -0.1980
13220TIP3   OH261150   0.572   4.539  14.504  0.2572 -0.1201  0.4976
13220TIP3    H161151   0.615   4.544  14.419  0.5446  0.2202  0.6580
13220TIP3    H261152   0.500   4.603  14.499 -1.1029 -1.6475 -0.2461
13221TIP3   OH261153   1.609   0.165   0.246 -0.1288 -0.3036 -0.0634
13221TIP3    H161154   1.636   0.073   0.244 -1.4860 -0.8380  2.5231
13221TIP3    H261155   1.618   0.191   0.337 -1.3956  1.6330 -0.4353
13222TIP3   OH261156   2.272   4.943   5.005  0.2998  0.1945  0.0772
13222TIP3    H161157   2.330   4.902   4.941 -0.0771  0.8368 -0.6976
13222TIP3    H261158   2.285   4.892   5.086  0.9851 -0.4566 -0.4291
13223TIP3   OH261159   0.540   3.314   3.439  0.3097  0.5957  0.0499
13223TIP3    H161160   0.576   3.291   3.525  1.9798 -0.6576 -0.9328
13223TIP3    H261161   0.566   3.406   3.427 -0.0246  0.8154  0.9070
13224TIP3   OH261162   3.063   0.170  14.064 -0.3632 -0.3326  0.1461
13224TIP3    H161163   3.005   0.094  14.059 -1.1442  0.2993 -3.5584
13224TIP3    H261164   3.129   0.154  13.997 -0.5064  2.1867 -0.6846
13225TIP3   OH261165   6.384   6.192   0.599  0.1201 -0.1497 -0.0049
13225TIP3    H161166   6.384   6.165   0.690  0.6217  0.0541  0.0611
13225TIP3    H261167   6.467   6.159   0.564  0.1593  0.2051 -0.2532
13226TIP3   OH261168   0.251   1.244   0.755 -0.3124 -0.4116 -0.4163
13226TIP3    H161169   0.207   1.216   0.675 -1.2972  0.0183 -0.0383
13226TIP3    H261170   0.241   1.339   0.756  1.5066 -0.1799 -0.8158
13227TIP3   OH261171   2.543   4.800   3.506  0.0846 -0.3840 -0.4450
13227TIP3    H161172   2.572   4.832   3.591  0.7650  1.8182 -1.4370
13227TIP3    H261173   2.618   4.814   3.448 -0.2063 -2.2440 -1.3657
13228TIP3   OH261174   3.043   1.030   2.896 -0.2882  0.4548 -0.2937
13228TIP3    H161175   2.963   1.053   2.849 -2.1594 -1.9309  1.5306
13228TIP3    H261176   3.051   1.098   2.963 -0.3946  1.0605 -0.8799
13229TIP3   OH261177   2.354   1.978  15.618  0.8787  0.8044 -0.0308
13229TIP3    H161178   2.344   1.945  15.707 -1.5269  0.2417 -0.4372
13229TIP3    H261179   2.311   2.063  15.619 -2.3092 -0.6210 -1.3254
13230TIP3   OH261180   5.012   3.595  10.230  0.2894  0.1508  0.3372
13230TIP3    H161181   5.030   3.661  10.163 -1.8241  1.1816  0.6850
13230TIP3    H261182   4.960   3.529  10.184  1.1099 -0.5236  0.3558
13231TIP3   OH261183   5.842   4.161   5.230 -0.4583  0.5429  0.1069
13231TIP3    H161184   5.858   4.137   5.138  1.7455  1.5673  0.1650
13231TIP3    H261185   5.773   4.228   5.225 -0.9248  0.0191 -0.7138
13232TIP3   OH261186   0.330   6.634   1.889 -0.4920 -0.1323 -0.6216
13232TIP3    H161187   0.379   6.623   1.971 -1.4676  0.2599  0.0295
13232TIP3    H261188   0.396   6.660   1.825  0.0025  1.4445  0.4792
13233TIP3   OH261189   0.501   3.660  12.456  0.0539  0.1007  0.0637
13233TIP3    H161190   0.420   3.709  12.470  0.5821  0.4222  2.3414
13233TIP3    H261191   0.571   3.721  12.479  0.9026 -0.6267 -0.4778
13234TIP3   OH261192   0.164   4.524   0.362 -0.1289 -0.0960 -0.4029
13234TIP3    H161193   0.106   4.528   0.286 -0.4017 -1.3760 -0.2897
13234TIP3    H261194   0.145   4.439   0.402 -0.4318  0.7860  1.4432
13235TIP3   OH261195   3.506   5.378   4.018 -0.2383  0.4709 -0.1482
13235TIP3    H161196   3.557   5.370   3.938 -0.8714  0.2280 -0.5371
13235TIP3    H261197   3.462   5.462   4.011  0.6550  1.0119  0.5223
13236TIP3   OH261198   4.128   2.027  12.496  0.2853 -0.4075 -0.9397
13236TIP3    H161199   4.171   2.037  12.581  1.5854  0.7589 -1.6847
13236TIP3    H261200   4.080   2.109  12.484 -0.2899 -0.7703 -1.1242
13237TIP3   OH261201   6.109   6.271   0.141  0.0806 -0.2847  0.4281
13237TIP3    H161202   6.120   6.274   0.236 -0.1892  0.5439  0.4436
13237TIP3    H261203   6.144   6.355   0.111 -0.0014 -0.4661 -0.1870
13238TIP3   OH261204   6.788   6.820   5.231 -0.3273 -0.6687  0.6660
13238TIP3    H161205   6.870   6.871   5.226 -0.6159 -0.2774 -0.1687
13238TIP3    H261206   6.817   6.730   5.241  0.2053 -0.5257  0.4521
13239TIP3   OH261207   2.890   2.416   5.450  0.1061 -0.6261  0.0959
13239TIP3    H161208   2.869   2.453   5.535  0.2470  0.9765 -0.5284
13239TIP3    H261209   2.981   2.387   5.458  0.6375  0.9418  0.0554
13240TIP3   OH261210   5.663   2.614   2.783 -0.0737 -0.6807 -0.5829
13240TIP3    H161211   5.573   2.645   2.767 -0.1781 -0.4552  0.3873
13240TIP3    H261212   5.682   2.641   2.873  0.3463 -2.2365 -0.1851
13241TIP3   OH261213   2.979   1.702   3.004 -0.1553 -0.2157 -0.0323
13241TIP3    H161214   2.921   1.726   2.931  0.1393 -0.2237 -0.2707
13241TIP3    H261215   3.035   1.778   3.016 -0.6473  0.0476  0.6326
13242TIP3   OH261216   4.491   0.733  11.779 -0.2393  0.4874 -0.0383
13242TIP3    H161217   4.411   0.760  11.734 -0.0196 -1.3484 -1.7151
13242TIP3    H261218   4.461   0.690  11.859 -0.8544  0.8509 -0.0692
13243TIP3   OH261219   3.133   3.804   5.923  0.2077  0.1876  0.3422
13243TIP3    H161220   3.140   3.886   5.971  1.3827  0.9267 -1.0300
13243TIP3    H261221   3.219   3.762   5.935  1.7601  1.8316 -3.5236
13244TIP3   OH261222   5.895   2.975   2.959  0.0940  0.3506  0.1603
13244TIP3    H161223   5.912   3.019   3.042  0.2441  1.3463 -0.3783
13244TIP3    H261224   5.802   2.989   2.943  0.0156 -0.0449  0.2781
13245TIP3   OH261225   5.640   5.603   6.346  0.7150 -0.4758  0.3732
13245TIP3    H161226   5.671   5.534   6.287 -0.8478 -1.9311  1.1684
13245TIP3    H261227   5.596   5.556   6.417  1.5691  1.2710  2.1603
13246TIP3   OH261228   1.940   6.675  13.612 -0.0730 -0.0917  0.4940
13246TIP3    H161229   1.915   6.599  13.559  0.0221  0.8510 -0.9438
13246TIP3    H261230   2.027   6.652  13.646 -0.3810 -0.9476  0.7421
13247TIP3   OH261231   6.612   0.923  16.880  0.2091  0.2095 -0.0194
13247TIP3    H161232   6.606   0.919  16.975 -0.7300 -1.7124 -0.1180
13247TIP3    H261233   6.697   0.884  16.860  0.3288  0.4509  0.0113
13248TIP3   OH261234   5.266   5.453   0.532 -0.1819 -0.3371 -0.2710
13248TIP3    H161235   5.244   5.517   0.600 -1.1347  0.9666 -1.7327
13248TIP3    H261236   5.358   5.431   0.549 -0.5903 -0.5830  1.8252
13249TIP3   OH261237   4.825   2.097  16.181 -0.1469  0.4180  0.0638
13249TIP3    H161238   4.892   2.131  16.241 -0.1697  0.2535  0.1856
13249TIP3    H261239   4.823   2.159  16.109  1.8158 -0.8136 -1.1345
13250TIP3   OH261240   2.521   5.964   0.391 -0.1100  0.2168 -0.0174
13250TIP3    H161241   2.464   6.037   0.417  0.3307  0.3496  0.5972
13250TIP3    H261242   2.543   5.921   0.474  0.0533 -0.3003 -0.3310
13251TIP3   OH261243   3.986   2.117  12.804 -0.4771  0.4959 -0.3810
13251TIP3    H161244   4.059   2.057  12.786 -0.1844  0.5133  0.6782
13251TIP3    H261245   3.917   2.089  12.744  0.5098  0.7035 -1.6521
13252TIP3   OH261246   4.233   6.336   4.694 -0.7335  0.3576  0.6271
13252TIP3    H161247   4.144   6.301   4.688 -0.6000 -0.0518  0.9846
13252TIP3    H261248   4.262   6.343   4.603 -0.8057 -0.3738  0.5370
13253TIP3   OH261249   5.874   1.941  14.064  0.0079  0.0841  0.6339
13253TIP3    H161250   5.839   1.923  13.976 -1.1958 -1.1812  1.3404
13253TIP3    H261251   5.904   1.856  14.096 -0.8615  0.2519  1.9819
13254TIP3   OH261252   5.381   0.261   0.916 -0.0225  0.4671 -0.0918
13254TIP3    H161253   5.413   0.336   0.966 -1.8929 -0.1707  2.2087
13254TIP3    H261254   5.337   0.299   0.840 -1.9066  1.8408  1.6046
13255TIP3   OH261255   6.752   4.461  11.707 -0.2060  0.2349  0.1029
13255TIP3    H161256   6.673   4.469  11.653  0.4647  0.8878 -0.8032
13255TIP3    H261257   6.824   4.480  11.648  0.6908 -0.8561  0.7962
13256TIP3   OH261258   2.941   6.575   1.957 -0.2391 -0.1892 -0.5180
13256TIP3    H161259   2.849   6.563   1.982 -0.0085 -1.1612 -0.0996
13256TIP3    H261260   2.985   6.596   2.039 -0.3582  2.0879 -0.9853
13257TIP3   OH261261   6.446   2.032  11.609  0.1194 -0.0065  0.5242
13257TIP3    H161262   6.530   1.994  11.584  0.0166 -0.1696  0.4289
13257TIP3    H261263   6.393   2.028  11.530  0.4403  1.2778  0.2074
13258TIP3   OH261264   2.865   5.333   5.816 -0.0556  0.0482 -0.2682
13258TIP3    H161265   2.934   5.399   5.819 -1.1125  1.1935 -0.2101
13258TIP3    H261266   2.909   5.250   5.835  1.0613  0.9314  1.1832
13259TIP3   OH261267   1.903   3.821   4.695  0.0451  0.3702 -0.4870
13259TIP3    H161268   1.826   3.809   4.751  1.1234  1.3960  1.3091
13259TIP3    H261269   1.868   3.854   4.613 -1.3730  2.2109  0.7656
13260TIP3   OH261270   4.774   6.138   2.618  0.8232  0.0014 -0.4134
13260TIP3    H161271   4.812   6.182   2.693 -0.2065 -1.2222  0.8917
13260TIP3    H261272   4.792   6.195   2.544  2.0666  1.1328  0.7227
13261TIP3   OH261273   6.578   2.948  16.677 -0.0958 -0.0122 -0.3536
13261TIP3    H161274   6.600   2.950  16.770  0.3695  0.5323 -0.4717
13261TIP3    H261275   6.587   2.856  16.652  1.8743  0.1597 -0.3638
13262TIP3   OH261276   4.583   5.531  16.238  0.1672  0.1899  0.3170
13262TIP3    H161277   4.520   5.471  16.278  0.8490 -2.2055 -1.9801
13262TIP3    H261278   4.544   5.554  16.154  1.8419 -0.5186 -0.6910
13263TIP3   OH261279   6.232   4.570  13.107 -0.1591 -0.1367  0.3263
13263TIP3    H161280   6.219   4.632  13.178  1.2934 -0.7946  1.1852
13263TIP3    H261281   6.286   4.617  13.043 -0.2924 -0.0252  0.2952
13264TIP3   OH261282   3.288   4.212   0.319  0.6321  0.2662 -0.1061
13264TIP3    H161283   3.280   4.270   0.243  0.0923  0.4515  0.0849
13264TIP3    H261284   3.201   4.175   0.330  0.9788 -0.6054 -0.2380
13265TIP3   OH261285   2.810   0.817   5.455 -0.2367  0.2218 -0.0442
13265TIP3    H161286   2.715   0.810   5.464 -0.1986 -0.5670 -0.1040
13265TIP3    H261287   2.844   0.779   5.536  0.0355 -0.8927 -0.6578
13266TIP3   OH261288   2.479   0.233  16.064 -0.7432 -0.1974 -0.0543
13266TIP3    H161289   2.526   0.173  16.123  0.4590 -0.7708 -1.5499
13266TIP3    H261290   2.442   0.176  15.996 -2.0577  0.4708  0.0626
13267TIP3   OH261291   3.409   0.630   3.501 -0.7075  0.4814 -0.3736
13267TIP3    H161292   3.385   0.716   3.534 -1.1059  0.4129 -0.4864
13267TIP3    H261293   3.498   0.616   3.534 -0.6758  0.8942 -0.2792
13268TIP3   OH261294   0.980   0.897   1.658 -0.2466  0.0034 -0.1418
13268TIP3    H161295   0.910   0.847   1.700  0.6389 -1.1677 -0.0195
13268TIP3    H261296   0.935   0.972   1.619 -1.1821  0.9387  2.5000
13269TIP3   OH261297   0.483   4.866  15.981  0.1094  0.0619  0.4790
13269TIP3    H161298   0.441   4.847  15.897  1.5764 -0.3131 -0.1900
13269TIP3    H261299   0.424   4.929  16.023 -0.8980 -0.1195 -0.5995
13270TIP3   OH261300   3.990   0.413  12.820 -0.1497  0.0445 -0.5083
13270TIP3    H161301   4.053   0.452  12.760  0.7225 -0.6832 -0.0996
13270TIP3    H261302   4.043   0.361  12.880 -1.2313 -1.6731 -0.9545
13271TIP3   OH261303   4.283   2.883   3.376 -0.0764 -0.3138  0.4842
13271TIP3    H161304   4.235   2.859   3.455 -0.1593  1.0201  0.8548
13271TIP3    H261305   4.223   2.938   3.326 -0.1813 -1.4554 -0.7395
13272TIP3   OH261306   2.545   2.267   2.282 -0.0497  0.4271 -0.2292
13272TIP3    H161307   2.608   2.304   2.344 -0.7149  1.0621  0.0883
13272TIP3    H261308   2.518   2.342   2.228 -0.4610  0.1518 -0.4101
13273TIP3   OH261309   0.816   4.166  12.816 -0.2520 -0.4031  0.2161
13273TIP3    H161310   0.827   4.097  12.881  0.1973  0.7772  1.4621
13273TIP3    H261311   0.787   4.242  12.867 -2.5773 -0.1294 -1.3483
13274TIP3   OH261312   1.345   0.393   2.652  0.4919  0.0606 -0.8014
13274TIP3    H161313   1.329   0.335   2.727 -0.8541 -2.2634 -2.7207
13274TIP3    H261314   1.295   0.472   2.672  0.0805 -0.5404  0.6983
13275TIP3   OH261315   1.057   1.547   4.404 -0.2013 -0.0340  0.4161
13275TIP3    H161316   1.140   1.538   4.357 -0.2039  0.5388  0.2974
13275TIP3    H261317   0.991   1.559   4.335 -0.3637 -0.3373  0.5163
13276TIP3   OH261318   5.638   3.604   1.997  0.5383 -0.1122 -0.1206
13276TIP3    H161319   5.571   3.621   1.931 -1.3091  0.3305  1.7445
13276TIP3    H261320   5.662   3.512   1.984 -0.6537 -0.3643 -0.6860
13277TIP3   OH261321   5.587   0.257  16.108 -0.2875 -0.5814  0.1865
13277TIP3    H161322   5.643   0.285  16.036  0.1247 -0.2483  0.6286
13277TIP3    H261323   5.635   0.185  16.149 -1.2517 -1.8414 -0.8242
13278TIP3   OH261324   2.877   2.119  14.357 -0.1572  0.4580 -0.5416
13278TIP3    H161325   2.851   2.209  14.377 -0.0033  0.7925 -1.7754
13278TIP3    H261326   2.802   2.066  14.381 -1.3811  1.2342 -2.4439
13279TIP3   OH261327   0.177   3.382  17.167 -0.2071  0.0466  0.2818
13279TIP3    H161328   0.172   3.343  17.080 -0.0987  1.3360 -0.3250
13279TIP3    H261329   0.195   3.475  17.151  0.4575  0.1902  1.6944
13280TIP3   OH261330   2.100   5.769  16.767  0.6613 -0.1660 -0.1742
13280TIP3    H161331   2.053   5.765  16.851 -0.2188  0.0632 -0.6382
13280TIP3    H261332   2.036   5.737  16.703  0.8698  0.8862 -0.9359
13281TIP3   OH261333   0.954   0.359   0.921 -0.6592 -0.5275  0.3673
13281TIP3    H161334   0.995   0.350   1.007  0.4041  0.8865  0.0341
13281TIP3    H261335   0.902   0.439   0.927  1.9653  1.4739 -1.1982
13282TIP3   OH261336   3.488   3.648   1.557  0.2412  0.1702 -0.1410
13282TIP3    H161337   3.545   3.576   1.527  1.3192  0.7609  0.4287
13282TIP3    H261338   3.547   3.707   1.603 -0.9077  0.6502  0.7591
13283TIP3   OH261339   2.303   0.850  12.911 -0.0782 -0.3426  0.3393
13283TIP3    H161340   2.287   0.835  12.818  0.9748 -2.2587  0.4076
13283TIP3    H261341   2.234   0.911  12.938  0.7178  1.8432 -2.0860
13284TIP3   OH261342   3.211   1.059  13.533 -0.5235 -0.0785  0.1157
13284TIP3    H161343   3.118   1.079  13.538  0.1001  3.2036  1.4186
13284TIP3    H261344   3.225   0.991  13.599 -2.0762 -1.2960 -0.7548
13285TIP3   OH261345   4.468   3.425  13.440 -0.3178  0.4149 -0.2139
13285TIP3    H161346   4.410   3.500  13.454 -1.8671 -0.4943 -1.4515
13285TIP3    H261347   4.425   3.374  13.371  2.2217 -0.0528 -1.5702
13286TIP3   OH261348   2.917   3.103  13.731  0.1978 -0.3569  0.4370
13286TIP3    H161349   2.836   3.152  13.713  0.1070 -0.4010  0.7226
13286TIP3    H261350   2.963   3.156  13.796  0.6770 -0.0391 -0.1504
13287TIP3   OH261351   0.225   6.099   1.632 -0.3324 -0.4506  0.3219
13287TIP3    H161352   0.302   6.093   1.575  0.1503 -0.3306  0.9479
13287TIP3    H261353   0.252   6.157   1.703 -0.9844 -0.4541  0.5837
13288TIP3   OH261354   4.514   3.248   1.165 -0.2040 -0.1165 -0.1908
13288TIP3    H161355   4.465   3.290   1.094 -1.5734 -1.2848  0.0352
13288TIP3    H261356   4.461   3.262   1.243  1.4456  1.4471  0.7436
13289TIP3   OH261357   1.648   4.444   0.716 -0.2230  0.6483 -0.5048
13289TIP3    H161358   1.579   4.429   0.651  0.2551  2.4068 -1.4600
13289TIP3    H261359   1.729   4.449   0.666  0.6393 -1.1141  0.5813
13290TIP3   OH261360   3.116   6.403  13.953  0.0325 -0.0345 -0.2876
13290TIP3    H161361   3.197   6.355  13.970 -0.9000 -1.0457  1.4345
13290TIP3    H261362   3.079   6.361  13.875  2.1948  1.8846 -2.5471
13291TIP3   OH261363   0.032   6.153  16.990 -0.2591  0.0583  0.4704
13291TIP3    H161364   0.036   6.071  16.941 -0.8390  1.1279 -1.4431
13291TIP3    H261365  -0.056   6.155  17.026 -0.1613 -0.2654  0.7334
13292TIP3   OH261366   5.168   3.262   5.198 -0.2697 -0.2276 -0.1349
13292TIP3    H161367   5.225   3.213   5.139  1.3246 -0.1682  1.2861
13292TIP3    H261368   5.101   3.299   5.141  0.0390 -1.8021 -1.6235
13293TIP3   OH261369   6.569   4.137  13.289 -0.3523 -0.2815  0.0188
13293TIP3    H161370   6.475   4.123  13.279 -0.5643  1.6612 -1.2748
13293TIP3    H261371   6.586   4.219  13.243  1.4523  1.1175  2.8850
13294TIP3   OH261372   4.295   3.290  16.300 -0.3577 -0.0181 -0.1189
13294TIP3    H161373   4.360   3.360  16.307  1.4717 -1.6034 -0.5505
13294TIP3    H261374   4.306   3.240  16.380 -0.7365 -0.5804 -0.4156
13295TIP3   OH261375   3.719   0.957  12.440  0.2079  0.3798 -0.0945
13295TIP3    H161376   3.690   0.942  12.530 -0.8788 -0.7731 -0.6152
13295TIP3    H261377   3.735   0.870  12.405  2.1939  0.8743 -0.5476
13296TIP3   OH261378   4.669   1.087  15.742  0.3619  0.3497  0.2149
13296TIP3    H161379   4.594   1.130  15.783  1.9686  2.4901  1.0643
13296TIP3    H261380   4.692   1.017  15.803 -0.6438 -0.0238  0.1826
13297TIP3   OH261381   0.389   0.183   0.903  0.4786  0.2165  0.3942
13297TIP3    H161382   0.393   0.250   0.836 -0.5199  0.6008  0.7090
13297TIP3    H261383   0.480   0.156   0.915  1.0562  2.2311  0.9805
13298TIP3   OH261384   3.970   2.332   4.411 -0.2198 -0.3550 -0.2950
13298TIP3    H161385   3.928   2.269   4.472 -0.8901  0.1912 -0.1781
13298TIP3    H261386   3.897   2.381   4.375  0.3145  0.4533 -0.2851
13299TIP3   OH261387   5.205   6.321  15.929  0.0598 -0.6062  0.0264
13299TIP3    H161388   5.268   6.326  16.000  0.9636  0.4548 -0.8099
13299TIP3    H261389   5.191   6.412  15.902  0.4870 -1.0233 -1.7599
13300TIP3   OH261390   5.187   4.104  13.572 -0.8257 -0.6867 -0.3865
13300TIP3    H161391   5.231   4.135  13.651 -0.9127 -0.2644 -0.5011
13300TIP3    H261392   5.181   4.182  13.516 -0.2017 -1.1290 -1.0676
13301TIP3   OH261393   5.798   3.289  16.648 -0.2554  0.1191 -0.1368
13301TIP3    H161394   5.790   3.195  16.631  0.3870  0.1901 -0.8879
13301TIP3    H261395   5.883   3.298  16.690 -0.8468  0.2263  1.0598
13302TIP3   OH261396   3.958   1.602   1.532  0.4762  0.5315 -0.1951
13302TIP3    H161397   3.969   1.674   1.595 -1.4374  1.0222 -0.3493
13302TIP3    H261398   3.914   1.534   1.582  0.2123  0.3706 -0.6455
13303TIP3   OH261399   1.516   1.564   0.527 -0.5762  0.7471  0.1405
13303TIP3    H161400   1.475   1.477   0.520 -1.8033  1.1317  1.8629
13303TIP3    H261401   1.589   1.552   0.588  0.5405  0.5299 -1.2031
13304TIP3   OH261402   0.259   0.356  16.289  0.1546 -0.0806  0.2362
13304TIP3    H161403   0.330   0.380  16.230  1.4140 -2.8578  0.4378
13304TIP3    H261404   0.303   0.314  16.363 -1.6467 -2.0193  0.3041
13305TIP3   OH261405   2.280   2.737  11.960  0.4946 -0.0185  0.8376
13305TIP3    H161406   2.194   2.694  11.951 -0.1509  1.5273 -1.1332
13305TIP3    H261407   2.332   2.675  12.011 -1.0447 -2.1433 -0.0036
13306TIP3   OH261408   0.125   3.148  12.487  0.2754  0.6734  0.6371
13306TIP3    H161409   0.082   3.188  12.412 -1.3953 -1.8525  0.1124
13306TIP3    H261410   0.204   3.108  12.452  0.3943  0.9533  0.5815
13307TIP3   OH261411   5.703   4.291  13.096  0.0214 -0.1754 -0.3554
13307TIP3    H161412   5.634   4.350  13.064 -1.6033 -2.1471 -0.6824
13307TIP3    H261413   5.757   4.273  13.019 -0.5129 -0.4546 -0.6724
13308TIP3   OH261414   2.185   2.606  12.709 -0.8112 -0.1922  0.2464
13308TIP3    H161415   2.256   2.586  12.647  0.4863 -2.7635  2.3626
13308TIP3    H261416   2.209   2.691  12.745 -0.1559  0.0965 -0.8079
13309TIP3   OH261417   2.953   1.474  12.992 -0.3199  0.4328 -0.4112
13309TIP3    H161418   2.996   1.492  13.076 -0.2231 -0.6937 -0.2041
13309TIP3    H261419   2.873   1.527  12.995 -0.9732 -0.5536  0.9708
13310TIP3   OH261420   3.399   3.169   1.671  0.6253 -0.7550  0.0342
13310TIP3    H161421   3.407   3.260   1.643  0.3475 -0.3407  1.2520
13310TIP3    H261422   3.348   3.127   1.601 -0.4404  0.3444  0.1092
13311TIP3   OH261423   5.157   3.600   0.319  0.3936  0.7170  0.0017
13311TIP3    H161424   5.067   3.628   0.331  0.5234  1.6480 -1.0115
13311TIP3    H261425   5.199   3.672   0.272  1.2068 -0.4393 -1.1363
13312TIP3   OH261426   4.217   0.891   0.656 -0.6080 -0.1071 -0.1963
13312TIP3    H161427   4.126   0.913   0.638 -0.1203  2.0144 -0.3620
13312TIP3    H261428   4.229   0.912   0.749 -0.7296 -2.1864  0.3380
13313TIP3   OH261429   3.337   5.664   5.934 -0.3942 -0.2532  0.1729
13313TIP3    H161430   3.275   5.730   5.964  0.2961  0.8808 -0.8074
13313TIP3    H261431   3.414   5.675   5.990  0.1077  0.4918 -0.6268
13314TIP3   OH261432   4.157   2.437   2.593 -0.5184 -0.4863  0.0949
13314TIP3    H161433   4.074   2.484   2.596  0.7080  1.8149 -0.2792
13314TIP3    H261434   4.151   2.373   2.665 -1.6291  1.3723  1.7503
13315TIP3   OH261435   6.441   6.428   3.249  0.1445 -0.3670  0.0187
13315TIP3    H161436   6.480   6.340   3.258  3.2644  0.9835  1.2995
13315TIP3    H261437   6.363   6.414   3.196 -0.9783 -4.2874  2.2850
13316TIP3   OH261438   5.613   6.591   1.432 -0.1607 -0.2814  0.3807
13316TIP3    H161439   5.611   6.557   1.343 -1.3000  1.0762 -0.1441
13316TIP3    H261440   5.523   6.617   1.451  0.2390  0.3669  1.5578
13317TIP3   OH261441   0.441   5.483  12.881  0.8651  0.3804  0.6424
13317TIP3    H161442   0.491   5.418  12.931  1.5747 -0.0340 -0.5773
13317TIP3    H261443   0.377   5.432  12.832 -1.3516  0.9548  2.7348
13318TIP3   OH261444   6.563   0.800  14.746 -0.6346 -0.1265 -0.5080
13318TIP3    H161445   6.565   0.818  14.652 -2.6491  1.6893 -0.2769
13318TIP3    H261446   6.518   0.715  14.754 -0.0581 -0.5030 -1.1771
13319TIP3   OH261447   6.371   1.705  14.482 -0.2402 -0.4666 -0.6464
13319TIP3    H161448   6.425   1.725  14.406 -0.4017 -1.2094 -0.9634
13319TIP3    H261449   6.429   1.656  14.541 -0.2477 -0.3032 -0.5032
13320TIP3   OH261450   4.742   5.291   6.081  0.1659 -0.5693 -0.1626
13320TIP3    H161451   4.684   5.224   6.046 -1.4047 -0.3087  1.7621
13320TIP3    H261452   4.707   5.373   6.047 -0.4947 -0.4344  0.7869
13321TIP3   OH261453   6.602   4.837   6.236 -0.3594 -0.6051 -0.0495
13321TIP3    H161454   6.647   4.878   6.162  1.2158  1.1502  1.7975
13321TIP3    H261455   6.532   4.898   6.259 -1.0660 -1.3111 -0.2487
13322TIP3   OH261456   4.390   4.832  12.582 -0.3849  0.2998 -0.3279
13322TIP3    H161457   4.421   4.913  12.623 -0.9923 -0.2575  1.3243
13322TIP3    H261458   4.446   4.764  12.619  0.0708 -0.0662 -1.6480
13323TIP3   OH261459   3.142   3.434  14.995  0.6726 -0.0119  0.1133
13323TIP3    H161460   3.124   3.387  14.914 -0.6161  0.6341  0.0098
13323TIP3    H261461   3.165   3.366  15.058 -0.6712 -0.7397 -0.1634
13324TIP3   OH261462   1.090   5.700  12.989  0.8452  0.7762 -0.2294
13324TIP3    H161463   1.103   5.612  13.024  0.8323  1.2783  1.0807
13324TIP3    H261464   1.087   5.687  12.894  0.5852 -0.6628 -0.0538
13325TIP3   OH261465   1.464   2.414   3.943 -0.4731  0.0201 -0.1220
13325TIP3    H161466   1.454   2.499   3.898 -1.4841 -0.2725 -0.4778
13325TIP3    H261467   1.439   2.433   4.034  0.3256  0.3322  0.0358
13326TIP3   OH261468   2.619   6.318   2.951 -0.8929  0.4018  0.0036
13326TIP3    H161469   2.659   6.382   3.010 -1.3902 -0.9962  1.9492
13326TIP3    H261470   2.538   6.293   2.994 -0.4916 -1.8574 -0.4407
13327TIP3   OH261471   4.078   2.542  12.399  0.0220 -0.3031 -0.8913
13327TIP3    H161472   3.989   2.571  12.418  0.0613 -0.6051 -0.2237
13327TIP3    H261473   4.067   2.458  12.354 -0.0552  0.1609 -1.7610
13328TIP3   OH261474   3.665   4.561   5.150 -0.7659  0.2521 -0.6253
13328TIP3    H161475   3.757   4.579   5.172 -0.9287 -0.2093  0.4935
13328TIP3    H261476   3.663   4.563   5.055  0.2121  1.2222 -0.6529
13329TIP3   OH261477   2.687   2.278  14.516 -0.2137  0.5025  0.3632
13329TIP3    H161478   2.652   2.190  14.530 -1.5403  0.8708 -0.3895
13329TIP3    H261479   2.704   2.311  14.604  1.5981 -0.9534  0.6301
13330TIP3   OH261480   3.005   6.613  13.150 -0.1477  1.0545 -0.0346
13330TIP3    H161481   2.935   6.618  13.215 -2.2509 -0.4167 -1.9854
13330TIP3    H261482   2.977   6.674  13.081  0.2256  0.1322 -1.0387
13331TIP3   OH261483   5.432   6.229  10.841 -0.5720  0.4932 -0.2205
13331TIP3    H161484   5.438   6.314  10.797 -1.9959  0.4726 -0.5023
13331TIP3    H261485   5.501   6.232  10.907 -1.0282  2.1660  0.2453
13332TIP3   OH261486   2.271   0.132   5.638  0.3894 -0.2173  0.8291
13332TIP3    H161487   2.321   0.129   5.557  0.2666  0.3766  0.7223
13332TIP3    H261488   2.275   0.043   5.673 -0.5183 -0.7635 -0.3998
13333TIP3   OH261489   5.201   3.610  17.013 -0.4487  0.4118 -0.1936
13333TIP3    H161490   5.251   3.674  16.962 -1.0213  0.9007 -0.1475
13333TIP3    H261491   5.117   3.652  17.028 -0.0217  0.6520  1.8960
13334TIP3   OH261492   0.080   4.304   2.713 -0.5229 -0.0385  0.2443
13334TIP3    H161493   0.041   4.380   2.671  1.3941 -0.3920 -2.4147
13334TIP3    H261494   0.154   4.280   2.657  1.4558 -1.4154  3.1709
13335TIP3   OH261495   0.350   3.582   0.630 -0.0582 -0.0565  0.1158
13335TIP3    H161496   0.411   3.548   0.564 -0.2519  0.2832 -0.2422
13335TIP3    H261497   0.407   3.617   0.698  0.1840  1.3500 -0.7675
13336TIP3   OH261498   2.743   2.792  15.197 -0.6394 -0.2600  0.3842
13336TIP3    H161499   2.833   2.789  15.229 -0.7914  0.6071  0.9244
13336TIP3    H261500   2.691   2.762  15.271 -0.9423  1.1814  0.7967
13337TIP3   OH261501   2.346   0.010   3.164 -0.5136  0.3252 -0.4588
13337TIP3    H161502   2.295  -0.021   3.089 -1.8142 -1.7074  1.1485
13337TIP3    H261503   2.430  -0.036   3.156 -0.0147  1.3611 -1.4866
13338TIP3   OH261504   3.729   1.376  16.575  0.1986 -0.0545  0.1338
13338TIP3    H161505   3.730   1.416  16.489 -0.1883 -0.4918 -0.0796
13338TIP3    H261506   3.790   1.428  16.627 -1.1359  1.5448  0.1880
13339TIP3   OH261507   2.611   0.248   2.656  0.0805  0.2398 -0.0951
13339TIP3    H161508   2.689   0.302   2.672 -0.4669  1.1993 -0.5609
13339TIP3    H261509   2.602   0.247   2.561 -1.0879  1.0492 -0.0040
13340TIP3   OH261510   5.322   0.567  15.155  1.0746  0.5663 -0.1950
13340TIP3    H161511   5.410   0.563  15.117  0.7349  0.6580 -0.9880
13340TIP3    H261512   5.301   0.660  15.157  1.6103  0.6948  1.4506
13341TIP3   OH261513   1.729   0.768  13.277  0.2510 -0.2194 -0.1156
13341TIP3    H161514   1.789   0.842  13.290 -0.8369  0.7579 -0.4829
13341TIP3    H261515   1.752   0.706  13.345  1.0296  0.5738  0.3579
13342TIP3   OH261516   1.209   0.546   2.146  0.2528  0.0172  0.0631
13342TIP3    H161517   1.275   0.591   2.094  0.3004 -0.5154 -0.3357
13342TIP3    H261518   1.140   0.524   2.083  0.2577 -0.5274  0.2491
13343TIP3   OH261519   2.838   4.940   2.178  0.0011  0.4592  0.2804
13343TIP3    H161520   2.921   4.949   2.225 -0.1356 -0.8473  0.8078
13343TIP3    H261521   2.771   4.965   2.241 -0.2023 -1.5516  0.9484
13344TIP3   OH261522   6.724   1.413  16.353  0.3062 -0.2360 -0.3541
13344TIP3    H161523   6.719   1.407  16.258 -1.4692 -2.0723 -0.2201
13344TIP3    H261524   6.635   1.395  16.383  0.0552  3.2882  1.6145
13345TIP3   OH261525   6.414   0.452  14.208  0.3086  0.4751 -0.3591
13345TIP3    H161526   6.498   0.419  14.176 -0.2906  0.0755 -1.5881
13345TIP3    H261527   6.364   0.374  14.231 -0.0979  0.6569 -0.6096
13346TIP3   OH261528   0.662   2.360   2.591  0.1694 -0.3161  0.2016
13346TIP3    H161529   0.654   2.400   2.678  2.3331 -1.0298  0.7633
13346TIP3    H261530   0.689   2.270   2.608 -0.3962 -0.7776 -1.2142
13347TIP3   OH261531   6.672   5.492  12.570  0.5678  0.1935  0.1558
13347TIP3    H161532   6.745   5.429  12.572 -1.2974 -2.2443 -1.7336
13347TIP3    H261533   6.608   5.456  12.631 -0.1362  0.8652 -0.1755
13348TIP3   OH261534   3.516   1.781   1.249  0.3716  0.4940 -0.1708
13348TIP3    H161535   3.581   1.804   1.182  1.7711 -0.1653  0.9163
13348TIP3    H261536   3.433   1.784   1.202  1.3145 -0.1425 -2.0203
13349TIP3   OH261537   0.350   3.204   2.926 -0.0384  0.0224 -0.1929
13349TIP3    H161538   0.289   3.198   2.853  0.1392 -0.6617 -0.2939
13349TIP3    H261539   0.324   3.133   2.985  0.5224 -0.1418 -0.1377
13350TIP3   OH261540   1.785   3.319  14.785 -0.1067  0.1265  0.3045
13350TIP3    H161541   1.726   3.303  14.860 -0.2363  0.9089  0.3706
13350TIP3    H261542   1.771   3.243  14.728  0.1959 -0.6228  1.1958
13351TIP3   OH261543   1.127   6.075  16.911 -0.7459 -0.4038 -0.4746
13351TIP3    H161544   1.109   6.152  16.858  0.2982 -0.2876 -0.6891
13351TIP3    H261545   1.201   6.101  16.966 -0.1528 -1.3565 -0.7999
13352TIP3   OH261546   2.134   2.581   3.431  0.6863  0.2537 -0.5592
13352TIP3    H161547   2.073   2.606   3.500  0.9115  1.9061 -0.9108
13352TIP3    H261548   2.111   2.491   3.410 -1.7589  0.8629 -0.8074
13353TIP3   OH261549   6.559   1.995   4.730  0.5589  0.4720 -0.0138
13353TIP3    H161550   6.590   1.908   4.757  1.0676 -0.4114 -2.9658
13353TIP3    H261551   6.492   2.018   4.794  1.0781 -1.6717  1.4087
13354TIP3   OH261552   5.885   6.296   4.067  0.2070  0.3716  0.1820
13354TIP3    H161553   5.790   6.285   4.070 -0.0497  1.2151 -2.2142
13354TIP3    H261554   5.919   6.214   4.101 -1.3801 -0.0062  0.9707
13355TIP3   OH261555   3.859   3.906  10.694  0.7129  0.2162  0.0173
13355TIP3    H161556   3.867   3.976  10.629 -0.7075  0.7979  0.4222
13355TIP3    H261557   3.880   3.826  10.646  2.8279  0.9252 -0.3456
13356TIP3   OH261558   6.613   0.241   2.799  0.1979 -0.0474 -0.3112
13356TIP3    H161559   6.700   0.207   2.780  0.0341 -0.5025 -0.2783
13356TIP3    H261560   6.589   0.200   2.882 -0.5776 -0.9832 -0.9675
13357TIP3   OH261561   3.782   1.332  11.560 -0.2810 -0.8706  0.2416
13357TIP3    H161562   3.864   1.367  11.526 -0.2430 -0.8206  0.3840
13357TIP3    H261563   3.746   1.403  11.613  0.1242 -1.2800  1.0770
13358TIP3   OH261564   0.581   4.892   3.547 -0.0411  0.1981 -0.2160
13358TIP3    H161565   0.647   4.930   3.604  0.9990 -1.0650 -0.5423
13358TIP3    H261566   0.543   4.967   3.500 -0.4345  1.1772  1.5839
13359TIP3   OH261567   4.481   6.117   5.254 -0.3083  0.1328  0.6152
13359TIP3    H161568   4.560   6.117   5.201  0.8255 -0.6297  2.2301
13359TIP3    H261569   4.437   6.035   5.231  0.5927 -0.5924  1.4190
13360TIP3   OH261570   2.261   6.581   1.126 -0.4707 -0.2029  0.0706
13360TIP3    H161571   2.305   6.563   1.209 -2.0245  1.2398  1.2880
13360TIP3    H261572   2.172   6.548   1.138 -0.9183  0.6494 -0.7482
13361TIP3   OH261573   1.848   2.899  14.150  0.4436  0.0877 -0.4207
13361TIP3    H161574   1.876   2.925  14.238  2.0948 -3.9893  0.4616
13361TIP3    H261575   1.754   2.916  14.149  0.7278  2.1910  1.3025
13362TIP3   OH261576   3.413   0.110   2.887 -0.5261 -0.2597  0.1350
13362TIP3    H161577   3.404   0.175   2.818 -3.4800 -1.7819 -1.1390
13362TIP3    H261578   3.377   0.152   2.965 -0.7380  0.2451 -0.2322
13363TIP3   OH261579   3.385   4.920   0.901  0.1132 -0.3988 -0.4274
13363TIP3    H161580   3.352   4.830   0.901  0.5759 -0.5849  0.6956
13363TIP3    H261581   3.306   4.974   0.911  0.0138 -0.7920  1.1844
13364TIP3   OH261582   6.052   6.169  12.932  0.1546  0.0780 -0.1324
13364TIP3    H161583   6.074   6.205  13.018 -1.8008 -0.3796  0.6189
13364TIP3    H261584   6.078   6.078  12.936 -1.0268 -0.2563  0.4587
13365TIP3   OH261585   4.886   6.459   5.765  0.2683  0.0134  0.1023
13365TIP3    H161586   4.794   6.439   5.750  0.3396  0.0400 -0.3713
13365TIP3    H261587   4.907   6.414   5.847 -0.7942  1.9136  1.5151
13366TIP3   OH261588   3.937   5.178   2.803 -0.4592  0.0847  0.8522
13366TIP3    H161589   3.979   5.247   2.854 -1.0737 -0.5165  2.1933
13366TIP3    H261590   3.968   5.096   2.841 -2.2089 -0.3800  1.3900
13367TIP3   OH261591   2.466   4.320  15.457 -0.1736 -0.0092  0.2785
13367TIP3    H161592   2.496   4.410  15.442  1.2731 -0.1336  2.0564
13367TIP3    H261593   2.468   4.279  15.371  1.4047  1.0235 -0.2231
13368TIP3   OH261594   0.015   0.619   5.281 -0.0333 -0.5907 -0.0236
13368TIP3    H161595   0.063   0.676   5.220 -0.2025  1.0718  1.3376
13368TIP3    H261596  -0.072   0.657   5.286  0.0697 -0.5040  1.4735
13369TIP3   OH261597   3.322   6.167  13.656  0.3258 -0.1317  0.5628
13369TIP3    H161598   3.343   6.221  13.732 -1.0216  3.6377 -1.4339
13369TIP3    H261599   3.231   6.139  13.671  0.5953 -0.7823  1.0218
13370TIP3   OH261600   4.272   5.644  15.599 -0.1590 -0.4355  0.1858
13370TIP3    H161601   4.177   5.652  15.599 -0.3294 -1.1419  3.2548
13370TIP3    H261602   4.289   5.552  15.619  0.9921  0.2894  3.1892
13371TIP3   OH261603   1.116   6.063  11.737 -0.3655 -0.0330  0.7784
13371TIP3    H161604   1.115   6.079  11.832 -1.0358 -0.2848  0.8209
13371TIP3    H261605   1.199   6.101  11.707 -0.3149  0.3717  1.4091
13372TIP3   OH261606   2.379   1.231  16.876 -0.0838  0.4274 -0.4721
13372TIP3    H161607   2.397   1.213  16.968 -2.0389  0.8972  0.0562
13372TIP3    H261608   2.313   1.166  16.851  0.1807  0.5183 -1.4498
13373TIP3   OH261609   5.345   5.832  12.225  0.1661 -0.1658 -0.7474
13373TIP3    H161610   5.316   5.747  12.194 -0.8718  0.0710 -0.4426
13373TIP3    H261611   5.320   5.894  12.156 -3.2466  0.5448  0.9356
13374TIP3   OH261612   0.497   6.436  16.261  0.2445  0.0392  0.5693
13374TIP3    H161613   0.553   6.396  16.328  0.2878  2.5507  2.1995
13374TIP3    H261614   0.418   6.382  16.260  1.1232 -1.3003  1.0938
13375TIP3   OH261615   2.938   3.881  14.053  0.3958 -0.1469  0.4239
13375TIP3    H161616   3.016   3.931  14.031 -0.5725  2.2230  1.9284
13375TIP3    H261617   2.867   3.926  14.009 -0.6997  0.7902  2.9304
13376TIP3   OH261618   0.894   3.995   3.072  0.7215  0.6564  0.1870
13376TIP3    H161619   0.872   4.079   3.031  0.8782 -0.0288 -1.3745
13376TIP3    H261620   0.886   3.931   3.001 -1.7805 -1.0648  1.8434
13377TIP3   OH261621   4.625   5.606  10.014 -0.3231  0.3325 -0.2386
13377TIP3    H161622   4.663   5.537   9.961  0.5673 -0.9726  1.9539
13377TIP3    H261623   4.698   5.664  10.035  0.1633 -1.0274  2.2419
13378TIP3   OH261624   2.047   1.909   0.394  0.3809 -0.4752 -0.1292
13378TIP3    H161625   1.985   1.836   0.391 -1.0360  0.7150 -1.1418
13378TIP3    H261626   2.131   1.870   0.366  0.4057 -2.3287  2.2122
13379TIP3   OH261627   4.547   5.545  13.859  0.6041  0.5499 -0.1243
13379TIP3    H161628   4.635   5.509  13.849  0.6116  0.2497  0.9779
13379TIP3    H261629   4.489   5.469  13.852  0.3912  0.7807 -1.1251
13380TIP3   OH261630   5.968   1.777   4.278 -0.2714 -0.4462  0.0025
13380TIP3    H161631   5.975   1.868   4.308  0.8806 -0.7709  0.7510
13380TIP3    H261632   5.901   1.738   4.334  0.4954 -0.5294  0.8691
13381TIP3   OH261633   1.503   1.743  16.328 -0.1238 -0.2150 -0.2036
13381TIP3    H161634   1.546   1.826  16.346  1.0136 -1.0819  1.4013
13381TIP3    H261635   1.419   1.767  16.289  0.2116  1.6639  0.1326
13382TIP3   OH261636   6.535   1.092  15.812  0.6480  0.1834 -0.2030
13382TIP3    H161637   6.574   1.009  15.841 -1.8474 -0.9892  0.0723
13382TIP3    H261638   6.500   1.073  15.726 -2.5572 -0.0614  1.0326
13383TIP3   OH261639   3.463   6.149   6.274 -0.1665  0.1892 -0.5061
13383TIP3    H161640   3.470   6.173   6.366 -2.3879 -0.0260 -0.2306
13383TIP3    H261641   3.528   6.204   6.230  2.4111 -1.1701  1.3810
13384TIP3   OH261642   6.768   3.494   0.170  0.1869 -0.3040 -0.2704
13384TIP3    H161643   6.853   3.471   0.206  0.9280  2.3549 -0.0827
13384TIP3    H261644   6.763   3.449   0.086  1.2566 -1.3932  0.2316
13385TIP3   OH261645   5.632   3.054   5.452 -0.6837 -0.5715 -0.0752
13385TIP3    H161646   5.655   3.134   5.405 -1.0131  0.0587  0.7899
13385TIP3    H261647   5.537   3.061   5.465 -0.7433 -1.1980 -0.1600
13386TIP3   OH261648   1.316   4.784  11.002  0.2108 -0.1843 -0.3041
13386TIP3    H161649   1.294   4.691  11.003  0.7480 -0.3605 -2.0677
13386TIP3    H261650   1.351   4.800  10.914  0.7538  1.5428  0.1834
13387TIP3   OH261651   4.349   3.278   1.389 -0.1305 -0.0857 -0.2192
13387TIP3    H161652   4.398   3.265   1.470 -0.8806 -0.2064  0.2218
13387TIP3    H261653   4.286   3.347   1.410 -0.9933 -0.7969 -0.3944
13388TIP3   OH261654   4.906   2.869  11.060  0.2536  0.2345  0.3597
13388TIP3    H161655   4.881   2.886  11.150 -0.6545  0.7137  0.0261
13388TIP3    H261656   4.862   2.937  11.009 -2.1633 -2.0686 -0.8534
13389TIP3   OH261657   2.061   6.380  15.588 -0.3244 -0.3310 -0.0478
13389TIP3    H161658   2.007   6.301  15.593 -0.8632  0.0964  1.0354
13389TIP3    H261659   2.146   6.348  15.557 -0.6024 -1.3029  0.1484
13390TIP3   OH261660   3.518   4.833   2.517  0.4941 -0.8517  0.1655
13390TIP3    H161661   3.483   4.830   2.606 -0.1500  1.3179  0.0580
13390TIP3    H261662   3.471   4.906   2.476  2.0954 -0.6079 -1.3633
13391TIP3   OH261663   4.389   4.554   4.428 -0.2500 -0.1962  0.5562
13391TIP3    H161664   4.323   4.484   4.423  0.7938 -1.1571 -0.5525
13391TIP3    H261665   4.468   4.514   4.393  1.0042  0.8612  2.0486
13392TIP3   OH261666   5.766   6.562  14.620 -0.2821 -0.0072 -0.2843
13392TIP3    H161667   5.851   6.605  14.623 -1.0875  1.6087  0.5119
13392TIP3    H261668   5.733   6.565  14.710 -2.4064  2.0650 -1.0227
13393TIP3   OH261669   4.523   3.811  11.887  0.3427  0.4547  0.6706
13393TIP3    H161670   4.430   3.812  11.910  0.4141  0.6784  0.9542
13393TIP3    H261671   4.533   3.734  11.830 -0.4614  1.7551 -1.3072
13394TIP3   OH261672   5.267   3.962   0.419  0.7931 -0.7819 -0.2419
13394TIP3    H161673   5.280   3.952   0.325  1.2243  0.6467 -0.3530
13394TIP3    H261674   5.202   3.895   0.441 -2.0425  1.0528 -2.2153
13395TIP3   OH261675   2.116   1.567   4.793 -0.1096  0.9028 -0.0396
13395TIP3    H161676   2.202   1.561   4.752 -0.8433  0.3205 -1.5567
13395TIP3    H261677   2.110   1.488   4.846 -0.3541  0.0642 -1.2730
13396TIP3   OH261678   4.194   5.585  16.977  0.4194  0.6264 -0.4466
13396TIP3    H161679   4.261   5.591  17.045  0.3743  0.5943 -0.3994
13396TIP3    H261680   4.221   5.649  16.911  2.1963 -1.5116 -1.9538
13397TIP3   OH261681   0.496   5.753   3.934  0.2107 -0.1733  0.2320
13397TIP3    H161682   0.454   5.726   3.853  2.1978  0.7669 -1.2081
13397TIP3    H261683   0.476   5.847   3.942 -2.1102 -0.7510  2.2736
13398TIP3   OH261684   1.985   4.917   5.019 -0.1702 -0.2137  0.0135
13398TIP3    H161685   2.003   4.864   4.942 -0.0951  0.4372 -0.4224
13398TIP3    H261686   2.058   4.978   5.024  0.1742 -0.6755  0.9862
13399TIP3   OH261687   4.799   6.053   3.995 -0.2392  0.1826  0.4674
13399TIP3    H161688   4.783   5.970   4.040 -1.2996 -0.0392 -0.3017
13399TIP3    H261689   4.870   6.094   4.045  0.6832 -1.4244  0.5374
13400TIP3   OH261690   0.422   6.354   0.555  0.8446  0.0139  0.2179
13400TIP3    H161691   0.483   6.327   0.486  0.4415  0.6470 -0.4056
13400TIP3    H261692   0.464   6.328   0.637  2.6914  1.7840 -0.0826
13401TIP3   OH261693   0.952   5.677   0.926  0.3891  0.0467  0.1104
13401TIP3    H161694   0.900   5.661   0.847  1.5429  0.0299 -0.6851
13401TIP3    H261695   1.035   5.713   0.892  0.8851  0.0779  1.3226
13402TIP3   OH261696   3.769   3.162  13.524 -0.4376 -0.0559 -0.0306
13402TIP3    H161697   3.822   3.135  13.599  1.1041 -0.4761 -1.2148
13402TIP3    H261698   3.831   3.209  13.467 -1.0145 -1.6113 -2.0394
13403TIP3   OH261699   5.375   6.004  12.616 -0.2153 -0.2009  0.4370
13403TIP3    H161700   5.354   6.012  12.709 -0.0938  1.0473  0.3859
13403TIP3    H261701   5.303   6.049  12.571  0.3848  0.3616  0.0120
13404TIP3   OH261702   1.780   4.302  13.680  0.3320 -0.0791 -0.0744
13404TIP3    H161703   1.874   4.298  13.661  0.1699  0.0736 -0.9417
13404TIP3    H261704   1.749   4.380  13.634 -0.3667 -0.5934 -0.5095
13405TIP3   OH261705   0.237   5.371  15.244 -0.2547  0.2302  0.2321
13405TIP3    H161706   0.291   5.301  15.205 -0.8860 -0.9408  1.3976
13405TIP3    H261707   0.300   5.424  15.294  0.2392  0.5609 -0.7084
13406TIP3   OH261708   1.628   0.268   0.509  0.2252  0.4965 -0.3225
13406TIP3    H161709   1.557   0.307   0.559 -0.7635 -0.4174 -0.9813
13406TIP3    H261710   1.670   0.207   0.570  3.0212  3.7441  1.3819
13407TIP3   OH261711   2.170   6.287  15.052 -0.3144  0.3616 -0.5957
13407TIP3    H161712   2.231   6.331  14.992 -0.3520  0.1161 -0.8135
13407TIP3    H261713   2.118   6.358  15.089  1.3765  0.8415  1.0729
13408TIP3   OH261714   2.474   4.177  15.226 -0.3547 -0.0861  0.2406
13408TIP3    H161715   2.462   4.089  15.189  0.3378 -0.8429  1.7362
13408TIP3    H261716   2.559   4.205  15.192 -0.4400 -0.1198 -0.0045
13409TIP3   OH261717   4.752   2.262   2.015  0.0067 -0.5374  0.1971
13409TIP3    H161718   4.670   2.239   1.972 -0.5434  0.2857  0.7692
13409TIP3    H261719   4.817   2.205   1.976 -1.0455 -2.0462  0.5628
13410TIP3   OH261720   0.208   1.448  11.224  0.1950  0.0063  0.0053
13410TIP3    H161721   0.232   1.456  11.132  1.9961 -1.1550  0.3327
13410TIP3    H261722   0.238   1.361  11.249 -2.0385 -0.4901  1.2106
13411TIP3   OH261723   1.717   0.867   5.911  0.0903  0.0514  0.5074
13411TIP3    H161724   1.728   0.841   5.819  1.4914  0.8448  0.4055
13411TIP3    H261725   1.742   0.790   5.961 -0.3606 -0.2838  0.2149
13412TIP3   OH261726   5.802   4.274  15.776 -0.2017  0.5626 -0.5115
13412TIP3    H161727   5.868   4.325  15.823  0.9694 -1.5194  0.2291
13412TIP3    H261728   5.786   4.324  15.695  2.2812  1.1498 -0.7160
13413TIP3   OH261729   1.306   6.789   5.573 -0.3772 -0.7514  0.6161
13413TIP3    H161730   1.376   6.739   5.615  0.0062 -0.9843 -0.2778
13413TIP3    H261731   1.286   6.858   5.635 -0.0155 -1.2497  1.3052
13414TIP3   OH261732   6.393   3.702  13.726 -0.5709  0.2998  0.2660
13414TIP3    H161733   6.299   3.696  13.741 -0.5806 -0.3807 -0.0536
13414TIP3    H261734   6.402   3.763  13.652 -0.7881 -0.0266 -0.0285
13415TIP3   OH261735   2.841   4.048  11.633  0.3949  0.3085  0.5574
13415TIP3    H161736   2.878   4.017  11.550  0.2928  1.1606  0.1813
13415TIP3    H261737   2.901   4.015  11.700  0.2242 -0.7897  0.1930
13416TIP3   OH261738   2.976   0.321  10.863  0.5009 -0.6918  0.3756
13416TIP3    H161739   2.908   0.254  10.866 -0.2615  0.0941  1.1660
13416TIP3    H261740   2.963   0.365  10.779  1.0756 -1.5846 -0.1953
13417TIP3   OH261741   5.068   0.423  14.466 -1.0474 -0.6121 -0.1912
13417TIP3    H161742   5.059   0.513  14.497 -0.7176 -1.2532  1.9860
13417TIP3    H261743   4.989   0.379  14.498 -1.7080 -0.9087 -2.1276
13418TIP3   OH261744   3.239   0.524  10.738 -0.3194  0.5672  0.0784
13418TIP3    H161745   3.235   0.570  10.822 -0.8355  1.0637 -0.2152
13418TIP3    H261746   3.294   0.579  10.683  1.9798 -0.8964  0.7698
13419TIP3   OH261747   0.428   6.183   4.767 -0.7733 -0.6326 -0.3089
13419TIP3    H161748   0.479   6.160   4.689 -1.2530  0.0887 -0.8463
13419TIP3    H261749   0.338   6.191   4.736 -1.2591 -1.9810  0.6526
13420TIP3   OH261750   3.910   3.463   0.490  0.4799 -0.0059  0.1838
13420TIP3    H161751   3.953   3.378   0.499 -0.2151 -0.2311  1.5855
13420TIP3    H261752   3.833   3.458   0.547 -0.8971  0.7330 -1.5258
13421TIP3   OH261753   5.780   6.745  13.478  0.0274  0.2718  0.0933
13421TIP3    H161754   5.813   6.835  13.477 -2.1617  1.1754  1.6240
13421TIP3    H261755   5.777   6.720  13.386  2.1798  1.1553 -0.2654
13422TIP3   OH261756   1.862   1.353   4.382 -0.5780  0.3256  0.2441
13422TIP3    H161757   1.891   1.432   4.429 -2.5257  1.6255 -0.6182
13422TIP3    H261758   1.899   1.363   4.294  0.6983 -0.6829  0.6413
13423TIP3   OH261759   2.111   0.072  14.190  0.0002  0.6101  0.1063
13423TIP3    H161760   2.186   0.042  14.241 -0.7805  0.1520  1.0243
13423TIP3    H261761   2.145   0.087  14.102  0.6169 -2.3204 -0.2629
13424TIP3   OH261762   4.113   1.468   2.039 -0.0297  0.1715  0.2891
13424TIP3    H161763   4.193   1.472   2.092 -1.3456 -0.6869  2.4959
13424TIP3    H261764   4.107   1.377   2.011 -1.1567 -0.2502  1.7721
13425TIP3   OH261765   6.811   3.858   5.273  0.1501 -0.5368  0.5358
13425TIP3    H161766   6.746   3.886   5.337 -0.5342  0.6357 -0.6175
13425TIP3    H261767   6.857   3.786   5.315 -0.2071  0.2542  2.3633
13426TIP3   OH261768   0.085   5.736  15.630 -0.2604 -0.0192  0.2441
13426TIP3    H161769   0.058   5.828  15.639 -3.2182 -0.6359 -1.1537
13426TIP3    H261770   0.012   5.686  15.666  0.4992 -1.8749 -0.6879
13427TIP3   OH261771   6.472   4.895   0.474 -0.2442  0.4738 -0.9014
13427TIP3    H161772   6.512   4.942   0.400 -1.4477  1.8161 -0.7516
13427TIP3    H261773   6.524   4.815   0.483  3.5003  2.8039  0.3578
13428TIP3   OH261774   4.290   5.855  16.006 -0.1664  0.1096  0.5076
13428TIP3    H161775   4.359   5.792  16.021 -0.4749 -0.0947  1.1041
13428TIP3    H261776   4.209   5.803  16.005 -0.4641  0.5414  1.4495
13429TIP3   OH261777   4.113   6.193  13.920  0.2886  0.4481  0.2403
13429TIP3    H161778   4.125   6.122  13.857 -0.2088  1.3240 -0.8741
13429TIP3    H261779   4.176   6.260  13.892 -0.6665  1.2703  0.0098
13430TIP3   OH261780   3.327   3.957   3.902 -0.0107 -0.1499 -0.3345
13430TIP3    H161781   3.327   4.025   3.970  0.2889 -1.1634  0.7117
13430TIP3    H261782   3.240   3.918   3.908 -0.6474  0.9412 -1.8034
13431TIP3   OH261783   3.521   6.168  14.386  0.1045 -0.5133 -0.0589
13431TIP3    H161784   3.557   6.179  14.298 -0.0051 -0.3263 -0.0806
13431TIP3    H261785   3.594   6.190  14.444 -0.5520  1.9994 -0.0863
13432TIP3   OH261786   1.230   0.778   3.206 -0.6580  0.0972 -0.4935
13432TIP3    H161787   1.278   0.836   3.264 -0.2979 -1.4948  0.8683
13432TIP3    H261788   1.141   0.776   3.242 -1.4706  1.9812 -2.2194
13433TIP3   OH261789   4.150   5.687   3.273  0.7131 -0.1972  0.5613
13433TIP3    H161790   4.102   5.705   3.354 -1.1750  5.6900 -1.3619
13433TIP3    H261791   4.237   5.725   3.288  0.4317  0.7061 -0.0333
13434TIP3   OH261792   3.662   0.352  13.954 -0.1163 -0.1373 -0.4808
13434TIP3    H161793   3.751   0.380  13.975 -0.1390  1.0128 -1.7515
13434TIP3    H261794   3.612   0.366  14.034  0.7034 -0.1273  0.0366
13435TIP3   OH261795   1.570   4.794   1.888  0.4088  0.1758  0.0444
13435TIP3    H161796   1.499   4.841   1.845  1.8615  0.6867 -1.9450
13435TIP3    H261797   1.537   4.776   1.976 -1.3524  2.2079 -0.1230
13436TIP3   OH261798   1.283   4.466   4.305 -0.4548 -0.6806 -0.1998
13436TIP3    H161799   1.364   4.483   4.352 -1.5308  2.6368  0.7281
13436TIP3    H261800   1.309   4.457   4.214  1.0577 -1.2731  0.2629
13437TIP3   OH261801   3.320   1.516  13.691 -0.2138 -0.1761 -0.0435
13437TIP3    H161802   3.304   1.428  13.723 -1.1437 -0.2134 -0.5566
13437TIP3    H261803   3.250   1.531  13.627  0.8268  0.3680 -1.0927
13438TIP3   OH261804   1.897   2.021   0.714 -0.5846  0.2673 -0.1567
13438TIP3    H161805   1.830   2.025   0.646 -1.7924  0.7107  0.9953
13438TIP3    H261806   1.858   1.965   0.782  0.3452  0.2830  0.4063
13439TIP3   OH261807   0.799   0.770   2.984 -0.2751  0.0532 -0.2918
13439TIP3    H161808   0.805   0.830   2.910  1.2410  1.2532  0.7408
13439TIP3    H261809   0.846   0.815   3.055 -1.4871 -1.1442  1.3369
13440TIP3   OH261810   0.013   1.030   1.756  0.1729 -0.1999 -0.2587
13440TIP3    H161811   0.058   1.055   1.675 -0.1055  0.1505 -0.3075
13440TIP3    H261812  -0.027   0.946   1.737 -0.5002  0.2188 -0.7264
13441TIP3   OH261813   3.776   2.161  14.016  0.5269  0.5767 -0.1807
13441TIP3    H161814   3.845   2.209  14.061 -1.0358  1.7360  1.1029
13441TIP3    H261815   3.768   2.204  13.931  3.6910 -1.8099 -1.9060
13442TIP3   OH261816   0.501   4.287   1.666 -0.0176  0.7356 -0.8366
13442TIP3    H161817   0.596   4.291   1.669  0.0049 -0.3301  1.1014
13442TIP3    H261818   0.482   4.238   1.586  1.0032  1.5263 -1.5970
13443TIP3   OH261819   0.354   1.966  13.977  0.1182 -0.2338  0.3471
13443TIP3    H161820   0.386   2.039  13.924 -1.3107  1.0052  1.1104
13443TIP3    H261821   0.384   1.888  13.931 -0.4926  0.7886 -1.9395
13444TIP3   OH261822   1.944   4.347   2.756  0.5474 -0.0431  0.0405
13444TIP3    H161823   1.909   4.264   2.726  0.3312  0.9663 -2.8509
13444TIP3    H261824   1.938   4.343   2.851 -0.2147 -2.9584 -0.0360
13445TIP3   OH261825   2.138   1.114  15.746  0.4894 -0.6715 -0.3469
13445TIP3    H161826   2.063   1.054  15.747  0.3284 -0.5346  1.9300
13445TIP3    H261827   2.173   1.110  15.836  2.2631  0.4463 -0.9287
13446TIP3   OH261828   3.233   1.277   3.418 -0.2317  0.3731 -0.5354
13446TIP3    H161829   3.319   1.255   3.384 -0.1239  0.2395 -0.1837
13446TIP3    H261830   3.234   1.246   3.509  0.1537  2.4169  0.2169
13447TIP3   OH261831   3.184   4.256   1.262  0.1407 -0.9124  0.0543
13447TIP3    H161832   3.101   4.303   1.264  0.5566 -0.1055 -0.7724
13447TIP3    H261833   3.209   4.256   1.170  0.5579 -2.0554  0.1567
13448TIP3   OH261834   1.942   3.929   6.385 -0.2171  0.2489 -0.2236
13448TIP3    H161835   2.001   3.855   6.382  1.4199  1.4801  0.3136
13448TIP3    H261836   1.872   3.902   6.445  0.0701 -1.0225 -0.4361
13449TIP3   OH261837   0.294   4.339  16.043  0.7527  0.0469 -0.0678
13449TIP3    H161838   0.383   4.307  16.056  0.4051 -1.7878 -1.7355
13449TIP3    H261839   0.238   4.273  16.084  0.1282  0.7815  0.2858
13450TIP3   OH261840   4.511   0.473  16.543 -0.4185 -0.3622 -0.1935
13450TIP3    H161841   4.494   0.407  16.610  0.9381 -1.6933 -1.1063
13450TIP3    H261842   4.569   0.536  16.585 -0.9124 -0.2665  0.3715
13451TIP3   OH261843   3.664   4.604  15.052 -0.3659  0.3436  0.0822
13451TIP3    H161844   3.710   4.641  14.977  0.4540 -0.4840  0.1703
13451TIP3    H261845   3.645   4.680  15.108  1.7022  0.6188  0.4897
13452TIP3   OH261846   1.423   2.448   4.231 -0.1630  0.1572  0.0658
13452TIP3    H161847   1.465   2.375   4.277 -1.8160 -2.4025 -2.2410
13452TIP3    H261848   1.494   2.511   4.218  1.5712 -1.4053  1.3134
13453TIP3   OH261849   5.166   2.897   3.646 -0.2794 -1.2459  0.5403
13453TIP3    H161850   5.257   2.925   3.654 -0.9275  1.4724 -0.2501
13453TIP3    H261851   5.129   2.910   3.733 -0.6769  1.1620  0.0994
13454TIP3   OH261852   0.203   3.579   2.028  0.7837 -0.2195 -0.1321
13454TIP3    H161853   0.155   3.625   1.959 -0.7282  1.6536  1.9927
13454TIP3    H261854   0.295   3.598   2.011  0.4617  0.1148 -1.6422
13455TIP3   OH261855   4.787   1.171  14.482 -0.4248 -0.2702 -0.0930
13455TIP3    H161856   4.882   1.172  14.491 -0.2371 -0.7859 -1.6938
13455TIP3    H261857   4.771   1.213  14.398 -1.6773  0.5215  0.5146
13456TIP3   OH261858   2.790   3.228   2.628  0.4246  0.0345 -0.0451
13456TIP3    H161859   2.856   3.160   2.636  0.4084  0.0402  0.1371
13456TIP3    H261860   2.707   3.180   2.626  0.3548  0.0925  0.9570
13457TIP3   OH261861   6.442   4.260   5.424  0.0516 -0.4360  0.3082
13457TIP3    H161862   6.418   4.181   5.473 -0.5007 -0.4462  0.0269
13457TIP3    H261863   6.383   4.328   5.457  0.1677 -0.2664  0.1704
13458TIP3   OH261864   2.564   4.638   2.917  0.3599  0.6557  0.1080
13458TIP3    H161865   2.521   4.638   2.832 -0.9811  1.0784  0.7609
13458TIP3    H261866   2.656   4.657   2.897 -0.0239  1.2837 -1.1958
13459TIP3   OH261867   0.109   1.109  11.883  0.8556 -0.3298 -0.4019
13459TIP3    H161868   0.163   1.105  11.962 -0.5150  1.2068  0.6694
13459TIP3    H261869   0.045   1.178  11.901  0.7545  0.3544 -3.0201
13460TIP3   OH261870   0.979   6.230  12.651  0.4178  0.3169  0.4949
13460TIP3    H161871   0.906   6.169  12.659  0.1783  0.7810  2.2250
13460TIP3    H261872   1.044   6.184  12.598 -0.3117 -0.8725  0.6101
13461TIP3   OH261873   2.758   4.043  14.977 -0.2689 -0.1418  0.1729
13461TIP3    H161874   2.693   4.054  14.907  3.2695  1.0022 -3.3122
13461TIP3    H261875   2.802   4.128  14.981  1.9088 -1.2724  1.3534
13462TIP3   OH261876   2.259   3.234  16.324  0.5161  0.4457  0.3501
13462TIP3    H161877   2.295   3.323  16.323 -0.1808  0.7345  0.8615
13462TIP3    H261878   2.309   3.189  16.392  1.0156  0.3744 -0.0534
13463TIP3   OH261879   3.557   5.982  13.696 -0.3151 -0.2400 -0.6700
13463TIP3    H161880   3.549   6.060  13.641 -1.5411 -0.2295 -0.5019
13463TIP3    H261881   3.468   5.963  13.724  0.2409 -0.4102  1.1093
13464TIP3   OH261882   1.974   5.291  16.392 -0.3138 -0.0325 -0.1118
13464TIP3    H161883   1.939   5.312  16.306 -1.0393  0.2554  0.2480
13464TIP3    H261884   2.066   5.269  16.376 -0.3918  0.2192 -0.9257
13465TIP3   OH261885   0.661   0.017  13.702  0.4364  0.4130  0.0936
13465TIP3    H161886   0.596  -0.009  13.636 -0.0660 -0.3305  0.8614
13465TIP3    H261887   0.743   0.025  13.653 -0.2771  1.6805 -0.9516
13466TIP3   OH261888   1.154   1.635   1.071  0.1079  0.0496 -0.4245
13466TIP3    H161889   1.066   1.621   1.105 -1.4681  2.6294 -2.9763
13466TIP3    H261890   1.164   1.569   1.003 -0.0287 -0.0082 -0.3883
13467TIP3   OH261891   6.304   5.210   2.663 -0.0138  0.2532 -0.5115
13467TIP3    H161892   6.272   5.139   2.719  0.1550  1.0782  0.6951
13467TIP3    H261893   6.361   5.261   2.721  0.6283  0.8281 -1.6200
13468TIP3   OH261894   4.773   2.905  13.344 -0.5857 -0.5318 -0.0819
13468TIP3    H161895   4.734   2.978  13.296 -2.0567 -1.4468 -0.3449
13468TIP3    H261896   4.777   2.935  13.435  2.0057  1.1316 -0.6114
13469TIP3   OH261897   5.043   5.888  14.319  0.0025  0.3260 -0.1077
13469TIP3    H161898   4.971   5.876  14.258  1.6558  0.4449 -2.2020
13469TIP3    H261899   5.035   5.814  14.380 -0.6999 -0.8278 -1.5414
13470TIP3   OH261900   5.990   5.600   1.839  0.1852 -0.0790 -0.1824
13470TIP3    H161901   6.081   5.629   1.835  1.0290 -2.5265  0.0417
13470TIP3    H261902   5.995   5.506   1.856 -2.4060 -0.0526  1.2308
13471TIP3   OH261903   2.606   3.927   1.297 -0.1585  0.0726  0.0513
13471TIP3    H161904   2.633   3.963   1.382 -1.3275 -1.8537  1.3039
13471TIP3    H261905   2.545   3.992   1.262 -0.0447  0.6549  0.9084
13472TIP3   OH261906   2.452   1.341   3.367  0.1196 -0.1234 -0.0466
13472TIP3    H161907   2.467   1.318   3.276  0.7602 -1.3678  0.3466
13472TIP3    H261908   2.358   1.329   3.380 -0.2994  1.8765 -0.9974
13473TIP3   OH261909   2.916   4.289   3.741  0.6758 -0.1471 -0.0698
13473TIP3    H161910   2.932   4.206   3.696  1.5972 -0.6452  1.0977
13473TIP3    H261911   2.823   4.288   3.760  0.8787 -1.5763  1.0889
13474TIP3   OH261912   3.333   1.374   5.234 -0.0065 -0.2796 -0.1174
13474TIP3    H161913   3.277   1.353   5.159 -1.7991  1.6598  0.5629
13474TIP3    H261914   3.331   1.295   5.288 -1.9906 -0.3571 -0.2245
13475TIP3   OH261915   1.299   6.130  11.016 -0.1540  0.2090  0.0612
13475TIP3    H161916   1.374   6.078  11.046  1.0021  2.2759  0.9674
13475TIP3    H261917   1.292   6.110  10.923  0.6463 -1.0468  0.2416
13476TIP3   OH261918   3.706   6.422  11.481 -0.3924 -0.4723  0.2119
13476TIP3    H161919   3.763   6.491  11.514 -0.5243 -0.5045  0.5108
13476TIP3    H261920   3.720   6.349  11.541 -1.5402 -0.1215  0.9486
13477TIP3   OH261921   2.439   0.699   1.668 -0.7347  0.0625 -0.1980
13477TIP3    H161922   2.498   0.704   1.593 -0.5664 -0.3893 -0.0969
13477TIP3    H261923   2.458   0.615   1.708  0.4656  1.0610  1.4300
13478TIP3   OH261924   5.317   3.126  14.309 -0.6070  0.3565  0.2175
13478TIP3    H161925   5.230   3.122  14.348 -0.3212 -1.1649  0.7389
13478TIP3    H261926   5.351   3.037  14.315  0.4399  0.6167 -1.2518
13479TIP3   OH261927   0.123   0.285   0.969 -0.4386  0.1986  0.2920
13479TIP3    H161928   0.105   0.193   0.987 -0.1183  0.2902  1.1394
13479TIP3    H261929   0.211   0.286   0.930 -1.5189 -0.0960 -2.3550
13480TIP3   OH261930   4.406   5.067   5.229 -0.1025 -0.0955 -0.1886
13480TIP3    H161931   4.374   5.128   5.296  1.1607  1.3954 -0.8823
13480TIP3    H261932   4.437   4.991   5.278  1.2601  1.1697  0.9981
13481TIP3   OH261933   1.523   0.121  12.073 -0.4040 -0.3875  0.5126
13481TIP3    H161934   1.477   0.120  12.156  0.4657  0.0136  1.0132
13481TIP3    H261935   1.613   0.095  12.095 -0.3440 -1.0515 -0.4171
13482TIP3   OH261936   0.234   4.488   4.326 -0.2567  0.3622 -1.0439
13482TIP3    H161937   0.266   4.444   4.404  0.4143 -0.3630 -1.7038
13482TIP3    H261938   0.141   4.467   4.322 -0.4616  1.0432 -0.0357
13483TIP3   OH261939   1.077   6.495  15.075  0.1703  0.1819 -0.5141
13483TIP3    H161940   1.108   6.542  14.997  0.4790 -0.2877 -0.6727
13483TIP3    H261941   1.041   6.564  15.131  2.4326  0.8993  0.1474
13484TIP3   OH261942   0.985   3.972   6.294  0.1139 -0.5190  0.4835
13484TIP3    H161943   0.913   3.966   6.231  0.3841 -1.8950  0.2720
13484TIP3    H261944   1.022   3.884   6.296  0.3534 -0.4102  2.2947
13485TIP3   OH261945   4.605   5.200   2.322 -0.1122  0.0167 -0.5012
13485TIP3    H161946   4.671   5.248   2.272 -0.9965  1.9477  0.1165
13485TIP3    H261947   4.524   5.212   2.274 -1.2189  2.8165  1.7667
13486TIP3   OH261948   0.732   0.952   1.216  0.4660 -0.2064 -0.3199
13486TIP3    H161949   0.652   0.900   1.213  1.2765 -1.4894 -0.4023
13486TIP3    H261950   0.719   1.020   1.150 -0.4438 -0.5592 -0.5120
13487TIP3   OH261951   4.567   5.413   0.435 -0.2495 -0.2175 -0.2683
13487TIP3    H161952   4.652   5.420   0.391  0.0776  0.7486  0.4953
13487TIP3    H261953   4.586   5.361   0.513  0.0670  1.5560  0.8891
13488TIP3   OH261954   2.010   5.156   2.522  0.2204 -0.1542  0.6922
13488TIP3    H161955   1.962   5.150   2.605  1.3550  0.5382  1.4190
13488TIP3    H261956   1.947   5.126   2.456 -0.6767 -0.8013  1.8041
13489TIP3   OH261957   3.165   6.060   3.384 -0.3167  0.1314  0.2683
13489TIP3    H161958   3.092   6.104   3.341 -0.9222 -0.4918  0.6382
13489TIP3    H261959   3.221   6.029   3.313 -0.5666  0.3563 -0.0236
13490TIP3   OH261960   4.300   4.822  16.604  0.2574  0.3767  0.4581
13490TIP3    H161961   4.350   4.870  16.670  0.9355  0.0567  0.1827
13490TIP3    H261962   4.338   4.734  16.604  1.9692  1.0055 -2.0777
13491TIP3   OH261963   5.225   3.570  11.575 -0.7112 -0.2495  0.3750
13491TIP3    H161964   5.273   3.638  11.622 -0.9901  1.4003 -1.5898
13491TIP3    H261965   5.134   3.584  11.600 -0.5712 -1.3140  1.5987
13492TIP3   OH261966   1.738   5.265  13.922  0.3983  0.6085 -0.4271
13492TIP3    H161967   1.700   5.350  13.945 -1.7996 -0.3027 -0.4206
13492TIP3    H261968   1.751   5.221  14.006 -2.5630 -0.6390 -0.4781
13493TIP3   OH261969   3.493   3.358  15.164  0.2212  0.1194  0.0937
13493TIP3    H161970   3.424   3.293  15.176  2.1415 -1.6457  2.5471
13493TIP3    H261971   3.525   3.343  15.075  0.5879 -2.3702  0.5697
13494TIP3   OH261972   3.069   1.876   2.331 -0.1928 -0.0933  0.6915
13494TIP3    H161973   3.032   1.964   2.332  1.0632  0.5275 -1.0205
13494TIP3    H261974   3.160   1.889   2.303  0.3834 -1.8320  1.6070
13495TIP3   OH261975   2.075   5.628   1.565 -0.3531  0.2004  0.1427
13495TIP3    H161976   2.109   5.710   1.600 -1.1842  0.5670  0.1233
13495TIP3    H261977   2.013   5.598   1.631  0.4492 -0.7763  0.4675
13496TIP3   OH261978   2.736   2.457  16.594  0.2987 -0.0145  0.1573
13496TIP3    H161979   2.814   2.427  16.641  1.1645  0.5023 -0.9137
13496TIP3    H261980   2.669   2.465  16.662  0.7292 -1.9151  0.8717
13497TIP3   OH261981   3.966   3.290   4.974 -0.4430  0.2933  0.3272
13497TIP3    H161982   3.888   3.343   4.987  0.1486  1.2568  0.0278
13497TIP3    H261983   4.015   3.298   5.056 -1.8619 -2.4489  1.5689
13498TIP3   OH261984   6.724   2.338  14.657  0.0720  0.5232 -0.2065
13498TIP3    H161985   6.656   2.324  14.592 -0.4690 -0.3690  0.5119
13498TIP3    H261986   6.677   2.370  14.734  0.1848 -1.5705  0.8165
13499TIP3   OH261987   0.275   4.184   1.478 -0.4689 -0.5614 -0.1377
13499TIP3    H161988   0.268   4.099   1.435 -0.2244 -0.2270 -0.8450
13499TIP3    H261989   0.346   4.229   1.432 -1.3595  0.4755 -0.5444
13500TIP3   OH261990   3.741   6.349  13.402 -0.3512 -0.1793 -0.2577
13500TIP3    H161991   3.654   6.322  13.372 -0.3602  0.3533 -0.7349
13500TIP3    H261992   3.774   6.404  13.331  0.0289  0.3177  0.2965
13501TIP3   OH261993   1.199   4.629   1.588 -0.1847  0.5229  0.0423
13501TIP3    H161994   1.278   4.667   1.548  1.3841 -0.7518  1.7570
13501TIP3    H261995   1.232   4.557   1.642 -2.7338 -1.3642 -0.7350
13502TIP3   OH261996   0.958   5.890   3.010  0.2031 -0.4963  0.4139
13502TIP3    H161997   0.982   5.961   3.069 -1.5536 -0.7252  1.4764
13502TIP3    H261998   1.008   5.815   3.042 -0.5942 -0.5735  1.5599
13503TIP3   OH261999   1.021   5.643   0.285  0.5229  0.2435 -0.0277
13503TIP3    H162000   0.957   5.578   0.315  1.2345  0.3864  1.9659
13503TIP3    H262001   0.967   5.715   0.252 -0.3219 -0.3127  0.0867
13504TIP3   OH262002   4.823   2.436  16.894 -0.2114  0.2425 -0.3161
13504TIP3    H162003   4.825   2.385  16.975  1.7888  0.4304 -0.1835
13504TIP3    H262004   4.771   2.383  16.834 -0.8854 -0.3799  0.7782
13505TIP3   OH262005   4.998   3.471   4.006  0.0097  0.2439  0.3698
13505TIP3    H162006   4.926   3.499   4.062  0.7314  2.6225  0.2483
13505TIP3    H262007   5.045   3.406   4.057 -1.0797  0.1271  1.2565
13506TIP3   OH262008   1.322   5.288  10.935 -0.2664  0.0558  0.2102
13506TIP3    H162009   1.367   5.218  10.982  0.7240  1.1581  0.9814
13506TIP3    H262010   1.375   5.303  10.857 -0.6831 -0.2884 -0.1447
13507TIP3   OH262011   6.520   4.561  11.539 -0.0638 -0.3981 -0.3902
13507TIP3    H162012   6.494   4.473  11.513 -3.2169  0.8434 -1.9358
13507TIP3    H262013   6.570   4.595  11.465 -1.1314 -0.0409 -0.9758
13508TIP3   OH262014   3.131   6.749   1.310  0.1853 -0.0051 -0.1995
13508TIP3    H162015   3.087   6.816   1.362  0.1739  0.6319 -1.0100
13508TIP3    H262016   3.068   6.727   1.241  0.0341 -1.1464  0.2874
13509TIP3   OH262017   2.972   5.848   1.713 -0.1342  0.6330  0.4386
13509TIP3    H162018   2.974   5.791   1.790 -0.0539  2.8868  2.1978
13509TIP3    H262019   3.042   5.814   1.657 -0.1457 -1.0208  1.3627
13510TIP3   OH262020   6.569   4.510   4.739 -0.1943  0.4202 -0.8838
13510TIP3    H162021   6.625   4.434   4.727 -1.0016 -0.0712 -1.6421
13510TIP3    H262022   6.559   4.518   4.834  0.5702  0.0888 -0.7701
13511TIP3   OH262023   3.352   1.942   3.572  0.4120 -0.0759 -0.4821
13511TIP3    H162024   3.429   1.938   3.515  0.9268  1.0588  0.0963
13511TIP3    H262025   3.340   1.853   3.603  2.5061 -0.0289  0.6875
13512TIP3   OH262026   6.036   6.740   5.592  0.2417  0.2199 -0.3391
13512TIP3    H162027   6.128   6.726   5.614 -0.0737 -2.4039 -0.4101
13512TIP3    H262028   5.994   6.657   5.611 -1.5123  0.2349 -3.5315
13513TIP3   OH262029   5.190   1.333  14.224  0.1233  0.0079 -0.1564
13513TIP3    H162030   5.195   1.420  14.264 -2.2051  0.1149  0.0370
13513TIP3    H262031   5.208   1.347  14.132  0.2106  0.6352 -0.0446
13514TIP3   OH262032   4.141   2.452   4.959  0.2400 -0.4778  0.5164
13514TIP3    H162033   4.098   2.393   4.897 -0.8654 -0.9363  1.6693
13514TIP3    H262034   4.108   2.539   4.936  0.4983 -0.5290 -0.0665
13515TIP3   OH262035   5.896   5.382   2.696 -0.4372  0.1547  0.1367
13515TIP3    H162036   5.905   5.347   2.607 -1.0400 -0.2225  0.2160
13515TIP3    H262037   5.898   5.477   2.685 -3.1562  0.2185 -0.6301
13516TIP3   OH262038   6.314   1.359  12.850 -0.0898 -0.0379  0.7685
13516TIP3    H162039   6.396   1.350  12.800  1.7593 -2.2844  3.8451
13516TIP3    H262040   6.314   1.450  12.879  0.9992  0.1699  0.1704
13517TIP3   OH262041   1.928   6.542  16.583 -0.5586 -0.0293  0.0211
13517TIP3    H162042   1.928   6.475  16.651  1.2360  0.9740  1.0733
13517TIP3    H262043   1.928   6.492  16.501 -1.0983 -1.2681  0.7335
13518TIP3   OH262044   3.306   2.237   1.896 -0.3973 -0.2223  0.6101
13518TIP3    H162045   3.247   2.163   1.878  0.2610 -0.4273 -0.8120
13518TIP3    H262046   3.340   2.218   1.984  0.2330 -1.9689  0.0458
13519TIP3   OH262047   2.704   5.747  12.446  0.0166  0.1611 -0.8683
13519TIP3    H162048   2.702   5.757  12.541 -3.4577 -1.3101 -0.6465
13519TIP3    H262049   2.718   5.836  12.413  1.1818  0.7160  0.9540
13520TIP3   OH262050   5.724   5.970  15.884  0.1171  0.4420 -0.2563
13520TIP3    H162051   5.728   5.888  15.933  1.5780  0.4664 -0.3039
13520TIP3    H262052   5.795   5.963  15.820  1.2579  2.3692  0.7254
13521TIP3   OH262053   6.388   5.230   6.484 -0.3497 -0.7011  0.2965
13521TIP3    H162054   6.369   5.289   6.557  0.7830 -1.5638  1.3233
13521TIP3    H262055   6.332   5.261   6.412  0.4739  1.8325  0.6721
13522TIP3   OH262056   6.215   6.198   5.381 -0.3086 -0.6769 -0.0042
13522TIP3    H162057   6.140   6.203   5.440  0.8762 -0.7748  1.5863
13522TIP3    H262058   6.266   6.124   5.414  2.5738  1.8168  1.5821
13523TIP3   OH262059   2.173   6.737  12.761 -0.5477 -0.4039 -0.3506
13523TIP3    H162060   2.181   6.829  12.739  1.8350 -0.6379 -0.7342
13523TIP3    H262061   2.227   6.726  12.840  0.1522 -1.6368 -0.9638
13524TIP3   OH262062   1.119   4.308  12.685 -0.5780 -0.2140 -0.2024
13524TIP3    H162063   1.104   4.216  12.664 -2.6552  0.7946 -4.0612
13524TIP3    H262064   1.032   4.343  12.704  0.2462  0.9149  1.8551
13525TIP3   OH262065   1.928   6.391  11.381  0.2132  0.0342  0.4976
13525TIP3    H162066   1.852   6.333  11.369  0.9728 -0.4492 -2.9582
13525TIP3    H262067   1.890   6.479  11.384 -0.5674 -0.0791 -2.4607
13526TIP3   OH262068   5.382   4.457  11.641 -0.1432  0.3246  0.0061
13526TIP3    H162069   5.308   4.508  11.607 -1.3913 -0.7345  1.0304
13526TIP3    H262070   5.409   4.504  11.720  0.0353  0.5127 -0.1672
13527TIP3   OH262071   2.268   2.431  16.522  0.2548  0.1182  0.1027
13527TIP3    H162072   2.283   2.520  16.555 -0.6377  0.2254  0.2461
13527TIP3    H262073   2.264   2.376  16.600  0.0809  0.0658  0.0584
13528TIP3   OH262074   1.258   3.968   5.161 -0.4114 -0.1060  0.3114
13528TIP3    H162075   1.335   3.939   5.210 -0.8721 -0.4620  0.8400
13528TIP3    H262076   1.209   3.887   5.143 -0.2797  0.0303 -0.6862
13529TIP3   OH262077   4.726   1.671   5.882 -0.0402  0.4458  0.0011
13529TIP3    H162078   4.674   1.724   5.821 -0.2118 -0.9892 -1.1791
13529TIP3    H262079   4.815   1.677   5.848 -0.0817 -0.0932 -0.2169
13530TIP3   OH262080   2.471   1.824  12.432 -0.7073 -0.4961 -0.0416
13530TIP3    H162081   2.478   1.779  12.517 -0.0558 -1.2555 -0.4878
13530TIP3    H262082   2.378   1.816  12.409 -0.6166 -1.5919 -0.0853
13531TIP3   OH262083   5.069   6.747  11.125  0.1762  0.0903 -0.1738
13531TIP3    H162084   5.032   6.764  11.039 -0.8904 -2.3011 -0.2669
13531TIP3    H262085   5.129   6.674  11.111 -0.9721 -1.2067  1.2630
13532TIP3   OH262086   3.472   0.625   1.056  0.2564  0.1722 -0.3799
13532TIP3    H162087   3.559   0.608   1.089  0.3261  1.0697 -0.0674
13532TIP3    H262088   3.468   0.720   1.046 -1.4120  0.4115  1.7252
13533TIP3   OH262089   4.152   2.500  11.445 -0.2659 -0.0808 -0.0251
13533TIP3    H162090   4.161   2.595  11.436 -0.2353 -0.0825 -0.0072
13533TIP3    H262091   4.224   2.464  11.393  0.4339 -0.0807  0.9318
13534TIP3   OH262092   0.264   5.360  16.669  0.0709 -0.2280  0.0556
13534TIP3    H162093   0.233   5.326  16.753  0.8027  1.4730  1.0750
13534TIP3    H262094   0.186   5.395  16.627 -0.1354 -0.0812  0.5474
13535TIP3   OH262095   6.213   4.630  15.366 -0.3547  0.8350  0.1201
13535TIP3    H162096   6.192   4.706  15.311 -0.5183 -0.8003 -2.2596
13535TIP3    H262097   6.267   4.575  15.310 -1.3859 -1.4441  1.2413
13536TIP3   OH262098   3.264   4.533   1.474  0.0471 -0.2033 -0.3748
13536TIP3    H162099   3.299   4.448   1.446  1.6072  0.5120 -0.7289
13536TIP3    H262100   3.334   4.595   1.453 -0.5235  0.9912  1.0777
13537TIP3   OH262101   2.034   5.590   5.703  0.1091  0.1423 -0.0672
13537TIP3    H162102   1.946   5.581   5.740 -0.0085 -0.6334 -0.5081
13537TIP3    H262103   2.092   5.588   5.779 -0.1176 -1.5870  0.1117
13538TIP3   OH262104   4.881   6.512  10.969  0.2268 -0.0398 -0.2666
13538TIP3    H162105   4.890   6.452  10.895  0.3720 -0.1045 -0.1978
13538TIP3    H262106   4.832   6.586  10.935  0.8940  0.2471 -0.6144
13539TIP3   OH262107   4.542   5.259  14.356  0.6998  0.5905 -0.5929
13539TIP3    H162108   4.634   5.239  14.337  0.7912  0.5272 -0.0904
13539TIP3    H262109   4.532   5.240  14.449  0.0194  0.0027 -0.7759
13540TIP3   OH262110   6.276   5.172   0.295  0.5597  0.0927  0.2395
13540TIP3    H162111   6.253   5.164   0.387 -0.6572 -0.6833 -0.1028
13540TIP3    H262112   6.366   5.203   0.295  0.9304 -0.8860  1.6967
13541TIP3   OH262113   5.044   1.467  14.847 -0.0101 -0.3734 -0.2982
13541TIP3    H162114   4.969   1.416  14.817 -0.7926  1.7243 -2.2123
13541TIP3    H262115   5.068   1.521  14.771  0.2456  2.6561  1.7411
13542TIP3   OH262116   0.427   4.583   5.394  0.7154 -0.1038 -0.0303
13542TIP3    H162117   0.362   4.569   5.463 -0.7589  1.0454 -1.1282
13542TIP3    H262118   0.478   4.502   5.392 -0.7513 -1.0834  0.7856
13543TIP3   OH262119   2.633   6.333   4.637 -0.6942  0.5164 -0.3509
13543TIP3    H162120   2.691   6.344   4.562  1.0633  0.3865  0.9318
13543TIP3    H262121   2.548   6.312   4.598 -0.6838  3.6608 -2.4116
13544TIP3   OH262122   4.450   5.868   2.111  0.2916 -0.1181 -0.1573
13544TIP3    H162123   4.544   5.879   2.128  0.2541  0.3183 -0.2316
13544TIP3    H262124   4.417   5.957   2.101 -0.0828 -0.2827 -0.3964
13545TIP3   OH262125   5.099   2.538  11.796 -0.1036  1.0010 -0.3886
13545TIP3    H162126   5.070   2.459  11.842 -0.8140  0.6167 -1.4636
13545TIP3    H262127   5.177   2.566  11.844 -0.3091  0.1128  0.5008
13546TIP3   OH262128   1.875   5.238  17.178 -0.0235  0.1078  0.5847
13546TIP3    H162129   1.843   5.238  17.268  2.3313  1.6134  1.5169
13546TIP3    H262130   1.812   5.291  17.130 -1.3628 -0.7974  1.2884
13547TIP3   OH262131   3.625   0.366   0.097 -0.4937  0.2028 -0.1031
13547TIP3    H162132   3.557   0.300   0.084 -1.1905  0.5970  1.2820
13547TIP3    H262133   3.698   0.337   0.042 -1.7127 -0.3203 -1.4914
13548TIP3   OH262134   6.304   2.125   4.928  0.4490  0.2478 -0.1707
13548TIP3    H162135   6.212   2.148   4.926  0.4098  0.0770 -0.8007
13548TIP3    H262136   6.350   2.209   4.938  0.2508  0.4241 -0.6926
13549TIP3   OH262137   1.440   2.682   1.001  0.3708 -0.6007 -0.1331
13549TIP3    H162138   1.506   2.619   0.972  2.5326  0.3791  2.3017
13549TIP3    H262139   1.419   2.656   1.091  0.5327  1.4966  0.5664
13550TIP3   OH262140   0.947   1.345   3.270  0.5489  0.3055  0.3437
13550TIP3    H162141   0.936   1.357   3.364  0.4264  0.4964  0.3054
13550TIP3    H262142   0.893   1.413   3.231  1.4766  0.9392  0.1429
13551TIP3   OH262143   1.104   2.817  14.145 -0.1901 -0.4719 -0.5999
13551TIP3    H162144   1.083   2.884  14.210 -1.1440  0.2535 -1.6194
13551TIP3    H262145   1.019   2.776  14.125  0.5301 -2.8569  0.9001
13552TIP3   OH262146   5.360   2.461   1.196  0.3376  0.0339  0.0695
13552TIP3    H162147   5.267   2.473   1.175 -0.2392 -1.0098  1.8379
13552TIP3    H262148   5.373   2.510   1.277  0.9036 -1.1600  0.7222
13553TIP3   OH262149   1.720   4.050   4.105 -0.0719 -0.3426  0.4299
13553TIP3    H162150   1.794   4.073   4.161 -1.1474 -0.7039  2.0832
13553TIP3    H262151   1.729   3.956   4.092  1.3436  0.0218 -1.8628
13554TIP3   OH262152   0.375   5.604   1.441 -0.4481  0.5042 -0.2755
13554TIP3    H162153   0.446   5.562   1.489 -0.8022  0.1829 -0.0264
13554TIP3    H262154   0.323   5.649   1.508 -0.5869  0.5773 -0.4300
13555TIP3   OH262155   2.320   5.545  10.726 -0.0172 -0.1174  0.0675
13555TIP3    H162156   2.252   5.611  10.739  0.9786  0.9616  0.0589
13555TIP3    H262157   2.320   5.528  10.632  0.8357  1.1841 -0.2065
13556TIP3   OH262158   4.248   6.581  13.047  0.2721 -0.0222 -0.3205
13556TIP3    H162159   4.239   6.659  13.102 -0.9493 -0.4414  0.1185
13556TIP3    H262160   4.321   6.601  12.988 -0.8394  1.9933 -1.1106
13557TIP3   OH262161   3.132   1.936  10.393  0.4019 -0.7412  0.8789
13557TIP3    H162162   3.181   1.908  10.470 -0.1574 -0.2249  1.4360
13557TIP3    H262163   3.040   1.926  10.418  0.0735  2.9606  1.7030
13558TIP3   OH262164   6.761   2.694   2.638 -0.0653  0.0496 -0.3787
13558TIP3    H162165   6.733   2.785   2.652  0.5707  0.4752 -1.7120
13558TIP3    H262166   6.852   2.692   2.668 -0.7734 -0.8097  1.9694
13559TIP3   OH262167   1.390   4.470  14.035 -0.0945  0.7806 -0.3908
13559TIP3    H162168   1.450   4.524  14.087  0.6470  1.2059 -1.6591
13559TIP3    H262169   1.356   4.530  13.969 -2.2951  0.6664  0.5617
13560TIP3   OH262170   6.742   4.890  12.515  0.1322  0.4770  0.3668
13560TIP3    H162171   6.805   4.846  12.459 -0.2120  0.3782  0.0539
13560TIP3    H262172   6.662   4.894  12.463 -0.8478 -1.5271  1.5887
13561TIP3   OH262173   6.383   5.226  13.987  0.2083 -0.1034 -0.3991
13561TIP3    H162174   6.368   5.319  14.000  1.0488  0.0770 -0.6838
13561TIP3    H262175   6.475   5.213  14.010  0.6853 -0.4679 -2.4000
13562TIP3   OH262176   1.054   1.199  15.521  0.6445  0.8237  0.1486
13562TIP3    H162177   0.978   1.153  15.557  1.9292 -0.4862  1.3154
13562TIP3    H262178   1.037   1.202  15.427  0.1804 -1.5171  0.0880
13563TIP3   OH262179   4.302   1.771  16.208  0.1699  0.2176  0.2189
13563TIP3    H162180   4.380   1.724  16.239  0.5982  2.0041  2.1176
13563TIP3    H262181   4.272   1.721  16.133  2.3181 -1.3450  0.2992
13564TIP3   OH262182   3.125   6.387  16.692 -0.0283 -0.0906  0.0357
13564TIP3    H162183   3.148   6.465  16.641 -1.6887  0.0512 -0.5543
13564TIP3    H262184   3.044   6.356  16.653 -0.8173 -0.5711  1.9523
13565TIP3   OH262185   0.175   5.504  13.307  0.5259 -0.5086  0.5967
13565TIP3    H162186   0.236   5.434  13.286 -0.2490 -1.4805  1.5088
13565TIP3    H262187   0.129   5.474  13.385  0.6029  1.2853  1.3825
13566TIP3   OH262188   1.983   4.921   3.000  0.3017  0.3944 -0.0010
13566TIP3    H162189   1.927   4.997   3.017 -0.5663  0.0076 -0.9919
13566TIP3    H262190   1.944   4.851   3.052 -0.1570  0.1265 -0.6855
13567TIP3   OH262191   6.238   5.710  14.431  0.0103 -0.0510 -0.7393
13567TIP3    H162192   6.253   5.746  14.519  0.6312 -0.7993 -0.5309
13567TIP3    H262193   6.314   5.737  14.380  0.0909 -0.3885 -0.7995
13568TIP3   OH262194   5.195   2.776   4.146 -0.0306  0.3205 -0.0551
13568TIP3    H162195   5.159   2.720   4.215  0.9222  0.7610  0.8315
13568TIP3    H262196   5.236   2.715   4.084 -0.6100 -0.0615 -0.0699
13569TIP3   OH262197   1.686   2.818   5.027 -0.5694  0.3816 -0.3660
13569TIP3    H162198   1.627   2.848   5.097 -0.4819  2.0874 -0.9539
13569TIP3    H262199   1.639   2.841   4.947  0.5457  1.0473 -0.8445
13570TIP3   OH262200   2.440   1.949   1.449  0.8651 -0.0245 -0.1564
13570TIP3    H162201   2.533   1.932   1.462  1.2684  2.1060  0.1126
13570TIP3    H262202   2.408   1.972   1.537  0.6343  1.4929 -0.6071
13571TIP3   OH262203   0.229   1.847  12.031  0.2511 -0.3997  0.0353
13571TIP3    H162204   0.171   1.892  11.969  0.6904 -0.9926 -0.8329
13571TIP3    H262205   0.170   1.809  12.096 -0.3392 -0.8773 -0.7571
13572TIP3   OH262206   4.298   0.252  12.328  0.7829  0.3165 -0.4125
13572TIP3    H162207   4.284   0.324  12.266 -1.8829 -0.6479 -1.0682
13572TIP3    H262208   4.272   0.174  12.280 -0.2101 -0.6180  1.5418
13573TIP3   OH262209   2.052   2.480  14.333 -0.2737 -0.2229  0.1311
13573TIP3    H162210   2.087   2.432  14.408 -1.8015  0.5563  1.3997
13573TIP3    H262211   2.064   2.572  14.357 -0.4906  0.0428 -0.7456
13574TIP3   OH262212   3.228   6.361  10.036 -0.2159  0.2475  0.1760
13574TIP3    H162213   3.227   6.398  10.124 -0.7892  0.3203  0.1455
13574TIP3    H262214   3.195   6.271  10.047  1.0177 -0.2156  0.2273
13575TIP3   OH262215   0.851   2.016   4.740 -0.2054  0.0873  0.4712
13575TIP3    H162216   0.861   1.950   4.671  0.9655 -1.0698  1.6805
13575TIP3    H262217   0.930   2.070   4.733 -0.1116  0.0026  0.8615
13576TIP3   OH262218   4.627   4.624  13.254 -0.0907  0.4593  0.4050
13576TIP3    H162219   4.661   4.618  13.343 -2.6784  0.4162  1.4886
13576TIP3    H262220   4.669   4.702  13.218 -0.6007  1.7577  2.4612
13577TIP3   OH262221   6.166   0.259  14.922  0.0390 -0.4400 -0.1842
13577TIP3    H162222   6.195   0.336  14.971  1.2858 -1.2921  0.4835
13577TIP3    H262223   6.237   0.243  14.859 -1.2994  0.3254 -1.9916
13578TIP3   OH262224   0.264   6.692   3.971  0.3069  0.1429 -0.0600
13578TIP3    H162225   0.269   6.596   3.962  0.8150  0.1391  0.2185
13578TIP3    H262226   0.337   6.714   4.030 -0.9297  0.5062  1.3936
13579TIP3   OH262227   2.496   4.682   6.095 -0.1461  0.1234  0.7402
13579TIP3    H162228   2.401   4.687   6.103 -0.5038  0.2110 -2.4349
13579TIP3    H262229   2.513   4.595   6.060  0.9239  0.2761  0.8489
13580TIP3   OH262230   1.705   1.986   3.282 -0.2299 -0.3529  0.4389
13580TIP3    H162231   1.664   2.056   3.331 -0.0564 -0.5683  0.8913
13580TIP3    H262232   1.636   1.920   3.272  0.2513 -1.1246  2.0014
13581TIP3   OH262233   0.533   1.124  17.114  0.3833  0.5260 -0.6097
13581TIP3    H162234   0.476   1.066  17.063  0.4163  0.6636 -0.8061
13581TIP3    H262235   0.482   1.205  17.124  0.3221  0.4491 -0.3030
13582TIP3   OH262236   3.681   1.825  12.927 -0.1107  0.3665  0.1486
13582TIP3    H162237   3.651   1.737  12.951 -1.8011  0.7609 -0.3437
13582TIP3    H262238   3.683   1.825  12.831  1.7882  0.2981  0.1555
13583TIP3   OH262239   3.449   0.320  10.976  0.0627 -0.5427  0.2498
13583TIP3    H162240   3.375   0.259  10.976  0.8545 -1.5305  0.8453
13583TIP3    H262241   3.411   0.403  10.947 -1.3279 -0.9664  0.7556
13584TIP3   OH262242   5.544   4.433   2.546  0.5287  0.4089  0.2780
13584TIP3    H162243   5.536   4.418   2.640 -0.3771  1.0127  0.3150
13584TIP3    H262244   5.535   4.528   2.536 -1.3598  0.1921 -0.5643
13585TIP3   OH262245   5.988   0.275   3.403  0.7011 -0.2944  0.6263
13585TIP3    H162246   5.976   0.368   3.425 -0.8497 -0.6241  1.2991
13585TIP3    H262247   6.051   0.243   3.468 -1.1661 -0.4225  2.4495
13586TIP3   OH262248   6.683   2.530   4.291 -0.2682 -0.3775 -0.4604
13586TIP3    H162249   6.612   2.592   4.278 -0.9438 -0.3348  2.6999
13586TIP3    H262250   6.641   2.444   4.285 -0.1605 -0.4191 -0.6380
13587TIP3   OH262251   4.451   4.968  15.547  0.5955 -0.0262  0.0262
13587TIP3    H162252   4.489   5.052  15.522 -0.5644  1.1809  2.0123
13587TIP3    H262253   4.489   4.948  15.633  0.2644 -1.1598 -0.0640
13588TIP3   OH262254   3.426   3.638   4.583  0.6643 -0.0170 -0.7025
13588TIP3    H162255   3.450   3.548   4.604  0.3624 -0.1214 -0.7939
13588TIP3    H262256   3.333   3.643   4.604  0.8867  0.5538  0.2323
13589TIP3   OH262257   2.271   6.031  11.987  0.1175 -0.4822 -0.2938
13589TIP3    H162258   2.207   6.004  12.054 -2.1059  3.2212 -0.6736
13589TIP3    H262259   2.218   6.050  11.910  1.8568  1.2212 -1.1398
13590TIP3   OH262260   0.623   5.225  14.581 -0.6168 -0.1316  0.2037
13590TIP3    H162261   0.647   5.310  14.545  1.1973 -0.9667 -0.6900
13590TIP3    H262262   0.529   5.231  14.597 -0.5518  1.9877  0.0778
13591TIP3   OH262263   0.581   6.746   5.598  0.1847  0.4802 -0.0091
13591TIP3    H162264   0.535   6.678   5.549 -0.5453  1.4348 -0.6852
13591TIP3    H262265   0.513   6.788   5.650  0.5034  1.1197 -0.1003
13592TIP3   OH262266   4.484   4.384   3.548  0.8706  0.5557  0.8078
13592TIP3    H162267   4.562   4.406   3.497  0.9755  2.4977  1.7145
13592TIP3    H262268   4.501   4.419   3.635 -1.0668  1.2054  0.9758
13593TIP3   OH262269   4.938   0.380   3.777 -0.7919 -0.8120  0.0665
13593TIP3    H162270   4.937   0.296   3.823  0.3171 -0.8664  0.0177
13593TIP3    H262271   4.989   0.438   3.833  1.1188 -1.0433 -1.3248
13594TIP3   OH262272   5.215   1.571   4.814  0.6609 -0.1834  0.0628
13594TIP3    H162273   5.199   1.477   4.803  0.1262  0.0961 -1.9215
13594TIP3    H262274   5.127   1.609   4.816  0.8910  0.3980 -0.6112
13595TIP3   OH262275   2.273   1.894  16.461  0.8272  0.5615  0.5597
13595TIP3    H162276   2.237   1.964  16.515  0.7651  2.1774 -1.4596
13595TIP3    H262277   2.196   1.850  16.425  0.8721 -0.2106  1.3796
13596TIP3   OH262278   3.978   6.688   1.684  0.3779 -0.0214  0.1139
13596TIP3    H162279   4.011   6.673   1.595 -1.1487 -0.9461 -0.3343
13596TIP3    H262280   3.920   6.614   1.701 -1.5978  1.5883  0.7646
13597TIP3   OH262281   1.467   5.506   6.409  0.4034 -0.0096 -0.0991
13597TIP3    H162282   1.453   5.447   6.335  1.2946 -1.8977  1.1628
13597TIP3    H262283   1.400   5.481   6.473  0.3294  0.8493  0.1666
13598TIP3   OH262284   4.562   0.407   5.835  0.1878  0.4431  0.8025
13598TIP3    H162285   4.509   0.387   5.912 -0.6261 -1.9609 -0.2660
13598TIP3    H262286   4.596   0.495   5.850 -2.7245  1.4025  2.3166
13599TIP3   OH262287   3.504   1.783  13.573 -0.3221  0.4193 -0.4198
13599TIP3    H162288   3.581   1.792  13.517 -0.3729  2.1399 -0.2609
13599TIP3    H262289   3.438   1.839  13.532 -1.0575  0.0173  0.1915
13600TIP3   OH262290   1.967   0.114  12.670 -0.1772  0.2374  0.1514
13600TIP3    H162291   1.983   0.098  12.577  1.5185  2.1550  0.0664
13600TIP3    H262292   2.026   0.185  12.693  2.3042 -2.6131  3.6305
13601TIP3   OH262293   4.412   2.249  15.110 -0.1172  0.3055 -0.0007
13601TIP3    H162294   4.392   2.286  15.196 -1.9000  0.3590 -0.3865
13601TIP3    H262295   4.466   2.172  15.129  0.9156  1.2333  1.0249
13602TIP3   OH262296   6.272   3.804   3.039  0.1805 -0.0866  0.0088
13602TIP3    H162297   6.233   3.785   3.124  1.4954 -1.1168  0.4274
13602TIP3    H262298   6.291   3.898   3.041  4.0287 -0.6966  2.6487
13603TIP3   OH262299   5.472   0.252   3.486 -0.4926 -0.0974 -0.7001
13603TIP3    H162300   5.418   0.331   3.486  0.5569  0.6608 -1.4499
13603TIP3    H262301   5.447   0.206   3.406  0.0057  0.3051 -1.1007
13604TIP3   OH262302   3.565   0.811  11.674 -0.3300 -0.1261 -0.0028
13604TIP3    H162303   3.635   0.866  11.639  1.3233  0.0719  3.2682
13604TIP3    H262304   3.607   0.728  11.695 -2.1572 -1.7171 -2.0849
13605TIP3   OH262305   6.285   1.662   5.339  0.2445 -0.5203  0.1259
13605TIP3    H162306   6.274   1.652   5.434  0.3038  0.3454  0.2291
13605TIP3    H262307   6.271   1.573   5.304 -0.9851 -0.6241  0.8220
13606TIP3   OH262308   1.544   1.551   0.209 -0.2706  0.0638  0.0425
13606TIP3    H162309   1.554   1.615   0.280  1.3580  0.9155 -0.8782
13606TIP3    H262310   1.580   1.470   0.244  0.4602  0.4605  0.2241
13607TIP3   OH262311   3.602   4.958  11.876  0.2713 -0.2093  0.5002
13607TIP3    H162312   3.630   4.898  11.807 -2.2265  0.9605 -1.6607
13607TIP3    H262313   3.507   4.949  11.880  0.0387  1.9459  1.6967
13608TIP3   OH262314   3.644   1.480   3.031  0.4192  0.0366 -0.6088
13608TIP3    H162315   3.587   1.486   3.108  1.3332  0.3984  0.0516
13608TIP3    H262316   3.586   1.501   2.957 -0.0908  1.4645  0.1513
13609TIP3   OH262317   0.894   2.617   4.587 -0.3778 -0.5792 -0.1190
13609TIP3    H162318   0.936   2.532   4.593  2.1918  0.5633 -0.4145
13609TIP3    H262319   0.823   2.614   4.651  3.0307 -1.1507  4.0514
13610TIP3   OH262320   2.961   1.930  14.791  0.0746 -0.5110 -1.0281
13610TIP3    H162321   2.965   1.884  14.707  2.1866  0.6700 -1.6535
13610TIP3    H262322   2.896   2.000  14.776  0.7501 -0.0350 -1.8661
13611TIP3   OH262323   6.083   3.677  16.254 -0.2435 -0.4510 -0.1675
13611TIP3    H162324   6.107   3.707  16.342 -0.3065 -0.5022 -0.1324
13611TIP3    H262325   6.166   3.670  16.207 -0.3393  1.3019 -0.6624
13612TIP3   OH262326   6.067   4.407  11.506 -0.2375 -0.2377  0.6134
13612TIP3    H162327   6.126   4.481  11.520 -0.9884  0.6963 -0.9413
13612TIP3    H262328   6.064   4.396  11.411 -2.6405 -0.1376  0.6019
13613TIP3   OH262329   5.365   1.268   3.425  0.2679  0.0195 -0.6821
13613TIP3    H162330   5.313   1.325   3.483 -1.2779 -1.1754 -0.8229
13613TIP3    H262331   5.439   1.241   3.479 -0.6004 -0.2617  0.4255
13614TIP3   OH262332   0.855   3.819   2.011 -0.4679  0.0480 -0.3104
13614TIP3    H162333   0.890   3.842   1.924  0.4578  0.8220  0.2472
13614TIP3    H262334   0.773   3.869   2.017 -0.8749 -0.5139 -0.9842
13615TIP3   OH262335   2.843   6.465  15.577 -1.0590  0.3873  0.3166
13615TIP3    H162336   2.771   6.401  15.575 -0.8933  0.2222 -0.5294
13615TIP3    H262337   2.821   6.523  15.650 -1.3292 -0.4944  0.9592
13616TIP3   OH262338   6.110   3.100   2.568  0.4883 -0.3999 -0.5244
13616TIP3    H162339   6.184   3.130   2.621 -0.2774 -1.3327  1.1476
13616TIP3    H262340   6.121   3.145   2.484  1.6216  1.3054  0.4853
13617TIP3   OH262341   2.619   4.707   4.895  0.0163 -0.7447 -0.0266
13617TIP3    H162342   2.526   4.723   4.880 -0.2154 -1.4156  0.6178
13617TIP3    H262343   2.626   4.698   4.990  1.2894  2.5805  0.3083
13618TIP3   OH262344   1.034   5.698   3.954  0.1452  0.2721  0.3994
13618TIP3    H162345   1.032   5.731   4.044 -0.1682 -2.1947  1.3560
13618TIP3    H262346   0.957   5.737   3.913  1.2886  2.9126  0.5698
13619TIP3   OH262347   0.628   0.538  14.870 -0.0551 -0.5152  0.2830
13619TIP3    H162348   0.619   0.562  14.777  0.1299  0.7609  0.5653
13619TIP3    H262349   0.720   0.516  14.880 -0.0354 -0.4759  0.1922
13620TIP3   OH262350   0.569   2.608  16.590  0.2385  0.7759 -0.0810
13620TIP3    H162351   0.581   2.515  16.570 -0.0574  0.7299 -0.0375
13620TIP3    H262352   0.657   2.638  16.614  0.3648  0.5464 -0.2499
13621TIP3   OH262353   5.871   1.516   0.226 -0.8536 -0.0904  0.0117
13621TIP3    H162354   5.855   1.549   0.314 -0.3632 -0.0437  0.0883
13621TIP3    H262355   5.884   1.422   0.237 -0.1951 -0.0005  0.0799
13622TIP3   OH262356   6.367   4.299  17.036 -0.3725  0.2317 -0.5366
13622TIP3    H162357   6.457   4.332  17.034 -0.1691 -0.0939  1.3826
13622TIP3    H262358   6.316   4.372  17.073 -0.6103 -0.1810 -0.0476
13623TIP3   OH262359   6.371   5.418   4.899 -0.0778 -0.5625 -0.2200
13623TIP3    H162360   6.313   5.425   4.823 -0.3544 -1.1955 -0.0825
13623TIP3    H262361   6.451   5.379   4.865 -0.8201 -2.4923  0.0703
13624TIP3   OH262362   2.152   1.868  15.315 -0.4522  0.6205 -0.3775
13624TIP3    H162363   2.245   1.854  15.328 -0.7837 -0.6728  0.8423
13624TIP3    H262364   2.118   1.890  15.402 -1.5373 -0.5809 -0.4737
13625TIP3   OH262365   2.329   2.889   0.811 -0.2667 -0.1530 -0.2856
13625TIP3    H162366   2.410   2.842   0.832  0.1477  0.0555 -1.3539
13625TIP3    H262367   2.304   2.856   0.725 -1.6129 -0.5827  0.2354
13626TIP3   OH262368   2.855   6.562   0.573 -0.6333  0.0391  0.9193
13626TIP3    H162369   2.944   6.527   0.571 -0.3302  0.8598 -0.6682
13626TIP3    H262370   2.864   6.654   0.548 -2.0616 -0.1907 -0.5783
13627TIP3   OH262371   6.193   2.010   4.165  0.5291  0.1408  0.1359
13627TIP3    H162372   6.108   2.042   4.134  0.4262 -0.1331  0.1249
13627TIP3    H262373   6.255   2.038   4.098  0.4423  0.3255  0.1332
13628TIP3   OH262374   1.728   6.471   3.067  0.2460 -0.3200 -0.4916
13628TIP3    H162375   1.633   6.479   3.069  0.2196 -0.3996 -1.2387
13628TIP3    H262376   1.747   6.418   2.990  0.8769 -0.6348 -0.1340
13629TIP3   OH262377   3.643   2.990  13.379  0.0006 -0.7170 -0.2580
13629TIP3    H162378   3.677   3.063  13.430 -1.3749  0.1935 -0.5855
13629TIP3    H262379   3.630   2.920  13.442 -1.8055  0.4345  0.7188
13630TIP3   OH262380   1.758   5.185   0.247 -0.0672  0.0569 -0.0192
13630TIP3    H162381   1.784   5.111   0.303  1.3801  1.5400  1.4077
13630TIP3    H262382   1.675   5.215   0.284  0.0906  0.0456  0.3506
13631TIP3   OH262383   1.797   5.417   2.422  0.3061 -0.1005  0.1138
13631TIP3    H162384   1.836   5.355   2.361  0.7731  0.2373  0.0627
13631TIP3    H262385   1.723   5.455   2.374 -1.0674 -1.8458  0.7412
13632TIP3   OH262386   5.776   4.939   3.454  0.1865  0.4471 -0.0639
13632TIP3    H162387   5.842   4.878   3.422 -0.6175  0.4095 -1.7367
13632TIP3    H262388   5.725   4.888   3.517  0.0695 -0.3500 -0.7876
13633TIP3   OH262389   5.282   4.808  16.682  0.1318 -0.1714 -0.2994
13633TIP3    H162390   5.210   4.760  16.642 -0.7442  0.6488  0.2694
13633TIP3    H262391   5.358   4.785  16.628 -0.6546 -0.5692 -1.2749
13634TIP3   OH262392   3.189   0.320  12.058 -0.6604  0.1748  0.1825
13634TIP3    H162393   3.182   0.261  12.133  0.9527 -0.5975 -0.2130
13634TIP3    H262394   3.210   0.262  11.984 -0.3975  1.0987 -0.4901
13635TIP3   OH262395   3.786   2.559  14.421  0.5333 -0.2716 -0.3395
13635TIP3    H162396   3.818   2.533  14.507 -0.2221  0.1930  0.0856
13635TIP3    H262397   3.860   2.607  14.382  1.2210 -1.2987 -0.3471
13636TIP3   OH262398   0.908   1.671   5.359  0.4227  0.4435  0.0863
13636TIP3    H162399   0.836   1.708   5.411  0.0385  0.4007 -0.4111
13636TIP3    H262400   0.971   1.743   5.350  0.5670  0.4041  0.7462
13637TIP3   OH262401   2.588   4.086  12.407  0.4864 -0.1781  0.7422
13637TIP3    H162402   2.502   4.105  12.445 -0.5533 -0.9762 -1.1244
13637TIP3    H262403   2.579   4.106  12.314  2.0311 -1.2465  0.3154
13638TIP3   OH262404   6.673   5.616   1.394  0.2221  0.8510  0.0819
13638TIP3    H162405   6.716   5.566   1.464 -1.0109  0.0674  0.3113
13638TIP3    H262406   6.718   5.589   1.314 -0.9761 -1.3671  0.0806
13639TIP3   OH262407   2.821   1.075  15.908 -0.3274  0.4322 -0.0461
13639TIP3    H162408   2.858   1.126  15.979  0.4159  1.5846 -1.2077
13639TIP3    H262409   2.886   1.080  15.838 -2.1943  1.7087 -1.8261
13640TIP3   OH262410   1.406   4.555  12.893 -0.2148 -0.1484  0.4770
13640TIP3    H162411   1.357   4.607  12.830 -0.0899 -1.2918 -0.6112
13640TIP3    H262412   1.347   4.483  12.916  0.1046 -0.2721  0.9386
13641TIP3   OH262413   4.147   6.285   5.509  0.4327  0.3138 -0.1392
13641TIP3    H162414   4.195   6.251   5.585  0.9732  0.5555 -0.3663
13641TIP3    H262415   4.086   6.350   5.546 -0.0970 -0.3682  0.2119
13642TIP3   OH262416   5.192   2.111  12.516 -0.0069 -0.8346  0.1539
13642TIP3    H162417   5.245   2.034  12.493  3.2204  1.3088 -0.3119
13642TIP3    H262418   5.171   2.098  12.608  2.1710 -1.4457  0.6380
13643TIP3   OH262419   3.040   5.806  12.911  0.2216 -0.4808 -0.2582
13643TIP3    H162420   3.020   5.713  12.899 -0.2248 -0.3584 -0.4656
13643TIP3    H262421   3.054   5.815  13.005 -2.0988 -0.3167  0.1313
13644TIP3   OH262422   5.397   5.144  11.078 -0.0418 -0.5489  0.0086
13644TIP3    H162423   5.458   5.198  11.027 -0.6434  1.0104  0.8718
13644TIP3    H262424   5.346   5.097  11.012  1.3173 -1.0173 -0.7465
13645TIP3   OH262425   4.612   4.617  12.528  0.6901  0.4122  0.2504
13645TIP3    H162426   4.680   4.671  12.570  0.1138  0.6680  0.8808
13645TIP3    H262427   4.660   4.544  12.489  1.6323  1.9571 -1.6305
13646TIP3   OH262428   2.535   5.447   1.421 -0.2457 -0.0988  0.3534
13646TIP3    H162429   2.576   5.525   1.457 -2.4065  1.2943 -0.0299
13646TIP3    H262430   2.592   5.421   1.349  1.6610 -0.2162  1.8336
13647TIP3   OH262431   2.157   0.659  13.481  0.1914  0.1104  0.1267
13647TIP3    H162432   2.157   0.753  13.497 -1.6375 -0.0299  1.1783
13647TIP3    H262433   2.233   0.645  13.423  0.5734  2.1811  0.0383
13648TIP3   OH262434   5.611   2.826   0.867 -0.2336  0.3357  0.5410
13648TIP3    H162435   5.644   2.747   0.824 -0.0514  1.6018 -1.8560
13648TIP3    H262436   5.516   2.811   0.875 -0.0927 -0.4362  0.8768
13649TIP3   OH262437   5.803   1.975   2.856 -0.9016  0.0671 -0.3930
13649TIP3    H162438   5.718   1.932   2.846 -0.7065 -0.4218  0.0318
13649TIP3    H262439   5.783   2.055   2.905 -0.9758 -0.5954  0.7010
13650TIP3   OH262440   3.348   3.659  15.531  0.7876 -0.3427 -0.0098
13650TIP3    H162441   3.292   3.642  15.607 -0.6047 -0.6952 -1.0674
13650TIP3    H262442   3.289   3.699  15.467  2.4097  2.0590 -0.1460
13651TIP3   OH262443   5.006   3.202   4.147 -0.0605  0.5209  0.3716
13651TIP3    H162444   5.078   3.201   4.083  0.7494  0.1804  1.2556
13651TIP3    H262445   5.029   3.133   4.209 -0.4050  1.3894  1.4864
13652TIP3   OH262446   4.734   2.694   1.539  0.0100 -0.5786  0.2149
13652TIP3    H162447   4.686   2.688   1.621 -0.6496  1.9566  0.1022
13652TIP3    H262448   4.734   2.605   1.504 -2.5932 -1.1195  1.3540
13653TIP3   OH262449   6.277   5.685   2.846  0.4779  0.1320  0.0246
13653TIP3    H162450   6.312   5.680   2.935  0.1959  1.4186  0.2271
13653TIP3    H262451   6.332   5.625   2.795  0.4883 -0.7966  1.0977
13654TIP3   OH262452   2.056   5.646  13.603  0.2294  0.4411 -0.8590
13654TIP3    H162453   2.080   5.677  13.690  0.5813  0.5595 -0.9939
13654TIP3    H262454   2.064   5.551  13.608  1.9464  0.5218 -1.2266
13655TIP3   OH262455   6.241   3.851  15.913 -0.4225  0.1109 -0.1738
13655TIP3    H162456   6.184   3.926  15.895 -2.7114 -1.4220  0.2735
13655TIP3    H262457   6.319   3.867  15.859 -1.5039  2.0190 -1.3044
13656TIP3   OH262458   5.221   5.857   3.532  0.0470  0.0075 -0.2974
13656TIP3    H162459   5.194   5.767   3.516  1.5905 -0.4742 -0.4225
13656TIP3    H262460   5.217   5.899   3.446 -0.0781 -0.1138 -0.3506
13657TIP3   OH262461   1.682   1.731   3.524 -0.9598  0.2623 -0.2122
13657TIP3    H162462   1.695   1.649   3.572  1.0005  0.4379 -0.3699
13657TIP3    H262463   1.682   1.799   3.591  0.3610  0.3724 -0.2888
13658TIP3   OH262464   5.418   0.717   1.308 -0.5252 -0.3931  0.2990
13658TIP3    H162465   5.387   0.673   1.229  0.0394 -0.0022 -0.1512
13658TIP3    H262466   5.361   0.685   1.378  1.7936 -4.4082  0.6869
13659TIP3   OH262467   1.245   6.011  16.306  0.0394 -0.7237  0.5506
13659TIP3    H162468   1.204   6.027  16.221 -0.4728 -0.8887  0.7593
13659TIP3    H262469   1.176   6.030  16.370 -0.2999 -2.7460  0.8589
13660TIP3   OH262470   0.844   6.644  11.280 -0.0388 -0.1146  0.0964
13660TIP3    H162471   0.914   6.583  11.259  0.3099 -0.3412  1.7868
13660TIP3    H262472   0.830   6.634  11.374  0.4821  2.8679  0.5961
13661TIP3   OH262473   5.351   4.107  12.329  0.6408  0.1813 -0.3028
13661TIP3    H162474   5.402   4.132  12.407 -1.7282  0.1320  1.3801
13661TIP3    H262475   5.360   4.181  12.270  2.7199  0.1111 -0.1444
13662TIP3   OH262476   2.741   0.342  13.459 -0.0231 -0.4905  0.2166
13662TIP3    H162477   2.706   0.413  13.405  0.2733  0.3751  1.1348
13662TIP3    H262478   2.813   0.307  13.408 -0.4756 -0.4632 -0.4660
13663TIP3   OH262479   6.027   4.366  11.228 -0.0925 -0.7969  0.1643
13663TIP3    H162480   5.996   4.456  11.236  3.7964  0.5653  2.6824
13663TIP3    H262481   6.081   4.367  11.149 -0.7834 -1.2055 -0.3184
13664TIP3   OH262482   6.828   1.929   6.410 -0.5062 -0.7280 -0.2188
13664TIP3    H162483   6.810   1.854   6.466  0.1764 -1.4247 -0.8985
13664TIP3    H262484   6.742   1.963   6.387 -0.8004 -0.6208  0.9724
13665TIP3   OH262485   0.785   4.008  14.158 -0.7387  0.0421  0.1566
13665TIP3    H162486   0.822   4.089  14.194  1.3205  0.0336 -1.7041
13665TIP3    H262487   0.734   4.037  14.083 -2.5672 -0.1843  1.2557
13666TIP3   OH262488   3.004   6.616  16.567  0.2513 -0.5840 -0.5976
13666TIP3    H162489   3.028   6.708  16.553 -1.3215 -0.1903 -0.8362
13666TIP3    H262490   2.921   6.619  16.614  0.9299 -1.9109  0.7779
13667TIP3   OH262491   1.563   3.806  14.916  0.1390  0.2476  0.1221
13667TIP3    H162492   1.614   3.732  14.883 -0.3717  0.6671 -1.7391
13667TIP3    H262493   1.626   3.879  14.919  0.1075  0.2987 -0.3337
13668TIP3   OH262494   3.272   2.286   5.599 -0.7392 -0.0103 -0.1058
13668TIP3    H162495   3.281   2.273   5.505 -1.0503 -0.9921 -0.0169
13668TIP3    H262496   3.300   2.376   5.614  2.7021 -0.8246 -0.7044
13669TIP3   OH262497   5.288   5.335  12.878  0.4569 -0.3878  0.5131
13669TIP3    H162498   5.330   5.304  12.798 -0.5935  1.2412 -0.7349
13669TIP3    H262499   5.356   5.386  12.922 -0.3146  3.3649 -2.1365
13670TIP3   OH262500   6.658   2.922   3.862  0.1877  0.3597 -0.2749
13670TIP3    H162501   6.740   2.880   3.886 -0.3429 -1.4824 -1.4672
13670TIP3    H262502   6.598   2.902   3.934 -0.1231 -1.1967 -0.9331
13671TIP3   OH262503   3.764   2.461   5.394  0.2581 -0.5787  0.0073
13671TIP3    H162504   3.686   2.437   5.444 -1.6047 -0.5640 -2.6830
13671TIP3    H262505   3.820   2.383   5.399 -0.4056 -1.0149  1.0821
13672TIP3   OH262506   2.919   4.200  12.402 -0.4994 -0.5387  0.0303
13672TIP3    H162507   2.989   4.166  12.346  0.6313 -0.8290  1.5773
13672TIP3    H262508   2.884   4.274  12.353  0.4075 -0.8177 -1.0901
13673TIP3   OH262509   5.287   5.894   0.132 -0.1733 -0.3551 -0.1092
13673TIP3    H162510   5.266   5.807   0.166  0.3266 -0.6830 -0.6054
13673TIP3    H262511   5.382   5.891   0.116  0.0819  0.7054  1.0326
13674TIP3   OH262512   4.647   3.708   1.561  0.1861  0.6523  0.7050
13674TIP3    H162513   4.664   3.621   1.526  1.4684  0.8699  0.7467
13674TIP3    H262514   4.730   3.755   1.551 -0.4802  1.8796  0.6641
13675TIP3   OH262515   2.596   1.763  17.016  0.3381 -0.3375 -0.1177
13675TIP3    H162516   2.551   1.694  16.967  0.6842  0.4492 -1.6311
13675TIP3    H262517   2.535   1.836  17.017  0.8574  0.1164 -0.5895
13676TIP3   OH262518   4.864   5.711   0.695 -0.3396 -0.4599 -0.0894
13676TIP3    H162519   4.786   5.737   0.646 -0.2232 -1.9733 -1.1477
13676TIP3    H262520   4.925   5.784   0.682 -0.3783 -0.7238 -2.0909
13677TIP3   OH262521   2.808   0.853   1.093  0.2985  0.1757  0.3702
13677TIP3    H162522   2.795   0.785   1.028 -1.5941  1.1097 -0.3029
13677TIP3    H262523   2.838   0.929   1.043  0.4700  0.4161  0.8303
13678TIP3   OH262524   2.489   0.146  13.920 -0.5657  0.4527 -0.0354
13678TIP3    H162525   2.400   0.153  13.952 -0.9935 -1.7857 -0.5602
13678TIP3    H262526   2.525   0.070  13.966  0.9266  1.0352 -0.1866
13679TIP3   OH262527   5.326   6.531  11.927  0.5092 -0.6939 -0.6454
13679TIP3    H162528   5.307   6.593  11.857  0.7426  1.1083  0.7898
13679TIP3    H262529   5.310   6.581  12.007 -1.0039 -3.0262  0.6355
13680TIP3   OH262530   6.010   6.007   4.892 -0.6606  0.6342 -0.6792
13680TIP3    H162531   6.068   6.025   4.966 -0.6810 -0.0795 -0.4783
13680TIP3    H262532   6.004   5.911   4.889 -0.1634  0.6298 -1.9883
13681TIP3   OH262533   5.225   5.965  15.906 -0.2572  0.8149  0.0436
13681TIP3    H162534   5.152   6.022  15.882  0.4328  1.9955  0.6416
13681TIP3    H262535   5.184   5.891  15.951 -1.1731  0.7987 -0.7675
13682TIP3   OH262536   0.584   3.251  12.877 -0.9309 -0.4209 -0.2186
13682TIP3    H162537   0.521   3.297  12.822  0.2529 -0.0871 -1.3589
13682TIP3    H262538   0.657   3.230  12.818 -0.5714 -2.0216  0.7303
13683TIP3   OH262539   3.141   4.764  15.429  0.3937 -0.2646  0.5378
13683TIP3    H162540   3.181   4.840  15.386  0.0789  0.1698  1.0052
13683TIP3    H262541   3.208   4.696  15.424  0.3240 -0.2593 -0.7297
13684TIP3   OH262542   6.371   1.428  16.976  0.1232  0.1448 -0.2475
13684TIP3    H162543   6.416   1.366  16.918  2.6921  3.1205 -1.7979
13684TIP3    H262544   6.414   1.416  17.061  0.1590 -0.6080 -0.3650
13685TIP3   OH262545   0.284   6.099  13.039 -0.4948 -0.0631 -0.3535
13685TIP3    H162546   0.351   6.168  13.037 -1.3972  0.8319 -0.5838
13685TIP3    H262547   0.331   6.021  13.069  0.2115  1.0194  1.4982
13686TIP3   OH262548   6.657   0.450   4.531  1.4516  0.3465 -0.8686
13686TIP3    H162549   6.609   0.422   4.454 -0.5404 -1.1447  0.7840
13686TIP3    H262550   6.692   0.369   4.569 -1.5559  0.2042  2.1734
13687TIP3   OH262551   0.429   6.199   3.330  0.2795  0.0268  0.0550
13687TIP3    H162552   0.444   6.210   3.236 -0.5968  1.0878  0.0238
13687TIP3    H262553   0.398   6.108   3.338  1.7111 -0.5482 -0.4778
13688TIP3   OH262554   2.967   2.446  11.091  0.1209 -0.1526 -0.6996
13688TIP3    H162555   2.991   2.358  11.063  0.1082 -0.1754 -0.6370
13688TIP3    H262556   3.018   2.462  11.170 -0.1716 -0.2540 -0.4879
13689TIP3   OH262557   3.158   1.987  13.738  0.1928 -0.8158 -0.0917
13689TIP3    H162558   3.211   1.958  13.813 -0.9125  0.0382  1.0629
13689TIP3    H262559   3.193   2.073  13.716 -0.6146 -0.3033  0.5947
13690TIP3   OH262560   5.981   0.769  16.923 -0.5025 -0.0453  0.3159
13690TIP3    H162561   6.021   0.761  16.837 -0.9605 -0.0327  0.0978
13690TIP3    H262562   5.953   0.680  16.945  2.8643 -0.8306  2.0890
13691TIP3   OH262563   5.827   5.624  13.023  0.0785  0.1869  0.4853
13691TIP3    H162564   5.743   5.597  13.060  0.4820  0.4053  1.5788
13691TIP3    H262565   5.867   5.542  12.992 -0.3836  0.0418  0.2546
13692TIP3   OH262566   2.675   3.236  13.701  0.4348 -0.0347 -0.1078
13692TIP3    H162567   2.697   3.273  13.615  0.1579  0.2255 -0.0681
13692TIP3    H262568   2.616   3.300  13.740 -1.5060 -1.3525 -0.7690
13693TIP3   OH262569   5.003   6.097   1.520  0.3162  0.4194 -0.5697
13693TIP3    H162570   5.016   6.003   1.534  3.9687  0.3739 -2.7345
13693TIP3    H262571   4.969   6.129   1.603  3.1068 -2.2272  1.8828
13694TIP3   OH262572   3.803   4.194  13.133 -0.0034  0.4522  0.2902
13694TIP3    H162573   3.863   4.182  13.207 -0.5833  2.3437  1.1281
13694TIP3    H262574   3.767   4.282  13.145 -1.0277  0.3493 -1.6036
13695TIP3   OH262575   2.804   2.781  12.121 -0.8320  0.7955  0.3923
13695TIP3    H162576   2.800   2.689  12.097 -0.1899  0.9966 -0.5574
13695TIP3    H262577   2.742   2.824  12.061  0.9119  1.3268 -1.1372
13696TIP3   OH262578   1.203   1.314  11.891  0.3054 -0.0945 -0.3256
13696TIP3    H162579   1.121   1.304  11.938 -0.1271  1.0283 -0.8063
13696TIP3    H262580   1.240   1.226  11.888 -0.6711 -0.5380  0.2661
13697TIP3   OH262581   6.668   0.831   3.800 -0.2485  0.1560 -0.2363
13697TIP3    H162582   6.675   0.865   3.711  0.1805 -0.1966 -0.3395
13697TIP3    H262583   6.575   0.839   3.822 -0.8532 -2.1173 -1.6567
13698TIP3   OH262584   4.418   0.485  15.184  0.1620  0.4327 -0.3115
13698TIP3    H162585   4.505   0.445  15.181  0.2359  0.3296  1.8463
13698TIP3    H262586   4.434   0.573  15.220 -0.7480 -0.0938  1.4691
13699TIP3   OH262587   0.928   3.104   3.569 -0.3535  0.5596  0.6166
13699TIP3    H162588   0.929   3.037   3.502 -3.5346  0.5773  0.3980
13699TIP3    H262589   0.956   3.184   3.524  0.2056  0.0521  0.0488
13700TIP3   OH262590   2.754   6.430  14.869  0.2566  0.1462  0.4718
13700TIP3    H162591   2.676   6.393  14.910 -1.5415  1.0749 -1.9060
13700TIP3    H262592   2.771   6.373  14.794  0.4497  1.2894 -0.3692
13701TIP3   OH262593   0.128   3.187   2.749  0.0208  0.1077 -0.0521
13701TIP3    H162594   0.051   3.240   2.773  1.3046  0.9247  2.6199
13701TIP3    H262595   0.103   3.097   2.773  0.9703  0.7884  4.2148
13702TIP3   OH262596   2.104   5.433  11.044  0.1032  0.0155  0.3377
13702TIP3    H162597   2.198   5.450  11.054  0.0119 -0.5269  2.5214
13702TIP3    H262598   2.099   5.338  11.032 -0.2082 -0.0694  1.0998
13703TIP3   OH262599   1.039   0.409  13.090 -0.2084 -0.5892 -0.3646
13703TIP3    H162600   1.105   0.430  13.023  1.0073 -2.5558  0.1223
13703TIP3    H262601   1.021   0.316  13.076 -0.4069 -0.8788  1.6193
13704TIP3   OH262602   6.253   2.493  13.058 -0.3511  0.0020  0.0444
13704TIP3    H162603   6.302   2.513  13.138  1.3569  0.2378 -0.9970
13704TIP3    H262604   6.272   2.566  12.999 -2.8584  0.6278 -0.0732
13705TIP3   OH262605   0.961   4.010  17.190 -0.4372 -0.5438 -0.2165
13705TIP3    H162606   0.912   4.041  17.267  0.1595 -0.8248  0.2854
13705TIP3    H262607   0.986   3.921  17.212  2.2341  0.2935  0.5401
13706TIP3   OH262608   0.606   6.287  15.580 -0.4929  0.5594 -0.2921
13706TIP3    H162609   0.517   6.255  15.594  0.0205 -0.2006  1.4424
13706TIP3    H262610   0.638   6.235  15.506 -1.4408  0.8184 -0.9217
13707TIP3   OH262611   6.007   0.291  12.319  0.1628 -0.2647 -0.0670
13707TIP3    H162612   5.962   0.372  12.341  0.3165 -0.0581 -0.5111
13707TIP3    H262613   6.032   0.254  12.404 -0.3604 -0.1109  0.1572
13708TIP3   OH262614   6.183   0.995   5.542  1.3963  0.0162 -0.4201
13708TIP3    H162615   6.204   0.952   5.459  0.6925 -1.2859  0.0370
13708TIP3    H262616   6.192   0.925   5.607  0.8842  0.7438  0.4450
13709TIP3   OH262617   6.049   4.981  13.962  0.3998 -0.0244 -0.3736
13709TIP3    H162618   6.126   4.971  14.018  0.7506 -0.2170 -0.8860
13709TIP3    H262619   6.080   4.959  13.875 -0.1332  0.3204 -0.6555
13710TIP3   OH262620   2.109   2.288  15.356  0.3331 -0.8521 -0.3961
13710TIP3    H162621   2.077   2.258  15.272  1.4518 -0.4699 -0.9750
13710TIP3    H262622   2.141   2.377  15.340 -1.2773  0.0256  0.8844
13711TIP3   OH262623   6.189   4.107  14.808  0.1535 -0.2568 -0.0352
13711TIP3    H162624   6.268   4.114  14.861 -0.6463  1.8699  0.9614
13711TIP3    H262625   6.221   4.106  14.718  1.4035 -1.8901  0.3734
13712TIP3   OH262626   0.882   0.468  13.325  0.3951  0.1068 -0.2489
13712TIP3    H162627   0.944   0.435  13.260  0.9230  0.7709 -0.0966
13712TIP3    H262628   0.880   0.563  13.309 -0.6575  0.0855 -0.3121
13713TIP3   OH262629   1.223   6.028   2.885 -0.0337 -0.0337 -0.0650
13713TIP3    H162630   1.240   5.977   2.806  0.3947 -0.7107  0.4497
13713TIP3    H262631   1.308   6.063   2.910 -0.2575  0.6061 -0.1890
13714TIP3   OH262632   3.503   4.795  15.543 -0.1310 -0.2430 -0.1550
13714TIP3    H162633   3.586   4.750  15.555  1.8022  2.7644 -1.0812
13714TIP3    H262634   3.487   4.840  15.626  0.7474  1.4677 -0.8639
13715TIP3   OH262635   0.846   5.836   4.316 -0.1270 -0.3104 -0.0241
13715TIP3    H162636   0.886   5.922   4.309 -0.6094 -0.0370  0.4901
13715TIP3    H262637   0.758   5.847   4.278  0.1404 -0.8139 -0.8192
13716TIP3   OH262638   0.041   0.471   6.334  0.0175 -0.0971 -0.5728
13716TIP3    H162639   0.074   0.389   6.298  2.2600  0.0539  0.9093
13716TIP3    H262640   0.112   0.502   6.390 -2.5283  0.4413  2.6753
13717TIP3   OH262641   5.977   4.299  15.098 -0.4051 -0.3499 -0.0383
13717TIP3    H162642   6.021   4.230  15.048 -2.1729 -0.0584 -2.1429
13717TIP3    H262643   6.011   4.381  15.060 -1.1528 -0.1106 -0.1999
13718TIP3   OH262644   2.637   3.926  15.686 -0.1595  0.0613 -0.0227
13718TIP3    H162645   2.591   3.867  15.745  1.1449 -0.7832  0.1944
13718TIP3    H262646   2.601   3.906  15.599  0.6327 -1.4835 -0.0362
13719TIP3   OH262647   6.421   3.218   2.938  0.3389  0.0909  0.0453
13719TIP3    H162648   6.386   3.307   2.933  0.0620  0.2177  2.5985
13719TIP3    H262649   6.343   3.161   2.935  0.2947  0.0986  0.7510
13720TIP3   OH262650   5.398   2.550  16.431 -0.3067  0.6953  0.3433
13720TIP3    H162651   5.475   2.607  16.435  0.1681  0.1150 -0.2536
13720TIP3    H262652   5.394   2.509  16.517 -0.2091  1.0632  0.5247
13721TIP3   OH262653   1.688   0.857  11.826 -0.1537  0.0934  0.0004
13721TIP3    H162654   1.748   0.904  11.769 -0.0454 -0.8315 -0.6714
13721TIP3    H262655   1.684   0.769  11.789 -0.3816 -0.4194  1.2040
13722TIP3   OH262656   4.544   1.663   1.862 -0.8846 -0.4446 -0.1534
13722TIP3    H162657   4.564   1.745   1.906 -3.2062  0.1336 -0.0829
13722TIP3    H262658   4.547   1.597   1.932  0.5970 -0.4002 -0.1431
13723TIP3   OH262659   6.421   6.731  11.631 -0.9441 -0.3949 -0.0827
13723TIP3    H162660   6.437   6.668  11.701  1.6802  0.4728  0.2128
13723TIP3    H262661   6.458   6.813  11.664 -0.7325  0.3240 -1.9854
13724TIP3   OH262662   5.226   3.279   0.015 -0.5147  0.3478  0.1988
13724TIP3    H162663   5.149   3.307   0.065  0.2501  0.5415  1.2934
13724TIP3    H262664   5.190   3.247  -0.068 -1.7151  1.0638  0.4217
13725TIP3   OH262665   4.312   5.418  15.201 -0.5531  0.3981  0.0487
13725TIP3    H162666   4.247   5.362  15.157 -0.3171 -0.1577  0.3964
13725TIP3    H262667   4.338   5.480  15.133  1.9692 -2.2282 -1.6313
13726TIP3   OH262668   5.730   4.459  12.067 -0.2658 -0.3610 -0.0884
13726TIP3    H162669   5.667   4.387  12.064 -1.3891  0.5391  0.8640
13726TIP3    H262670   5.767   4.455  12.155 -0.7244  0.5317  0.1533
13727TIP3   OH262671   4.956   1.891   5.760  0.0000 -0.3453 -0.3411
13727TIP3    H162672   5.046   1.905   5.790 -0.4669 -0.4260  1.1782
13727TIP3    H262673   4.922   1.980   5.747  0.3329 -0.3162 -1.0594
13728TIP3   OH262674   4.137   4.177  15.706 -0.0430 -0.3247 -0.1598
13728TIP3    H162675   4.072   4.122  15.662 -1.4258  0.5363  0.6999
13728TIP3    H262676   4.165   4.239  15.638 -2.5239  1.3109  0.1907
13729TIP3   OH262677   4.278   2.629   6.488 -0.2856 -0.0299 -0.2781
13729TIP3    H162678   4.183   2.626   6.471 -0.9273  2.7169  2.0851
13729TIP3    H262679   4.297   2.546   6.533 -1.0920 -1.4705 -2.4210
13730TIP3   OH262680   6.252   6.099   2.842  0.1013  0.1607  0.2060
13730TIP3    H162681   6.313   6.172   2.846  0.0915  0.1322  1.1456
13730TIP3    H262682   6.299   6.030   2.796  0.5479  0.3505  0.3776
13731TIP3   OH262683   3.357   6.735   0.789  0.0943 -0.2048 -0.1635
13731TIP3    H162684   3.441   6.756   0.749  0.4181  0.9876  1.0533
13731TIP3    H262685   3.380   6.700   0.876 -0.6263 -1.2373 -0.3767
13732TIP3   OH262686   0.494   0.055  12.896  0.6867  0.7725 -0.4563
13732TIP3    H162687   0.435   0.098  12.834 -1.7474 -1.0959  0.4173
13732TIP3    H262688   0.515  -0.029  12.855  1.6017  0.8156 -0.1048
13733TIP3   OH262689   2.368   4.345   0.870 -0.0114 -0.1954  0.3753
13733TIP3    H162690   2.443   4.398   0.896 -0.8859  0.3108  2.0227
13733TIP3    H262691   2.298   4.409   0.852 -0.8652 -0.7259  1.6622
13734TIP3   OH262692   3.687   4.761   0.544 -0.0960  0.1787 -0.5667
13734TIP3    H162693   3.598   4.759   0.581  0.3343 -0.6169  0.4848
13734TIP3    H262694   3.733   4.690   0.590  0.1907 -1.6116 -3.3797
13735TIP3   OH262695   4.810   2.689   2.911  0.2832 -0.0195 -0.7021
13735TIP3    H162696   4.792   2.699   3.004 -2.1956  1.8724 -1.2845
13735TIP3    H262697   4.742   2.630   2.879 -1.5320  2.5557 -1.9302
13736TIP3   OH262698   5.310   3.040   2.835 -0.0816 -0.5821  0.5625
13736TIP3    H162699   5.364   2.964   2.858  0.6004 -0.6125 -1.0130
13736TIP3    H262700   5.235   3.036   2.895  0.8895 -1.4136  1.7655
13737TIP3   OH262701   6.669   0.676   6.908  0.3180  0.4116 -0.1345
13737TIP3    H162702   6.716   0.750   6.869  2.4831 -0.2461  1.0617
13737TIP3    H262703   6.697   0.600   6.856 -1.1190  0.2668 -0.7329
13738TIP3   OH262704   3.172   0.764  13.898 -0.1246 -0.9534  0.9388
13738TIP3    H162705   3.229   0.764  13.976  0.6906  0.2019  0.3682
13738TIP3    H262706   3.208   0.832  13.842 -0.3776 -2.1217 -0.7132
13739TIP3   OH262707   5.281   1.579   5.915  0.8359 -0.2320  0.2777
13739TIP3    H162708   5.198   1.608   5.955 -0.0750 -0.5950 -1.2602
13739TIP3    H262709   5.326   1.660   5.893 -0.0772  0.0190 -0.7547
13740TIP3   OH262710   4.712   3.615  14.052  0.3500  0.1288 -0.0629
13740TIP3    H162711   4.640   3.664  14.012  2.2307  1.1928 -2.3514
13740TIP3    H262712   4.725   3.657  14.137  0.4086  2.1519 -1.0094
13741TIP3   OH262713   3.637   3.472  13.958  0.4156  0.3203 -0.0907
13741TIP3    H162714   3.680   3.421  13.889 -0.3813  1.5007 -1.5216
13741TIP3    H262715   3.548   3.485  13.926 -0.5124 -0.5274  1.9731
13742TIP3   OH262716   0.681   1.793   4.880 -0.4108 -0.4171 -0.1744
13742TIP3    H162717   0.638   1.843   4.949  0.1564 -1.6536  1.1139
13742TIP3    H262718   0.771   1.784   4.909  0.6258  1.4886 -2.4911
13743TIP3   OH262719   0.091   2.599   1.453  1.0639 -0.2612  0.0051
13743TIP3    H162720   0.178   2.567   1.479  0.2163 -0.7561  2.4971
13743TIP3    H262721   0.085   2.686   1.493 -0.2492 -0.9913  1.5020
13744TIP3   OH262722   3.981   1.820   6.210 -0.7730  0.4391 -0.0887
13744TIP3    H162723   4.043   1.803   6.281  0.6046  0.4178 -1.2339
13744TIP3    H262724   3.972   1.915   6.208  1.3147  0.6909 -1.5134
13745TIP3   OH262725   4.280   3.588   1.067  0.4747 -0.0826  0.4821
13745TIP3    H162726   4.272   3.649   1.139  2.4924 -0.0848  0.7663
13745TIP3    H262727   4.306   3.642   0.992 -0.3405 -0.2598  0.0523
13746TIP3   OH262728   5.589   2.556  11.374 -0.0074  0.3820  0.1022
13746TIP3    H162729   5.500   2.537  11.403 -1.1399  1.7269 -2.1648
13746TIP3    H262730   5.593   2.651  11.367  1.5591  0.3400 -0.0026
13747TIP3   OH262731   2.334   5.427  15.918  0.2492  0.5063  0.0272
13747TIP3    H162732   2.349   5.352  15.860 -0.3064  0.9861 -0.7679
13747TIP3    H262733   2.397   5.492  15.888 -1.8259  1.7602 -1.9211
13748TIP3   OH262734   0.753   3.029   6.332  0.5482  0.0230  0.5498
13748TIP3    H162735   0.673   3.045   6.383  1.5694  0.2014  2.1522
13748TIP3    H262736   0.749   2.935   6.312 -1.0095  0.3904 -1.1113
13749TIP3   OH262737   1.202   1.975   2.659 -0.1411  0.0462  0.5721
13749TIP3    H162738   1.179   1.921   2.735  1.0581  1.6356  2.1650
13749TIP3    H262739   1.285   1.937   2.628 -0.6798 -0.6634 -0.0465
13750TIP3   OH262740   5.167   3.302   0.380 -0.3603 -0.7174 -0.0219
13750TIP3    H162741   5.206   3.225   0.339 -0.3711 -0.8179  0.1553
13750TIP3    H262742   5.131   3.352   0.307 -0.6768 -1.0638 -0.1064
13751TIP3   OH262743   4.283   1.120   3.426  0.2775 -0.7314  0.0745
13751TIP3    H162744   4.307   1.170   3.504 -0.2855 -0.8869  0.3503
13751TIP3    H262745   4.334   1.039   3.434 -0.7584 -1.3269  0.9776
13752TIP3   OH262746   1.753   2.159  15.210  0.5489 -0.6856 -0.0091
13752TIP3    H162747   1.681   2.095  15.208  1.1495 -1.3610 -0.5351
13752TIP3    H262748   1.832   2.106  15.200  1.1078  0.0814  0.2544
13753TIP3   OH262749   4.473   3.440  16.931  0.2064  0.5328  0.1577
13753TIP3    H162750   4.413   3.365  16.928 -1.9771  2.2054 -1.7930
13753TIP3    H262751   4.539   3.420  16.866  1.1074 -0.7371  1.3926
13754TIP3   OH262752   3.094   4.547   4.440 -0.0974  0.8542  0.6027
13754TIP3    H162753   3.164   4.538   4.504 -2.0244  1.5630  2.9860
13754TIP3    H262754   3.036   4.473   4.458 -0.8097  1.2090 -0.1630
13755TIP3   OH262755   6.584   4.550  14.389 -0.5166  0.1217 -0.4983
13755TIP3    H162756   6.571   4.514  14.301  1.7216  2.6581 -2.0504
13755TIP3    H262757   6.516   4.618  14.397  0.0473  0.7482 -0.8577
13756TIP3   OH262758   5.952   4.761  11.627 -0.3580 -0.1149  0.0909
13756TIP3    H162759   6.026   4.705  11.605  0.7078  1.0309  0.6323
13756TIP3    H262760   5.941   4.818  11.551 -1.1528 -0.7416 -0.2775
13757TIP3   OH262761   5.558   1.962   6.471  0.3372 -0.0947 -0.1635
13757TIP3    H162762   5.572   1.951   6.565  1.4802 -0.3319 -0.3413
13757TIP3    H262763   5.536   2.054   6.460 -3.3458 -0.7264  0.6942
13758TIP3   OH262764   0.003   1.789  11.016  0.1766 -0.2709  0.5054
13758TIP3    H162765  -0.008   1.884  11.019  0.5942 -0.2198  0.5690
13758TIP3    H262766  -0.086   1.754  11.010 -0.0692  0.0818  1.7341
13759TIP3   OH262767   5.773   5.829  12.347 -0.2137  0.0904  0.5235
13759TIP3    H162768   5.829   5.755  12.322 -0.5877  0.2825 -0.9915
13759TIP3    H262769   5.728   5.800  12.426 -0.8085 -1.5679 -0.3794
13760TIP3   OH262770   6.504   0.402  15.454 -0.4631  0.9278  0.5145
13760TIP3    H162771   6.443   0.471  15.427 -0.8088  0.3334 -0.2754
13760TIP3    H262772   6.590   0.436  15.431 -0.7149  0.6401 -0.9719
13761TIP3   OH262773   0.487   1.062   6.151 -0.2154  0.5885  0.0624
13761TIP3    H162774   0.454   1.029   6.067 -1.8568 -0.4598  1.0689
13761TIP3    H262775   0.408   1.080   6.202  0.7081 -0.9840  2.1952
13762TIP3   OH262776   0.725   3.044   2.975  0.0201  0.0954 -0.0507
13762TIP3    H162777   0.661   3.099   3.020  0.3511 -0.3012  0.9219
13762TIP3    H262778   0.810   3.074   3.007  0.1673 -2.0596  1.8609
13763TIP3   OH262779   4.075   2.765   4.548  0.3843 -0.4005 -0.1816
13763TIP3    H162780   4.154   2.780   4.600  0.2172 -1.3964  0.3872
13763TIP3    H262781   4.091   2.682   4.503 -0.3492 -0.6280 -0.0356
13764TIP3   OH262782   4.627   5.177  15.456 -0.0290  0.5569  0.2628
13764TIP3    H162783   4.676   5.141  15.530  0.6496  2.0369  0.5820
13764TIP3    H262784   4.615   5.270  15.479 -2.5498  0.3610 -0.0456
13765TIP3   OH262785   0.962   5.236  12.213 -0.2251 -0.8076  0.4051
13765TIP3    H162786   1.013   5.314  12.189  2.0410 -2.9402 -2.4592
13765TIP3    H262787   1.024   5.181  12.261 -1.4759 -1.3208  1.4827
13766TIP3   OH262788   6.152   0.587   5.921  0.3586  0.9521 -0.1210
13766TIP3    H162789   6.079   0.625   5.970  0.5271  0.6387  0.3851
13766TIP3    H262790   6.122   0.499   5.897  0.3306  1.0540 -0.4524
13767TIP3   OH262791   4.234   5.286  12.114 -0.5238  0.2268 -0.3830
13767TIP3    H162792   4.307   5.323  12.065 -0.8263  1.3642 -0.0117
13767TIP3    H262793   4.156   5.322  12.071 -0.7982  0.8928  0.6481
13768TIP3   OH262794   0.326   6.203  15.585 -1.3002  0.2724  0.5557
13768TIP3    H162795   0.317   6.146  15.661 -0.5367  1.3189  1.4683
13768TIP3    H262796   0.277   6.282  15.608 -0.2622  0.9917  0.3970
13769TIP3   OH262797   0.732   1.581   6.692 -0.0457 -0.0563 -0.1016
13769TIP3    H162798   0.769   1.650   6.638  3.2672 -1.5894 -0.0394
13769TIP3    H262799   0.659   1.546   6.641 -0.7916  2.3773 -0.8109
13770TIP3   OH262800   0.063   4.382  14.271 -0.1914  0.4162  0.3109
13770TIP3    H162801   0.074   4.441  14.346 -2.7299  0.2648  0.9079
13770TIP3    H262802  -0.010   4.419  14.222 -1.0694 -1.5413  0.0335
13771TIP3   OH262803   5.864   5.103  14.104  0.1249  0.0883  0.5361
13771TIP3    H162804   5.842   5.050  14.180  1.9095 -0.4621  0.7006
13771TIP3    H262805   5.921   5.048  14.051 -1.0317  0.4796 -1.2063
13772TIP3   OH262806   2.213   6.449   2.801 -0.4051 -0.3150  0.1153
13772TIP3    H162807   2.181   6.367   2.765 -1.0468  0.3108 -0.7866
13772TIP3    H262808   2.148   6.514   2.775 -0.0813  0.4264  1.1000
13773TIP3   OH262809   1.306   2.989  16.532 -0.7690  0.4078 -0.1891
13773TIP3    H162810   1.308   2.920  16.599 -0.8026  0.5000 -0.0926
13773TIP3    H262811   1.247   3.055  16.569 -0.6820  0.5192 -0.2522
13774TIP3   OH262812   1.229   4.679  16.734  0.5270  0.5681 -0.0780
13774TIP3    H162813   1.295   4.702  16.670  0.9672  1.9066  0.7961
13774TIP3    H262814   1.265   4.709  16.818  0.4063 -1.9708  0.9792
13775TIP3   OH262815   3.873   5.817  15.881 -0.6246  0.1538 -0.2968
13775TIP3    H162816   3.839   5.825  15.792  1.2207  0.7272 -1.0044
13775TIP3    H262817   3.916   5.901  15.897  0.4756 -0.5432  0.5039
13776TIP3   OH262818   6.297   5.896  13.760 -0.4480  0.0490  0.4449
13776TIP3    H162819   6.346   5.881  13.679  0.0210 -0.1270  0.7563
13776TIP3    H262820   6.217   5.939  13.732  0.2824  1.1624  0.0012
13777TIP3   OH262821   6.367   2.089  15.935 -0.0697 -0.6776 -0.0608
13777TIP3    H162822   6.354   2.141  16.014  2.6091 -0.8760  0.5789
13777TIP3    H262823   6.396   2.004  15.967  0.7753 -0.8510 -1.2460
13778TIP3   OH262824   4.601   4.617  12.026  0.0055 -0.1894 -0.5354
13778TIP3    H162825   4.589   4.681  12.096  0.2385  0.3706 -1.0018
13778TIP3    H262826   4.567   4.535  12.063 -0.7553  0.3013 -0.1117
13779TIP3   OH262827   1.495   6.095   2.300  0.0816 -0.2737  0.2285
13779TIP3    H162828   1.583   6.128   2.317 -0.1945 -0.0103  1.2068
13779TIP3    H262829   1.450   6.168   2.258 -0.0385  0.0460  0.8915
13780TIP3   OH262830   3.106   5.302  10.544  0.1771  0.4092  0.2047
13780TIP3    H162831   3.115   5.276  10.452 -0.7404 -3.0310  0.9245
13780TIP3    H262832   3.194   5.324  10.572  1.1900 -2.1773 -0.6362
13781TIP3   OH262833   5.982   3.217  17.026 -0.1172  0.0088 -0.7600
13781TIP3    H162834   6.010   3.230  17.117  1.3693 -1.1465 -1.0137
13781TIP3    H262835   5.924   3.290  17.008  0.1706  0.6791  0.8848
13782TIP3   OH262836   6.388   0.210  13.716 -0.2767  0.4736 -0.1470
13782TIP3    H162837   6.405   0.270  13.789 -0.9037 -0.0895  0.4701
13782TIP3    H262838   6.337   0.262  13.654 -3.0620 -0.0758  1.5018
13783TIP3   OH262839   4.467   1.326  16.830 -0.1698  0.1285 -0.3290
13783TIP3    H162840   4.499   1.257  16.888  1.0129  2.4447  1.9834
13783TIP3    H262841   4.383   1.353  16.868 -0.4343  0.2489 -0.9796
13784TIP3   OH262842   4.563   5.334   0.695  0.1282 -0.2404  0.6405
13784TIP3    H162843   4.515   5.251   0.695  1.7621 -1.2603 -0.9802
13784TIP3    H262844   4.501   5.397   0.731 -1.9341 -1.7394 -0.0828
13785TIP3   OH262845   4.090   0.088   3.728  0.1759  0.1114  0.0691
13785TIP3    H162846   4.000   0.060   3.745  0.2524  0.7258  1.7215
13785TIP3    H262847   4.131   0.013   3.685 -0.9804 -0.3771 -0.2049
13786TIP3   OH262848   3.256   0.697  13.251 -0.2682  0.9659 -0.4543
13786TIP3    H162849   3.272   0.619  13.197 -1.2616  0.4278 -0.0099
13786TIP3    H262850   3.324   0.694  13.318 -0.5622  0.2077 -0.1698
13787TIP3   OH262851   4.511   5.119  11.371  0.1657  0.5116 -0.0986
13787TIP3    H162852   4.437   5.122  11.310  1.2552 -2.7934 -1.8321
13787TIP3    H262853   4.471   5.096  11.455 -0.9448  0.6260 -0.5740
13788TIP3   OH262854   0.772   6.826   4.089 -0.2871 -0.4953  0.2642
13788TIP3    H162855   0.733   6.760   4.147  2.0163 -2.1340  0.0993
13788TIP3    H262856   0.841   6.866   4.142  0.1348 -0.1693 -0.5262
13789TIP3   OH262857   2.470   2.534   3.134 -0.1596  0.1936  0.0190
13789TIP3    H162858   2.501   2.612   3.180  0.9843  0.2881 -0.8717
13789TIP3    H262859   2.520   2.462   3.172  0.6814  0.2528 -0.9493
13790TIP3   OH262860   3.257   4.453  15.913  0.0596 -0.5048 -0.4352
13790TIP3    H162861   3.352   4.458  15.906  0.1324  0.8400  1.0631
13790TIP3    H262862   3.226   4.479  15.826  1.0322 -1.0979 -0.9815
13791TIP3   OH262863   0.774   3.686  11.538  0.0149  0.4981  0.4871
13791TIP3    H162864   0.768   3.712  11.446  1.5929  0.4233  0.3189
13791TIP3    H262865   0.768   3.768  11.586 -1.4352  0.4777  0.3748
13792TIP3   OH262866   5.613   2.362  16.249 -0.1714  0.0980  0.7175
13792TIP3    H162867   5.616   2.435  16.187  0.0593 -2.0930 -2.1008
13792TIP3    H262868   5.522   2.360  16.279 -0.4154  0.9807  0.0916
13793TIP3   OH262869   1.498   4.952  16.788 -0.8438 -0.7807  0.3723
13793TIP3    H162870   1.516   4.858  16.783 -2.4597 -1.1132  0.1701
13793TIP3    H262871   1.427   4.960  16.851 -0.8720  0.2829  0.2280
13794TIP3   OH262872   4.350   4.046  14.648  0.2852  0.6086  0.0624
13794TIP3    H162873   4.295   4.097  14.589 -0.4502 -1.2012 -0.9058
13794TIP3    H262874   4.416   4.007  14.591 -0.3310 -1.0268  0.4003
13795TIP3   OH262875   1.014   6.407  11.285 -0.1521  0.3649  0.0533
13795TIP3    H162876   1.092   6.383  11.335 -0.7223  0.3159  0.9564
13795TIP3    H262877   0.971   6.323  11.267  0.2013  0.3582 -0.7881
13796TIP3   OH262878   0.165   5.055  12.182  0.6223 -1.1440 -0.2006
13796TIP3    H162879   0.230   5.091  12.121  0.7757  0.8674  1.0658
13796TIP3    H262880   0.195   5.082  12.268 -1.0865 -1.4971  0.5404
13797TIP3   OH262881   4.337   3.700  14.151 -0.5023  0.5088 -0.2418
13797TIP3    H162882   4.310   3.724  14.063  0.5305 -1.6904 -1.2158
13797TIP3    H262883   4.430   3.722  14.155 -1.0030  2.7612  1.1707
13798TIP3   OH262884   6.449   2.786   0.342 -0.3144 -0.0880  0.2465
13798TIP3    H162885   6.363   2.824   0.357 -0.6731 -0.3057 -1.1236
13798TIP3    H262886   6.477   2.755   0.428 -1.8989 -0.6452  0.5916
13799TIP3   OH262887   3.126   5.374  13.667 -0.1821  0.0026  0.2411
13799TIP3    H162888   3.131   5.371  13.762 -0.6316 -1.4103  0.2395
13799TIP3    H262889   3.059   5.440  13.648 -0.0649  0.3124  0.8899
13800TIP3   OH262890   5.497   6.689  15.305 -0.1120  0.2297  0.2309
13800TIP3    H162891   5.413   6.680  15.260 -0.9334  1.2275  1.4694
13800TIP3    H262892   5.532   6.600  15.308 -1.7655 -0.4513  0.8255
13801TIP3   OH262893   1.969   0.082   1.045  0.0924  0.0400  0.3934
13801TIP3    H162894   1.957   0.144   0.973  0.4751 -1.0955 -0.7046
13801TIP3    H262895   1.976  -0.003   1.001 -1.0270 -0.8659  1.8856
13802TIP3   OH262896   5.438   4.230  11.500 -0.1278 -0.1473 -0.3507
13802TIP3    H162897   5.362   4.232  11.442 -0.6019  0.0260  0.2694
13802TIP3    H262898   5.428   4.308  11.554  1.2745  0.7041 -1.2447
13803TIP3   OH262899   1.123   4.665   3.104 -0.0157  0.1401 -0.2118
13803TIP3    H162900   1.148   4.647   3.013  0.0364 -1.6139  0.0974
13803TIP3    H262901   1.198   4.635   3.155 -0.7955 -0.6904  0.4859
13804TIP3   OH262902   3.873   5.456   1.769 -0.0920  0.1555 -0.0931
13804TIP3    H162903   3.887   5.366   1.740  0.3428  0.5860 -1.2747
13804TIP3    H262904   3.959   5.498   1.759 -0.1830  0.5944  0.8595
13805TIP3   OH262905   5.192   1.813  13.243  0.0621  0.1258  0.5457
13805TIP3    H162906   5.197   1.824  13.148  0.6297 -0.4716  0.5010
13805TIP3    H262907   5.116   1.866  13.269  0.6491  1.3228 -0.0780
13806TIP3   OH262908   5.188   0.181   2.979 -0.1953  0.1372  0.2376
13806TIP3    H162909   5.154   0.261   2.938  0.7261 -0.3417 -1.5261
13806TIP3    H262910   5.227   0.131   2.908 -1.7059 -2.4443  1.0698
13807TIP3   OH262911   1.830   0.354  14.402 -0.9486  0.2548 -0.2631
13807TIP3    H162912   1.757   0.412  14.378 -0.9934  0.0499 -0.6251
13807TIP3    H262913   1.820   0.278  14.346  0.0981  0.6404 -0.9959
13808TIP3   OH262914   1.842   6.068  13.276 -0.2534  0.5432 -0.0251
13808TIP3    H162915   1.822   5.978  13.253 -1.2682  0.4447  1.1428
13808TIP3    H262916   1.877   6.063  13.365 -1.3958  1.3845  0.4999
13809TIP3   OH262917   4.462   3.069   6.287  0.7092  0.3691  0.2274
13809TIP3    H162918   4.437   2.977   6.296  2.1030 -0.4313 -2.8497
13809TIP3    H262919   4.398   3.105   6.225  1.9092  0.6005 -0.9339
13810TIP3   OH262920   2.451   5.803  13.838 -0.1228 -0.1390  0.0084
13810TIP3    H162921   2.425   5.751  13.762 -0.4012 -0.1278  0.0944
13810TIP3    H262922   2.397   5.882  13.833  1.3312  0.8469 -0.9416
13811TIP3   OH262923   5.171   2.783   6.008  0.0345 -0.5393 -0.0551
13811TIP3    H162924   5.085   2.769   6.047  0.8272 -1.4083  1.4825
13811TIP3    H262925   5.226   2.813   6.081  0.6137  1.9265 -1.3888
13812TIP3   OH262926   1.694   1.158  11.026  0.0532  0.0837 -0.1453
13812TIP3    H162927   1.757   1.230  11.022 -1.3410  1.2798 -1.8419
13812TIP3    H262928   1.703   1.124  11.115  1.8428  1.3325  0.2073
13813TIP3   OH262929   5.054   3.984  12.969 -0.0397  0.2545  0.8763
13813TIP3    H162930   5.123   3.924  12.941 -0.5871 -0.9014  1.8738
13813TIP3    H262931   5.035   3.958  13.060 -2.4042 -0.0844  0.3604
13814TIP3   OH262932   4.513   0.390   4.341 -0.0109 -0.5881 -0.0161
13814TIP3    H162933   4.502   0.386   4.436 -1.6053  0.6600 -0.0965
13814TIP3    H262934   4.550   0.477   4.325 -0.6062 -0.4299 -0.5833
13815TIP3   OH262935   1.226   5.936  14.614 -0.1027 -0.1109 -0.0311
13815TIP3    H162936   1.321   5.953  14.610 -0.2615  1.2742  1.1599
13815TIP3    H262937   1.219   5.846  14.644  0.8169 -0.9206 -2.0860
13816TIP3   OH262938   4.506   1.774   1.170  0.0081  0.6663  0.1759
13816TIP3    H162939   4.447   1.803   1.240 -0.9768  0.6123 -0.6053
13816TIP3    H262940   4.537   1.688   1.198  1.7485  1.7377  1.7918
13817TIP3   OH262941   6.482   5.531   3.537 -0.2502  0.1829  0.3485
13817TIP3    H162942   6.509   5.598   3.600  2.4245 -1.1253  0.7678
13817TIP3    H262943   6.470   5.578   3.455  2.3173  1.1800  0.4436
13818TIP3   OH262944   6.419   4.676   6.012 -0.3393 -0.3759 -0.0221
13818TIP3    H162945   6.425   4.766   5.979  1.5655  0.1111  1.4681
13818TIP3    H262946   6.335   4.644   5.979 -0.7635  1.7105 -1.1519
13819TIP3   OH262947   2.410   3.338  15.723 -0.2795  0.9288 -0.5003
13819TIP3    H162948   2.354   3.414  15.708  1.4624  2.4834  0.4562
13819TIP3    H262949   2.379   3.301  15.806  0.7605  2.4797  0.6364
13820TIP3   OH262950   4.765   1.948   2.417  0.1962 -0.2032 -0.5443
13820TIP3    H162951   4.821   1.916   2.346  0.0775 -1.5236 -0.0615
13820TIP3    H262952   4.826   1.977   2.485  0.2980 -0.0421 -0.7024
13821TIP3   OH262953   3.256   5.475   1.295 -0.1038  0.6152 -0.0593
13821TIP3    H162954   3.163   5.484   1.275 -0.5996 -0.6132  1.4569
13821TIP3    H262955   3.266   5.384   1.322  2.0782  0.0026 -2.5529
13822TIP3   OH262956   1.548   3.595  16.150 -0.3656 -0.3334  0.1737
13822TIP3    H162957   1.480   3.530  16.133 -0.3065 -0.4078  0.2191
13822TIP3    H262958   1.530   3.666  16.089 -1.2886  0.2606  1.1011
13823TIP3   OH262959   4.908   4.972   5.399 -0.1317  0.0043  0.1204
13823TIP3    H162960   4.831   5.011   5.441  0.2500 -0.1913  1.0314
13823TIP3    H262961   4.982   5.017   5.437  0.2828 -1.0725  0.6428
13824TIP3   OH262962   4.678   3.423   0.466 -0.5381  0.0722 -0.5985
13824TIP3    H162963   4.613   3.444   0.533  0.7240  1.1880  0.3294
13824TIP3    H262964   4.658   3.483   0.393  1.1887  2.5769  0.8489
13825TIP3   OH262965   5.263   6.480   0.257  0.7525 -0.4360  0.6821
13825TIP3    H162966   5.176   6.514   0.238  1.6580  0.8080 -1.8434
13825TIP3    H262967   5.295   6.449   0.172  2.2763 -2.0976  1.7930
13826TIP3   OH262968   2.757   2.086   0.595 -0.2493  0.0368  0.3365
13826TIP3    H162969   2.737   2.142   0.670  0.3320  0.0369  0.5011
13826TIP3    H262970   2.844   2.050   0.615  1.3606  2.4290 -1.7202
13827TIP3   OH262971   1.671   6.561   5.255 -0.1970  0.1476  0.3659
13827TIP3    H162972   1.579   6.561   5.229  0.0083 -0.7766 -0.4167
13827TIP3    H262973   1.714   6.507   5.189  0.8414  0.2182  0.9703
13828TIP3   OH262974   3.706   5.291  15.270 -0.1894  0.7058  0.1550
13828TIP3    H162975   3.652   5.349  15.324 -1.0592 -0.7244  0.8808
13828TIP3    H262976   3.643   5.232  15.228  0.7236 -0.1990  0.0283
13829TIP3   OH262977   4.582   5.507  15.877 -0.0456 -0.5177  0.3161
13829TIP3    H162978   4.614   5.578  15.820 -1.3473  1.3519  1.7651
13829TIP3    H262979   4.654   5.444  15.879  2.0508  1.7158  0.4975
13830TIP3   OH262980   6.224   5.632  11.417  0.2092  0.0384  0.0756
13830TIP3    H162981   6.228   5.719  11.456 -1.4168  0.3540 -0.4085
13830TIP3    H262982   6.259   5.644  11.329 -0.4096  0.2946 -0.1369
13831TIP3   OH262983   6.664   2.097   6.905  0.3338  0.2476  0.8723
13831TIP3    H162984   6.706   2.042   6.839  0.0117 -0.7350  1.4649
13831TIP3    H262985   6.579   2.055   6.920  1.4085 -1.0701  3.7926
13832TIP3   OH262986   4.072   4.347  16.111 -0.4353  0.1780  0.5218
13832TIP3    H162987   3.982   4.315  16.107  0.1645 -1.6595  0.7405
13832TIP3    H262988   4.087   4.365  16.204 -0.8683  1.4603  0.3619
13833TIP3   OH262989   6.204   4.907  16.908  0.4863 -0.3545  0.2926
13833TIP3    H162990   6.228   4.888  16.817  0.2358 -0.1713  0.1876
13833TIP3    H262991   6.259   4.848  16.960 -0.5237 -1.6426 -0.0424
13834TIP3   OH262992   1.257   3.268  13.819  0.4705 -0.0052 -0.4972
13834TIP3    H162993   1.221   3.289  13.733  0.3993  2.6772  0.0897
13834TIP3    H262994   1.181   3.241  13.871  0.2227  0.1320 -0.7842
13835TIP3   OH262995   5.523   2.080  12.754  0.8520 -0.1871 -0.3272
13835TIP3    H162996   5.515   2.062  12.661 -1.3120 -0.0038 -0.2293
13835TIP3    H262997   5.462   2.019  12.796 -2.2263  3.0903  0.4666
13836TIP3   OH262998   0.558   5.501  16.710  0.0471  0.8004 -0.2715
13836TIP3    H162999   0.571   5.417  16.755  1.9021  0.7522 -0.8075
13836TIP3    H263000   0.473   5.531  16.741 -0.3605 -0.9435  0.4722
13837TIP3   OH263001   4.855   5.354  14.484  0.0349 -0.1650  0.0312
13837TIP3    H163002   4.925   5.313  14.434  1.9430  1.3266  1.3419
13837TIP3    H263003   4.808   5.407  14.420 -0.6199 -1.9773 -1.0731
13838TIP3   OH263004   0.469   4.823   1.815  0.0272 -0.2693 -0.0088
13838TIP3    H163005   0.475   4.802   1.908 -1.8417 -0.6360  0.0719
13838TIP3    H263006   0.456   4.738   1.773  1.1708 -0.1420 -0.6599
13839TIP3   OH263007   6.769   4.046  15.835  0.2190  0.1381  0.4213
13839TIP3    H163008   6.862   4.063  15.847  0.2841  0.1475 -0.0799
13839TIP3    H263009   6.730   4.133  15.827  0.0299  0.1720  1.5779
13840TIP3   OH263010   4.429   2.053  15.394 -0.5883 -0.8179 -0.1416
13840TIP3    H163011   4.497   1.994  15.427 -0.4107  1.1044  3.4582
13840TIP3    H263012   4.415   2.025  15.304  3.2021 -2.8926 -0.3093
13841TIP3   OH263013   5.507   4.007  15.270 -0.2886  0.5257  0.8451
13841TIP3    H163014   5.479   3.923  15.306 -0.9001  0.4630  0.2372
13841TIP3    H263015   5.532   4.059  15.346  0.7620 -0.4371  1.1900
13842TIP3   OH263016   1.209   5.817  15.840  0.3884  0.4614 -0.4065
13842TIP3    H163017   1.297   5.778  15.838 -0.1432 -0.8514  0.6463
13842TIP3    H263018   1.164   5.772  15.911 -0.5017  2.5823  0.4385
13843TIP3   OH263019   0.998   2.165  14.175  0.1358 -0.1483  0.5277
13843TIP3    H163020   0.954   2.243  14.209 -1.8929 -0.3262 -1.4228
13843TIP3    H263021   0.963   2.093  14.228 -0.8191 -0.1073 -0.0232
13844TIP3   OH263022   6.006   1.517  16.213 -0.6510  0.2341 -0.5834
13844TIP3    H163023   6.018   1.425  16.189  2.1656  0.2680  0.3292
13844TIP3    H263024   5.912   1.525  16.229 -0.6989 -3.2755  2.3069
13845TIP3   OH263025   3.741   0.546   4.535 -0.1881  0.4382 -0.5178
13845TIP3    H163026   3.758   0.588   4.451  1.4675 -0.2928 -0.6000
13845TIP3    H263027   3.825   0.552   4.581 -0.4845 -0.9983  0.2562
13846TIP3   OH263028   6.003   0.078  10.768 -0.1615  0.1841 -0.2861
13846TIP3    H163029   5.925   0.087  10.822  1.2859  1.7360  1.7046
13846TIP3    H263030   5.978   0.114  10.682 -1.5785  0.7960  0.3621
13847TIP3   OH263031   5.691   6.084  15.358 -0.1216 -0.2208 -0.1348
13847TIP3    H163032   5.643   6.084  15.440  0.9974  2.3425  0.6164
13847TIP3    H263033   5.641   6.143  15.301  0.4032 -0.0850 -0.4606
13848TIP3   OH263034   1.633   5.837  13.386 -0.6898 -0.0225  0.2975
13848TIP3    H163035   1.605   5.755  13.346 -0.3158  0.1025 -0.2225
13848TIP3    H263036   1.710   5.813  13.438 -1.6807 -0.3568  1.6877
13849TIP3   OH263037   1.932   1.741  13.142  0.5851 -0.0246 -0.2352
13849TIP3    H163038   1.920   1.740  13.237 -2.7084 -1.0015 -0.5228
13849TIP3    H263039   1.952   1.832  13.120 -2.3590  1.0855  1.1497
13850TIP3   OH263040   2.859   5.969   5.443  0.2912  0.4577 -0.1924
13850TIP3    H163041   2.903   5.886   5.423  1.7019  1.1082  0.0766
13850TIP3    H263042   2.818   5.955   5.528  1.0862  0.2370  0.1609
13851TIP3   OH263043   4.224   5.191   0.850 -0.0794 -0.2975 -0.3698
13851TIP3    H163044   4.241   5.112   0.901  0.7921  0.8601  1.2069
13851TIP3    H263045   4.214   5.260   0.914  0.2526  1.0862 -1.7350
13852TIP3   OH263046   1.406   4.103   3.264 -0.4014  0.2105  0.4506
13852TIP3    H163047   1.488   4.055   3.253 -0.2265  0.5296  0.3308
13852TIP3    H263048   1.338   4.038   3.251 -0.1940  0.3046 -1.3238
13853TIP3   OH263049   6.227   0.648  14.279  0.0340  0.2721  0.0322
13853TIP3    H163050   6.155   0.585  14.281 -0.9285  1.3648  1.4750
13853TIP3    H263051   6.301   0.599  14.241 -1.1584 -1.1702 -0.5313
13854TIP3   OH263052   3.613   3.009   0.487  0.9022  0.3427 -0.6398
13854TIP3    H163053   3.624   3.064   0.564  0.0323 -0.6997  0.2648
13854TIP3    H263054   3.569   3.066   0.424 -1.0486  0.4095  0.6911
13855TIP3   OH263055   1.187   6.002   4.238  0.1387  0.0355  0.1290
13855TIP3    H163056   1.174   6.071   4.173  2.4133  0.1143 -0.3080
13855TIP3    H263057   1.175   6.045   4.322 -2.4687  0.0157 -0.1485
13856TIP3   OH263058   6.765   1.688  16.416  0.3932 -0.5922  0.6047
13856TIP3    H163059   6.740   1.598  16.397  0.0428 -0.1312 -1.3429
13856TIP3    H263060   6.696   1.721  16.473 -0.5451 -0.9691 -0.2899
13857TIP3   OH263061   4.227   4.226  11.394 -0.2719 -0.1536  0.1157
13857TIP3    H163062   4.201   4.252  11.306 -2.0959 -0.8536  0.4048
13857TIP3    H263063   4.262   4.306  11.434  0.2300  0.2527 -1.0988
13858TIP3   OH263064   4.658   6.416   4.992 -0.1303  0.2516  0.5821
13858TIP3    H163065   4.679   6.368   4.912  0.9585  0.0037  0.9951
13858TIP3    H263066   4.570   6.452   4.977 -1.4400 -2.6211  0.5660
13859TIP3   OH263067   4.144   5.326   0.399 -0.9157  0.3747 -0.3993
13859TIP3    H163068   4.055   5.358   0.418 -0.5609  0.6439  0.9123
13859TIP3    H263069   4.130   5.236   0.368 -1.6185  0.1168  0.5775
13860TIP3   OH263070   4.938   0.102   5.220  0.4709  0.4298 -0.1376
13860TIP3    H163071   4.859   0.120   5.271  0.0291  0.8161 -0.9280
13860TIP3    H263072   4.946   0.007   5.220  0.5932  0.4296  0.8012
13861TIP3   OH263073   3.408   1.073  16.668 -0.5533 -0.7584  0.0851
13861TIP3    H163074   3.335   1.119  16.626 -0.4198 -0.2351  0.4153
13861TIP3    H263075   3.483   1.131  16.655 -0.5923 -0.3706  1.4082
13862TIP3   OH263076   4.491   3.555   3.954  0.1750  0.5857 -0.3527
13862TIP3    H163077   4.495   3.461   3.974  2.6339  0.4535 -1.2070
13862TIP3    H263078   4.577   3.588   3.976  0.0900  2.1942 -2.1652
13863TIP3   OH263079   0.837   3.986  15.921 -0.3657  0.5329  0.6033
13863TIP3    H163080   0.802   3.959  16.006 -0.2984  2.5360  1.3062
13863TIP3    H263081   0.931   3.971  15.927 -0.6075 -1.6765 -0.0766
13864TIP3   OH263082   6.570   1.240  12.139 -0.5492  0.3752  0.4214
13864TIP3    H163083   6.592   1.161  12.188 -1.6065 -0.6438 -0.6748
13864TIP3    H263084   6.614   1.311  12.186  0.1185 -0.8105  1.6436
13865TIP3   OH263085   6.481   4.029  12.060 -0.2935  0.3144  0.0252
13865TIP3    H163086   6.503   4.118  12.030  1.3848  0.6901  2.1485
13865TIP3    H263087   6.431   3.992  11.988  1.7622  1.8197 -2.3417
13866TIP3   OH263088   6.313   0.975  16.551 -0.0674  0.1200 -0.0548
13866TIP3    H163089   6.282   1.046  16.608  0.1870  1.3613 -1.3891
13866TIP3    H263090   6.352   1.020  16.476  0.0336 -1.4462 -0.9923
13867TIP3   OH263091   1.154   5.506   4.095  0.4143 -0.0290  0.6703
13867TIP3    H163092   1.125   5.542   4.179 -0.2607  0.2716  0.3134
13867TIP3    H263093   1.127   5.571   4.030 -0.2946 -0.8879  0.0802
13868TIP3   OH263094   0.124   0.888   2.495 -0.6090 -0.1841 -0.1475
13868TIP3    H163095   0.214   0.866   2.517 -0.0661 -1.7166 -3.2950
13868TIP3    H263096   0.078   0.892   2.579  2.4455  1.3097  1.6255
13869TIP3   OH263097   1.403   1.663   4.467  0.0154  0.4285 -0.3114
13869TIP3    H163098   1.370   1.573   4.461 -0.0130  0.4586 -0.5836
13869TIP3    H263099   1.485   1.654   4.515  0.5696  0.1176 -1.2921
13870TIP3   OH263100   1.828   1.563  16.137  0.3192 -0.3506 -0.2735
13870TIP3    H163101   1.804   1.575  16.229 -0.0715 -0.7585 -0.3186
13870TIP3    H263102   1.922   1.547  16.140 -0.0039 -2.5247  0.2858
13871TIP3   OH263103   0.854   3.063   2.139  0.4629  0.3184  0.1634
13871TIP3    H163104   0.854   3.146   2.091 -0.8168  0.7468  0.8474
13871TIP3    H263105   0.847   2.995   2.071  0.1679  0.8402 -0.3398
13872TIP3   OH263106   2.942   6.679  16.165 -0.5170 -0.0815  0.3775
13872TIP3    H163107   2.878   6.686  16.236 -1.6437  2.0014 -0.7260
13872TIP3    H263108   2.998   6.606  16.190 -1.6187 -0.2121  2.7833
13873TIP3   OH263109   4.350   1.601  14.235 -0.0598 -0.2956  0.5106
13873TIP3    H163110   4.341   1.617  14.329 -0.8377 -0.7036  0.5148
13873TIP3    H263111   4.444   1.600  14.220  0.0715  0.0208  1.2432
13874TIP3   OH263112   3.731   1.855   1.063 -0.0685 -0.0630 -0.3790
13874TIP3    H163113   3.716   1.931   1.006  0.6119  1.7582  1.7000
13874TIP3    H263114   3.797   1.885   1.125 -0.3207 -2.1484  0.9970
13875TIP3   OH263115   1.564   3.560   1.286 -0.3910 -0.4293  0.7397
13875TIP3    H163116   1.643   3.551   1.234 -0.6754 -0.7265  0.3592
13875TIP3    H263117   1.596   3.585   1.373  0.3091 -2.9881  1.2994
13876TIP3   OH263118   3.513   4.880  12.139 -0.0891 -0.3300 -0.5738
13876TIP3    H163119   3.447   4.921  12.084  0.3460 -0.1937 -1.0006
13876TIP3    H263120   3.595   4.893  12.092  0.4296  0.5929  0.5456
13877TIP3   OH263121   5.782   6.367   5.005 -0.4897  0.0454  0.2220
13877TIP3    H163122   5.808   6.386   4.915 -3.2022 -0.9907 -0.8833
13877TIP3    H263123   5.746   6.279   5.002 -2.0993  0.5715  1.9680
13878TIP3   OH263124   4.058   1.649   2.573 -0.1342  0.4232  0.1010
13878TIP3    H163125   3.997   1.623   2.504 -0.6647 -1.2574  1.1404
13878TIP3    H263126   4.009   1.637   2.655  1.1269  0.3919  0.8877
13879TIP3   OH263127   6.216   4.654  11.552 -0.0976 -0.3531  0.4463
13879TIP3    H163128   6.241   4.743  11.524 -1.6564 -0.3004 -0.9268
13879TIP3    H263129   6.300   4.607  11.558  0.7333  1.1176  0.9412
13880TIP3   OH263130   5.986   0.075   3.030 -0.2652  0.2541  0.0044
13880TIP3    H163131   5.953  -0.006   2.992  0.3577  0.3892 -0.8619
13880TIP3    H263132   5.919   0.140   3.009 -0.1635  0.2226 -0.4322
13881TIP3   OH263133   4.545   4.080   0.406 -0.3461  0.1656  0.2399
13881TIP3    H163134   4.622   4.127   0.439  0.5744  0.4104 -2.0465
13881TIP3    H263135   4.471   4.125   0.446  0.6186  1.5995  0.5223
13882TIP3   OH263136   2.690   3.526  15.468  0.0896 -0.0250  0.1344
13882TIP3    H163137   2.657   3.554  15.553 -0.0931 -0.8956  0.3646
13882TIP3    H263138   2.770   3.577  15.455 -0.1756  0.5163  0.5738
13883TIP3   OH263139   0.923   6.062  10.689  1.1480  0.1900  0.0573
13883TIP3    H163140   0.899   5.970  10.676  1.5689  0.0704  0.1278
13883TIP3    H263141   0.914   6.077  10.783 -0.7150  0.7295 -0.1550
13884TIP3   OH263142   5.469   0.698  14.381 -0.2989 -0.3307 -0.0483
13884TIP3    H163143   5.550   0.713  14.331  0.6064 -0.9243  1.1895
13884TIP3    H263144   5.419   0.637  14.327  0.2042 -0.1790 -0.7047
13885TIP3   OH263145   1.207   3.659  16.198 -0.4891  0.3930  0.4043
13885TIP3    H163146   1.261   3.608  16.138  1.4684  3.0245 -0.2446
13885TIP3    H263147   1.264   3.676  16.273 -1.1991  1.2736  0.7698
13886TIP3   OH263148   1.527   6.209  12.688  0.0092 -0.5352  0.0425
13886TIP3    H163149   1.475   6.287  12.707  0.0763 -1.0816  2.9136
13886TIP3    H263150   1.474   6.136  12.720  0.6195 -1.5539 -1.1520
13887TIP3   OH263151   4.162   5.427   3.132 -0.1197  0.0886 -0.5176
13887TIP3    H163152   4.104   5.356   3.160 -0.4594  0.3780 -0.4935
13887TIP3    H263153   4.153   5.494   3.199  2.0344 -0.7946  0.7931
13888TIP3   OH263154   5.796   1.178  12.580 -0.1690 -0.1786  0.2558
13888TIP3    H163155   5.871   1.131  12.616 -0.8103 -1.1519  0.3698
13888TIP3    H263156   5.823   1.200  12.491 -0.1626 -1.5693 -0.1168
13889TIP3   OH263157   4.850   0.290   2.274  0.3134 -0.3707 -0.7041
13889TIP3    H163158   4.876   0.369   2.226 -3.5183  3.2708  2.4326
13889TIP3    H263159   4.926   0.271   2.330  2.4519 -0.9852 -3.5507
13890TIP3   OH263160   0.238   6.436  15.714  0.4855  0.2103 -0.8527
13890TIP3    H163161   0.295   6.490  15.768  1.8299 -0.7624 -1.2623
13890TIP3    H263162   0.203   6.497  15.648  0.7507  0.8906 -0.3712
13891TIP3   OH263163   6.493   4.777  12.334  0.1364 -0.5696 -0.2381
13891TIP3    H163164   6.442   4.748  12.259 -0.5259 -0.7089  0.2484
13891TIP3    H263165   6.584   4.769  12.307 -0.0929 -0.5886 -1.0290
13892TIP3   OH263166   1.846   4.786  13.864  0.3155 -0.0572 -0.0433
13892TIP3    H163167   1.843   4.704  13.914  1.2913 -0.4252 -0.5529
13892TIP3    H263168   1.755   4.804  13.840  0.1637 -1.3685 -0.5161
13893TIP3   OH263169   5.709   3.821   2.135  0.1321  0.2979 -0.5527
13893TIP3    H163170   5.704   3.737   2.088  3.0444 -0.0894 -0.3490
13893TIP3    H263171   5.712   3.887   2.065  1.5996 -0.0771 -0.8800
13894TIP3   OH263172   4.486   6.161   1.544  0.0929  0.1025 -0.2749
13894TIP3    H163173   4.564   6.115   1.516 -0.7518 -1.3701 -0.3251
13894TIP3    H263174   4.467   6.223   1.474  0.3532 -0.6210 -0.9967
13895TIP3   OH263175   2.138   0.651   5.577  0.4234  0.4389 -0.2691
13895TIP3    H163176   2.163   0.593   5.505  1.2310  1.5377 -0.9192
13895TIP3    H263177   2.170   0.608   5.656 -0.6786 -0.9052 -0.5280
13896TIP3   OH263178   4.841   3.086   5.177  0.8446 -0.0482 -0.5394
13896TIP3    H163179   4.863   3.142   5.252 -0.8463 -0.7995  0.5861
13896TIP3    H263180   4.780   3.021   5.213 -0.7965  0.1353 -2.7749
13897TIP3   OH263181   0.053   0.624   4.573  0.1884  0.3472 -0.6512
13897TIP3    H163182   0.126   0.597   4.516  1.2349  0.1237  0.7454
13897TIP3    H263183  -0.021   0.571   4.543  1.2747 -1.4113 -0.3982
13898TIP3   OH263184   6.369   4.345  12.636  0.4252  0.0929  0.0506
13898TIP3    H163185   6.383   4.370  12.545  0.4043 -0.9326 -0.2457
13898TIP3    H263186   6.444   4.383  12.682  1.4437 -0.9114 -0.7012
13899TIP3   OH263187   3.707   0.953   0.505  0.0398  0.1109 -0.1595
13899TIP3    H163188   3.795   0.989   0.492  0.1419 -0.2339 -0.4379
13899TIP3    H263189   3.695   0.893   0.432  0.3168 -1.2765  0.9046
13900TIP3   OH263190   2.016   5.978   2.391  0.3888 -0.2998 -0.1282
13900TIP3    H163191   2.007   5.905   2.452  0.6256 -1.7985 -1.7938
13900TIP3    H263192   1.972   5.947   2.311  0.8588  1.2267 -1.0099
13901TIP3   OH263193   1.692   2.285  12.941 -0.7092 -0.1941 -0.1515
13901TIP3    H163194   1.679   2.311  13.032 -1.6098  3.0442 -1.0577
13901TIP3    H263195   1.786   2.269  12.933 -0.7491 -1.4779  1.5094
13902TIP3   OH263196   4.198   0.176  13.028  0.3231 -0.8278 -0.0069
13902TIP3    H163197   4.114   0.151  13.066  0.0788 -1.2883 -0.8282
13902TIP3    H263198   4.208   0.120  12.951  0.7660  0.1204 -0.6767
13903TIP3   OH263199   0.397   5.265  14.076  0.1843 -0.4771 -0.0804
13903TIP3    H163200   0.309   5.267  14.039 -0.4542 -0.4503  1.3849
13903TIP3    H263201   0.400   5.338  14.137  1.9587  0.8467 -1.6161
13904TIP3   OH263202   4.765   6.040   0.780  0.5896  1.1006 -1.0309
13904TIP3    H163203   4.701   5.971   0.798  1.3794  0.9441  1.4440
13904TIP3    H263204   4.791   6.025   0.689  0.5774 -1.7318 -0.6448
13905TIP3   OH263205   2.737   0.421   4.125 -0.0761  0.0633 -0.1763
13905TIP3    H163206   2.796   0.365   4.176 -0.9314 -1.6963 -1.0434
13905TIP3    H263207   2.668   0.362   4.095 -0.7604  1.5034 -1.5624
13906TIP3   OH263208   0.740   4.801  15.986 -0.2044 -0.1524 -0.0304
13906TIP3    H163209   0.653   4.801  15.948 -0.9102  0.5122  1.5078
13906TIP3    H263210   0.730   4.753  16.068  1.1280 -0.9880 -0.3108
13907TIP3   OH263211   4.136   1.323  10.822 -0.0022 -0.1741  0.3717
13907TIP3    H163212   4.216   1.282  10.854  0.1650  1.5397  2.3930
13907TIP3    H263213   4.066   1.266  10.852  0.3865 -1.5003 -1.1063
13908TIP3   OH263214   6.660   5.991  13.584 -0.2345  0.2181  0.4100
13908TIP3    H163215   6.736   6.036  13.547 -1.3768  1.9608  0.0484
13908TIP3    H263216   6.638   6.042  13.662 -1.1891 -0.0950  0.3553
13909TIP3   OH263217   4.188   0.630  13.448  0.1459  0.4836 -0.7490
13909TIP3    H163218   4.201   0.541  13.416  1.1757 -0.2640  1.5592
13909TIP3    H263219   4.095   0.648  13.432 -0.0121 -0.8671 -1.5210
13910TIP3   OH263220   4.355   0.029  17.103 -0.1953  0.6885 -0.0723
13910TIP3    H163221   4.262   0.014  17.115 -0.0896 -0.8716 -0.9193
13910TIP3    H263222   4.373   0.110  17.150 -1.8124  0.5769  0.7952
13911TIP3   OH263223   4.382   5.777  13.687 -0.2463  0.5253 -0.0716
13911TIP3    H163224   4.446   5.801  13.754  0.0625  0.7976 -0.4589
13911TIP3    H263225   4.391   5.681  13.680 -0.7015  0.4188  0.6898
13912TIP3   OH263226   1.922   4.900   0.053  0.6466  0.5701 -0.1219
13912TIP3    H163227   1.995   4.924   0.110 -0.1271  1.1950  0.6322
13912TIP3    H263228   1.855   4.867   0.113  0.8155 -1.3623 -0.9209
13913TIP3   OH263229   4.847   2.530  12.489  0.9444  0.1478 -0.6732
13913TIP3    H163230   4.918   2.577  12.533  1.6996 -0.5463 -1.1272
13913TIP3    H263231   4.890   2.461  12.439 -0.1908 -1.5130  0.5357
13914TIP3   OH263232   0.939   5.705  13.483 -0.5015  0.3360 -0.4771
13914TIP3    H163233   0.985   5.777  13.440 -2.6453  1.5856 -0.7949
13914TIP3    H263234   0.951   5.631  13.424  1.2835  0.5206 -0.4065
13915TIP3   OH263235   1.399   1.866  11.905  0.0984  0.0641 -0.0369
13915TIP3    H163236   1.374   1.829  11.821  0.9691 -2.6130  0.7720
13915TIP3    H263237   1.495   1.873  11.901  0.2941 -1.3367  1.1119
13916TIP3   OH263238   0.785   2.959   5.328  0.5304  0.3147 -0.6773
13916TIP3    H163239   0.871   2.943   5.366  1.3925  1.8098 -1.9365
13916TIP3    H263240   0.730   2.891   5.367  2.0588 -0.1581  0.8012
13917TIP3   OH263241   3.821   1.897  13.177 -0.1816 -0.2990 -0.4800
13917TIP3    H163242   3.891   1.962  13.166  0.6436 -1.3097 -1.4229
13917TIP3    H263243   3.799   1.870  13.088 -0.2860 -1.5271 -0.0909
13918TIP3   OH263244   0.137   0.145   1.908  0.6586 -0.1196  0.3472
13918TIP3    H163245   0.113   0.098   1.828 -0.5734  2.0423 -0.6416
13918TIP3    H263246   0.066   0.208   1.921  2.1946  1.4545  1.6079
13919TIP3   OH263247   2.508   0.366  15.776 -0.7152 -0.1753  0.7599
13919TIP3    H163248   2.453   0.441  15.795 -0.0897  0.6256 -0.4503
13919TIP3    H263249   2.540   0.337  15.862 -2.2532 -0.0939  1.3831
13920TIP3   OH263250   6.440   3.441  16.974 -0.1966 -0.3550 -0.2897
13920TIP3    H163251   6.489   3.454  17.055 -0.4435  0.4988 -0.2708
13920TIP3    H263252   6.489   3.490  16.908  0.2565 -1.4150 -0.7670
13921TIP3   OH263253   1.480   5.240   0.298  0.4164 -0.2886  0.2014
13921TIP3    H163254   1.415   5.310   0.290 -1.5098 -2.0455 -0.0434
13921TIP3    H263255   1.459   5.197   0.381  2.0084 -0.2217  0.6831
13922TIP3   OH263256   0.162   5.561  13.617  0.3048 -0.0380  0.1391
13922TIP3    H163257   0.251   5.574  13.648  0.2500  0.0139  0.2726
13922TIP3    H263258   0.137   5.646  13.580 -0.2378  0.4013  1.4722
13923TIP3   OH263259   4.514   1.011   6.359 -0.2144  0.0714 -0.5106
13923TIP3    H163260   4.573   1.084   6.383  0.2316 -0.2161 -0.7243
13923TIP3    H263261   4.435   1.028   6.410 -0.6633  1.4845 -1.5950
13924TIP3   OH263262   2.137   4.237  17.060 -0.3893  0.0568  0.0457
13924TIP3    H163263   2.073   4.190  17.112  0.8174 -0.6832  0.8880
13924TIP3    H263264   2.127   4.328  17.087 -2.2510  0.2661 -1.0967
13925TIP3   OH263265   4.395   2.479  16.536  0.4480  0.2356 -0.8739
13925TIP3    H163266   4.390   2.554  16.477  0.3160  0.4868 -0.5490
13925TIP3    H263267   4.358   2.406  16.487  0.3430  0.4415 -1.0985
13926TIP3   OH263268   6.319   5.756  15.529  0.6905 -0.3870 -0.2026
13926TIP3    H163269   6.344   5.846  15.551  0.8273 -0.3672 -0.4361
13926TIP3    H263270   6.251   5.766  15.462  1.1150 -0.4656 -0.6491
13927TIP3   OH263271   6.691   3.582   1.667 -0.2676 -0.5805 -0.0982
13927TIP3    H163272   6.683   3.660   1.723  1.6873  0.0623 -0.6209
13927TIP3    H263273   6.652   3.511   1.718  0.4969  0.1985  1.6453
13928TIP3   OH263274   1.440   2.123   2.745 -0.8744  0.8313 -0.1528
13928TIP3    H163275   1.458   2.121   2.839  0.5667  0.7916 -0.4169
13928TIP3    H263276   1.480   2.043   2.711 -1.8436  0.5743 -0.7459
13929TIP3   OH263277   4.737   6.056   4.398 -0.0693 -0.9209 -0.5485
13929TIP3    H163278   4.730   6.047   4.493 -0.4020  0.8418 -0.3659
13929TIP3    H263279   4.663   6.005   4.363 -0.4654 -0.8546  0.1885
13930TIP3   OH263280   3.357   1.621  14.466 -0.4008  0.0554  0.3877
13930TIP3    H163281   3.400   1.560  14.526 -0.2206 -0.4629 -0.2673
13930TIP3    H263282   3.271   1.583  14.449 -0.1516 -0.2040 -0.3051
13931TIP3   OH263283   5.822   4.290   4.584 -0.2446 -0.2640  0.0143
13931TIP3    H163284   5.831   4.313   4.677  1.5745 -1.3052  0.1374
13931TIP3    H263285   5.730   4.266   4.574 -0.8516  1.4129  1.1593
13932TIP3   OH263286   1.641   2.626  16.916 -0.0505  0.5189  0.5519
13932TIP3    H163287   1.681   2.608  17.001  1.1642  0.6996  0.0366
13932TIP3    H263288   1.688   2.703  16.883 -0.2508  0.2333 -0.4325
13933TIP3   OH263289   3.659   2.591  14.174 -0.2926 -0.2891 -0.2193
13933TIP3    H163290   3.609   2.511  14.158  2.4433 -1.9022 -1.4493
13933TIP3    H263291   3.705   2.574  14.256  0.6891 -0.2241 -0.7439
13934TIP3   OH263292   3.117   1.613   2.224  0.0367 -0.6433  0.1703
13934TIP3    H163293   3.157   1.632   2.139 -1.3155 -1.2125 -0.6170
13934TIP3    H263294   3.103   1.700   2.262 -1.6179 -0.2146 -1.2894
13935TIP3   OH263295   2.750   0.254  12.038  0.2238  0.1813 -0.2769
13935TIP3    H163296   2.726   0.308  11.962  1.4589 -2.1149 -2.4848
13935TIP3    H263297   2.791   0.315  12.099  0.3927  1.9617 -2.0471
13936TIP3   OH263298   4.530   1.969   2.319  0.3634  0.1748  0.2034
13936TIP3    H163299   4.612   1.973   2.367  0.3738 -0.3370  0.2366
13936TIP3    H263300   4.469   1.927   2.379 -0.3618  1.9310  0.7770
13937TIP3   OH263301   6.545   4.348  16.145  0.3684 -0.4218 -0.1567
13937TIP3    H163302   6.479   4.390  16.200  0.0971 -0.5266 -0.4001
13937TIP3    H263303   6.506   4.264  16.121  1.3426 -1.3226  1.2239
13938TIP3   OH263304   0.974   1.004  14.713 -0.0432  0.6559 -0.7604
13938TIP3    H163305   1.029   0.944  14.663 -0.6493 -2.0165  1.5202
13938TIP3    H263306   0.892   0.955  14.726 -0.2002  1.5265  2.0591
13939TIP3   OH263307   1.287   1.458  16.861  0.6933  0.5066  0.1191
13939TIP3    H163308   1.197   1.428  16.847  0.3711  0.9702  1.1240
13939TIP3    H263309   1.280   1.520  16.933  1.8864  0.1812  0.5282
13940TIP3   OH263310   2.953   1.364  13.714 -0.3967 -0.4174  0.1018
13940TIP3    H163311   2.858   1.361  13.724 -0.3331 -1.0084  0.6474
13940TIP3    H263312   2.985   1.398  13.798 -0.1999  1.2944 -0.6338
13941TIP3   OH263313   4.135   0.107  16.207 -0.6022  0.7195 -0.1580
13941TIP3    H163314   4.049   0.147  16.199 -0.2261  1.9526  1.2922
13941TIP3    H263315   4.175   0.151  16.283  1.3618  0.3299 -0.8867
13942TIP3   OH263316   5.802   2.398  17.002 -0.9072 -0.1104 -0.1371
13942TIP3    H163317   5.818   2.311  17.038 -0.7417  0.0767  0.2476
13942TIP3    H263318   5.709   2.413  17.018 -1.1945 -0.6547 -1.1849
13943TIP3   OH263319   3.915   0.926  15.650  0.0295  0.2843  0.5342
13943TIP3    H163320   3.922   0.931  15.555  0.1085 -1.0359  0.4467
13943TIP3    H263321   3.825   0.954  15.669  0.3749  1.7079  0.2056
13944TIP3   OH263322   3.242   1.418  16.921 -0.6089  0.3724 -0.1438
13944TIP3    H163323   3.289   1.386  16.844 -0.1183 -0.7909  0.6092
13944TIP3    H263324   3.161   1.367  16.921 -0.1703 -0.3363  0.6402
13945TIP3   OH263325   5.680   3.219  13.759  0.5454  0.2752 -0.2099
13945TIP3    H163326   5.757   3.211  13.815 -0.3187 -0.6022  0.9125
13945TIP3    H263327   5.709   3.187  13.674  1.3312 -0.3759  0.2885
13946TIP3   OH263328   1.871   1.988   2.336  0.2733 -0.3454 -0.1504
13946TIP3    H163329   1.862   1.972   2.430 -0.5572 -0.0719 -0.1805
13946TIP3    H263330   1.954   2.034   2.328 -0.3842  1.0328  0.6285
13947TIP3   OH263331   4.322   1.623  13.735 -0.0407  0.0381  0.3696
13947TIP3    H163332   4.258   1.637  13.804 -1.3465 -0.4411 -0.6864
13947TIP3    H263333   4.324   1.706  13.686 -0.1870 -0.0953  0.1360
13948TIP3   OH263334   5.800   5.097  13.064 -0.0023 -0.6872 -0.2205
13948TIP3    H163335   5.895   5.099  13.058 -0.0197 -1.0280 -0.5867
13948TIP3    H263336   5.770   5.157  12.994 -0.0394  0.0609  0.4180
13949TIP3   OH263337   2.980   3.599   5.228 -0.4429 -0.2323  0.1776
13949TIP3    H163338   3.004   3.616   5.319  1.3661  1.2643 -0.5046
13949TIP3    H263339   2.910   3.662   5.210  0.2388  0.5281  0.1306
13950TIP3   OH263340   5.787   6.427   0.554  0.0498  0.0283 -0.3731
13950TIP3    H163341   5.873   6.459   0.580 -0.0652 -0.6751  0.9667
13950TIP3    H263342   5.739   6.505   0.528  1.1002  0.4179 -1.1975
13951TIP3   OH263343   5.581   6.801  15.050 -0.6635 -0.3142 -0.8820
13951TIP3    H163344   5.547   6.787  15.139  0.1805 -0.5424 -0.5825
13951TIP3    H263345   5.574   6.895  15.036 -0.1475 -0.1780 -0.2885
13952TIP3   OH263346   5.428   5.197   5.738 -0.4917  0.3221 -1.1145
13952TIP3    H163347   5.482   5.264   5.697 -1.1396  1.2803 -0.4375
13952TIP3    H263348   5.339   5.234   5.737 -1.0971 -1.0524 -1.8720
13953TIP3   OH263349   4.366   4.357  16.593 -0.0203  0.4000 -0.0987
13953TIP3    H163350   4.424   4.348  16.517 -0.6013  0.6287 -0.5825
13953TIP3    H263351   4.424   4.347  16.669  0.6203  0.4562 -0.5674
13954TIP3   OH263352   6.358   4.827  15.721 -0.2211  0.2141  0.0134
13954TIP3    H163353   6.312   4.753  15.680  0.0978  1.0307 -1.9515
13954TIP3    H263354   6.430   4.787  15.769 -1.0445 -0.8577  0.3851
13955TIP3   OH263355   5.020   0.804  12.516 -0.3620  0.0552 -0.0652
13955TIP3    H163356   4.983   0.720  12.490 -1.2466  0.9253 -1.7543
13955TIP3    H263357   4.977   0.824  12.599 -0.1675 -1.1166  0.3394
13956TIP3   OH263358   5.159   1.532   4.140  0.0763 -0.3358 -0.0349
13956TIP3    H163359   5.164   1.439   4.117  1.2041 -0.5455  0.9904
13956TIP3    H263360   5.240   1.570   4.106 -1.0173  0.6282 -1.7634
13957TIP3   OH263361   5.233   3.760  12.595 -0.5915  0.2932  0.2417
13957TIP3    H163362   5.190   3.846  12.597 -0.7341  0.2408 -0.4811
13957TIP3    H263363   5.245   3.741  12.502  0.9483  0.2820  0.4172
13958TIP3   OH263364   4.981   0.984   5.586 -0.2130 -0.0313 -0.4194
13958TIP3    H163365   4.962   0.933   5.507  0.3193  1.2696 -1.4355
13958TIP3    H263366   5.065   0.951   5.617  1.3577  1.7146 -2.4619
13959TIP3   OH263367   1.887   0.244   0.830  0.9918  0.3000 -0.2280
13959TIP3    H163368   1.834   0.323   0.843 -0.5553 -0.4804 -1.3538
13959TIP3    H263369   1.840   0.195   0.763  1.9405 -1.5557  0.3851
13960TIP3   OH263370   4.945   1.245  13.485  0.5291 -0.2498  0.1832
13960TIP3    H163371   4.866   1.260  13.537  0.0485 -0.4156 -0.4836
13960TIP3    H263372   4.917   1.262  13.395  1.8760  2.1431  0.1334
13961TIP3   OH263373   0.666   6.618   3.288 -0.2364  0.1632  0.2579
13961TIP3    H163374   0.578   6.614   3.323 -0.1771 -0.8657  0.3158
13961TIP3    H263375   0.717   6.665   3.354 -0.9813  1.8384 -0.3225
13962TIP3   OH263376   1.662   6.154   3.075  0.0730 -0.4504  0.4309
13962TIP3    H163377   1.747   6.194   3.090  0.6211 -1.2130 -0.4798
13962TIP3    H263378   1.607   6.186   3.146  0.7521  1.0932  0.2907
13963TIP3   OH263379   1.488   6.737  11.316  0.6384 -0.2237 -0.3756
13963TIP3    H163380   1.513   6.804  11.253 -0.4551 -1.4104 -2.1683
13963TIP3    H263381   1.528   6.656  11.284  0.3686 -0.7998  0.6663
13964TIP3   OH263382   6.664   2.731  13.275 -0.0607  0.4241 -0.3812
13964TIP3    H163383   6.606   2.655  13.266  0.5356 -0.0587 -0.1826
13964TIP3    H263384   6.675   2.741  13.369  2.3621 -1.1981 -0.4051
13965TIP3   OH263385   5.895   1.987   3.666 -0.2922  0.4401 -0.1448
13965TIP3    H163386   5.936   1.941   3.593  1.7729  0.8016  0.7249
13965TIP3    H263387   5.968   2.012   3.723 -1.6610  1.8995  1.0616
13966TIP3   OH263388   3.673   1.013  12.706 -0.5876 -0.2368 -0.7530
13966TIP3    H163389   3.694   1.092  12.756 -1.3637 -1.1181  1.0743
13966TIP3    H263390   3.757   0.973  12.688 -0.2646  0.3194 -0.5153
13967TIP3   OH263391   2.100   0.243  16.193  0.3516  0.4185 -0.3019
13967TIP3    H163392   2.164   0.191  16.143  0.2290 -1.0820  1.0347
13967TIP3    H263393   2.025   0.252  16.133  0.6929 -0.2708 -0.8516
13968TIP3   OH263394   2.482   1.895   4.905  0.5665 -0.2005 -0.6918
13968TIP3    H163395   2.558   1.954   4.906  0.8883 -0.6127 -0.6935
13968TIP3    H263396   2.480   1.861   4.816  2.4964 -2.8937  0.1794
13969TIP3   OH263397   5.381   3.397   2.615 -0.3376 -0.3640  0.1796
13969TIP3    H163398   5.304   3.448   2.591  0.0312  0.3456  0.4843
13969TIP3    H263399   5.358   3.356   2.698 -0.0137  0.7032  0.8195
13970TIP3   OH263400   3.984   2.367   0.581 -0.3556  0.3333 -0.0468
13970TIP3    H163401   4.015   2.327   0.662  0.8203 -0.7507 -0.9997
13970TIP3    H263402   4.042   2.442   0.568 -0.2218  0.2121 -0.1475
13971TIP3   OH263403   3.999   6.498   1.969 -0.3690 -0.2315  0.1605
13971TIP3    H163404   3.991   6.468   2.059 -0.8527 -1.1532 -0.1778
13971TIP3    H263405   4.023   6.590   1.976 -1.4702 -0.0073  1.2266
13972TIP3   OH263406   4.068   2.999  15.569  0.7870  0.7849 -0.2140
13972TIP3    H163407   4.141   3.059  15.578  1.0389  0.5176 -0.4840
13972TIP3    H263408   4.101   2.916  15.603  0.5363  0.7183 -0.1269
13973TIP3   OH263409   6.821   3.044  13.849  0.0325  0.3207 -0.2539
13973TIP3    H163410   6.748   2.983  13.857 -0.3126  0.9196  2.0061
13973TIP3    H263411   6.866   3.040  13.934  1.6264  1.2115 -0.9949
13974TIP3   OH263412   1.541   1.566  11.454  0.1318 -0.8855 -0.7266
13974TIP3    H163413   1.622   1.516  11.450 -0.3371 -1.6945 -0.2921
13974TIP3    H263414   1.477   1.506  11.493 -0.3658  0.1302  0.0867
13975TIP3   OH263415   0.570   6.761   0.244 -0.0909 -0.3411  0.2057
13975TIP3    H163416   0.542   6.852   0.236  2.5166  0.4754 -0.5131
13975TIP3    H263417   0.489   6.710   0.242 -1.4552  1.7398 -2.5592
13976TIP3   OH263418   3.956   1.658   2.824  0.4284 -0.1644 -0.7998
13976TIP3    H163419   3.991   1.598   2.889 -2.1312 -1.6289 -0.6135
13976TIP3    H263420   3.989   1.744   2.849 -0.7811 -0.5853  2.7451
13977TIP3   OH263421   1.155   1.045   3.126 -0.4402  0.0511  0.1763
13977TIP3    H163422   1.189   1.000   3.203  0.4056 -0.2651 -0.3627
13977TIP3    H263423   1.174   1.137   3.141  1.0412 -0.1495 -0.2710
13978TIP3   OH263424   1.184   1.688  12.187 -0.5459  0.9325 -0.1632
13978TIP3    H163425   1.165   1.740  12.110 -0.2138  0.8301 -0.3153
13978TIP3    H263426   1.208   1.751  12.254 -0.0795  0.9737 -0.3662
13979TIP3   OH263427   6.685   4.735  13.026  0.1010 -0.5612 -0.0045
13979TIP3    H163428   6.779   4.722  13.042  0.2459  0.8121  0.3679
13979TIP3    H263429   6.664   4.671  12.958  1.5392 -0.2424 -0.7961
13980TIP3   OH263430   1.597   0.628  11.479  0.4722 -0.1196  0.2622
13980TIP3    H163431   1.637   0.699  11.529  0.0643  0.8407 -0.7256
13980TIP3    H263432   1.647   0.551  11.503  0.9281  0.4908  1.3727
13981TIP3   OH263433   0.655   2.508  14.021 -0.3979  0.1669 -0.3769
13981TIP3    H163434   0.677   2.499  13.929 -3.0397 -0.9631 -0.9795
13981TIP3    H263435   0.662   2.419  14.056 -0.4520  0.4156  0.2819
13982TIP3   OH263436   5.950   3.740  12.117 -0.2498  0.4942  0.6877
13982TIP3    H163437   5.914   3.782  12.039 -1.9474  1.5619  1.9556
13982TIP3    H263438   5.873   3.720  12.171  0.7914 -1.1646  1.6493
13983TIP3   OH263439   2.451   5.270  14.504  0.4101  0.0180 -0.3297
13983TIP3    H163440   2.494   5.201  14.555  0.3484  0.9786  1.0921
13983TIP3    H263441   2.500   5.349  14.526 -1.8381  1.0966  1.1123
13984TIP3   OH263442   6.804   3.872   3.411 -0.4515 -0.3783 -0.1799
13984TIP3    H163443   6.872   3.849   3.474 -0.3727  0.4953  0.0614
13984TIP3    H263444   6.770   3.787   3.381  1.0668 -0.8525 -0.6808
13985TIP3   OH263445   2.643   2.886  17.097  0.1910 -0.1856  0.1909
13985TIP3    H163446   2.572   2.908  17.158  0.8261  1.2528  0.4650
13985TIP3    H263447   2.677   2.803  17.128  0.7313  0.6833  2.0672
13986TIP3   OH263448   5.729   4.583   3.300 -0.6153 -0.1938  0.1883
13986TIP3    H163449   5.804   4.550   3.348  0.2137  0.0526 -0.8828
13986TIP3    H263450   5.673   4.507   3.287 -0.1213 -0.5694  0.2390
13987TIP3   OH263451   1.147   6.146  14.820  0.2903 -0.4498  0.7345
13987TIP3    H163452   1.151   6.215  14.754 -0.1044 -0.2038  0.9661
13987TIP3    H263453   1.196   6.073  14.781 -0.3544 -0.4840 -0.0359
13988TIP3   OH263454   3.971   5.597  16.716 -0.2065 -0.2903 -0.1147
13988TIP3    H163455   3.985   5.624  16.807 -0.4273  1.9351 -0.6884
13988TIP3    H263456   3.976   5.678  16.665 -1.0960 -1.3254 -1.9816
13989TIP3   OH263457   6.185   1.962  13.957  0.2496 -0.3131 -0.2739
13989TIP3    H163458   6.157   1.920  14.039  0.2172 -0.1653 -0.2096
13989TIP3    H263459   6.174   1.894  13.891  1.0137 -0.6732 -0.0323
13990TIP3   OH263460   6.029   6.287   4.440  0.1622 -0.1416 -0.0470
13990TIP3    H163461   5.937   6.265   4.425  0.0159  0.2933  0.1947
13990TIP3    H263462   6.053   6.237   4.518 -0.2911  0.8531  0.7530
13991TIP3   OH263463   0.704   4.765   0.480  0.1616  0.6737 -0.0790
13991TIP3    H163464   0.670   4.685   0.439  0.0666  1.3220 -1.3122
13991TIP3    H263465   0.797   4.747   0.495 -0.1983 -0.2677  1.2090
13992TIP3   OH263466   1.040   1.414  15.716  0.1010  0.5987  0.3122
13992TIP3    H163467   1.050   1.325  15.683 -0.4679  0.4293  0.5760
13992TIP3    H263468   0.993   1.461  15.646  2.0236  1.2102 -0.6327
13993TIP3   OH263469   0.737   3.345   3.970  0.0172  0.3121 -0.1610
13993TIP3    H163470   0.785   3.287   4.029 -0.6049  0.0916  0.1365
13993TIP3    H263471   0.667   3.383   4.024 -1.3205 -0.8235 -1.0115
13994TIP3   OH263472   2.694   0.836  15.928 -0.1488  0.2321 -0.1901
13994TIP3    H163473   2.711   0.795  15.844 -2.0334 -1.6912  0.2737
13994TIP3    H263474   2.748   0.915  15.929  2.2028 -1.2709 -1.9240
13995TIP3   OH263475   2.858   5.716  15.380 -0.2862  0.6990 -0.1528
13995TIP3    H163476   2.919   5.676  15.318 -2.6807 -0.4677 -1.9232
13995TIP3    H263477   2.914   5.749  15.450  2.5035  1.2707 -2.4444
13996TIP3   OH263478   5.785   2.410   0.287 -0.1200 -0.0029 -0.1589
13996TIP3    H163479   5.727   2.361   0.228  0.6027 -0.4430 -0.5142
13996TIP3    H263480   5.771   2.369   0.373 -0.5894  0.1213 -0.1726
13997TIP3   OH263481   0.469   1.292   3.962 -0.3701  0.3774 -0.3396
13997TIP3    H163482   0.434   1.234   3.895 -0.1401  1.9811 -1.9152
13997TIP3    H263483   0.392   1.336   3.998 -0.3334  0.9295 -0.9289
13998TIP3   OH263484   3.262   0.070   4.782 -0.2829 -0.2060  0.3087
13998TIP3    H163485   3.325   0.115   4.838 -1.2560  1.4842  0.1037
13998TIP3    H263486   3.305   0.067   4.696 -0.4189  0.8215  0.1988
13999TIP3   OH263487   0.842   4.540  16.754  0.1501 -0.6426 -0.1428
13999TIP3    H163488   0.781   4.484  16.802 -0.1935 -0.5426 -0.4577
13999TIP3    H263489   0.928   4.520  16.791 -0.0232 -1.0883  0.0181
14000TIP3   OH263490   3.210   2.842  12.487  0.0369 -0.3422  0.1157
14000TIP3    H163491   3.279   2.795  12.439 -1.5038 -0.8183 -1.7996
14000TIP3    H263492   3.246   2.929  12.501  1.6950 -1.0996  0.7678
14001TIP3   OH263493   2.018   1.799  16.350 -0.7327  0.0021 -0.2433
14001TIP3    H163494   1.995   1.843  16.268 -1.2987  0.1967  0.0104
14001TIP3    H263495   1.949   1.826  16.411 -1.9714 -2.4253 -0.4736
14002TIP3   OH263496   3.319   6.011  15.647  0.1003 -0.3540  0.0600
14002TIP3    H163497   3.294   6.068  15.720 -0.3217  0.9929 -1.0951
14002TIP3    H263498   3.410   5.989  15.664 -0.0157 -0.1489  1.0371
14003TIP3   OH263499   2.818   3.750   5.438 -0.2379 -0.1120 -0.2744
14003TIP3    H163500   2.870   3.830   5.447  0.7714 -0.8206  0.2664
14003TIP3    H263501   2.767   3.764   5.358  0.4044  0.7974 -0.5375
14004TIP3   OH263502   3.350   5.420   2.439 -0.3660 -0.1895  0.0489
14004TIP3    H163503   3.260   5.436   2.411 -0.1403  2.0382  0.4051
14004TIP3    H263504   3.343   5.396   2.532 -0.5792  0.0969  0.1064
14005TIP3   OH263505   5.854   1.262  13.422  0.0654  0.4902  0.4290
14005TIP3    H163506   5.763   1.242  13.399  0.7049 -0.3162 -1.6770
14005TIP3    H263507   5.900   1.264  13.338  1.7601  2.2508  1.3259
14006TIP3   OH263508   3.770   5.166  11.959 -0.5759  0.8752 -0.6571
14006TIP3    H163509   3.718   5.092  11.929  0.9402  0.0809 -1.4271
14006TIP3    H263510   3.834   5.182  11.889  2.5056 -0.4731  1.6081
14007TIP3   OH263511   1.651   2.380   6.581 -0.3344 -0.0680  0.4024
14007TIP3    H163512   1.714   2.380   6.652  0.3313 -0.9686 -0.1658
14007TIP3    H263513   1.641   2.288   6.557 -0.7381  0.1901 -0.4936
14008TIP3   OH263514   2.909   1.153  13.555 -0.0305 -0.5764  0.2373
14008TIP3    H163515   2.884   1.070  13.596  0.1111 -0.5564  0.3659
14008TIP3    H263516   2.941   1.207  13.628  0.5586 -0.6658  0.0537
14009TIP3   OH263517   0.568   3.157  17.005  0.1847  0.0632  0.0709
14009TIP3    H163518   0.612   3.076  17.031 -0.0475  0.0722  0.4884
14009TIP3    H263519   0.611   3.225  17.056 -0.6087  0.0162  0.8053
14010TIP3   OH263520   0.796   1.326  14.955 -0.4113  0.1910  0.2702
14010TIP3    H163521   0.872   1.271  14.938  0.1636  0.7126  1.0490
14010TIP3    H263522   0.776   1.312  15.047  0.4191  2.0610  0.7822
14011TIP3   OH263523   4.980   4.398  16.996  0.2159  0.1446  0.5310
14011TIP3    H163524   5.041   4.344  16.946  0.7255  0.7987  0.4204
14011TIP3    H263525   5.003   4.383  17.087  0.3727  0.1888  0.4990
14012TIP3   OH263526   0.737   2.120   1.768  0.2866 -0.9680 -0.1076
14012TIP3    H163527   0.735   2.204   1.815  0.4784 -0.3061 -1.2470
14012TIP3    H263528   0.826   2.087   1.783  0.3525 -0.7552 -0.0199
14013TIP3   OH263529   4.508   3.442  16.366 -0.0832  0.1748  0.1848
14013TIP3    H163530   4.522   3.451  16.460  1.1671  2.9294 -0.1990
14013TIP3    H263531   4.595   3.448  16.328 -0.6854  0.1306 -1.2472
14014TIP3   OH263532   0.102   4.978  16.893  0.3219  0.0142  0.3748
14014TIP3    H163533   0.079   4.933  16.811  1.4855 -1.1698  0.6605
14014TIP3    H263534   0.050   4.933  16.960 -0.9526  1.2582  0.2845
14015TIP3   OH263535   6.398   5.886  14.289 -0.6082 -0.2737 -0.2780
14015TIP3    H163536   6.428   5.970  14.323 -1.8128 -0.1893  0.6236
14015TIP3    H263537   6.353   5.908  14.207 -2.3216  0.1873  0.7464
14016TIP3   OH263538   0.449   4.024  10.857 -0.0589  0.7746 -0.1044
14016TIP3    H163539   0.541   4.049  10.855  0.7690 -2.0821 -0.9229
14016TIP3    H263540   0.437   3.985  10.944  0.3622 -1.5847 -1.0412
14017TIP3   OH263541   3.312   1.302   0.321  0.0508  0.0675  0.1718
14017TIP3    H163542   3.272   1.376   0.366 -1.0689  0.3964 -1.3115
14017TIP3    H263543   3.306   1.324   0.228  1.6145 -0.9385 -0.1990
14018TIP3   OH263544   2.302   0.276  14.083  0.1306  0.3956  0.1167
14018TIP3    H163545   2.244   0.348  14.108 -1.0277 -0.6757  0.6299
14018TIP3    H263546   2.329   0.237  14.167 -0.2593 -0.5184 -0.1651
14019TIP3   OH263547   5.330   1.147  12.187  0.0957 -0.0304  0.0656
14019TIP3    H163548   5.276   1.073  12.216 -0.0566 -0.0560 -0.2705
14019TIP3    H263549   5.282   1.225  12.216 -0.4422 -0.0388 -0.7565
14020TIP3   OH263550   1.617   4.213  11.570  0.2058 -0.2372 -0.0616
14020TIP3    H163551   1.584   4.249  11.653  0.0331  0.9518 -0.6289
14020TIP3    H263552   1.690   4.269  11.546  0.6137 -0.9135 -0.4497
14021TIP3   OH263553   3.612   4.209  11.404  0.1438  0.4085  0.2070
14021TIP3    H163554   3.532   4.172  11.367 -0.7463  0.9261  1.5444
14021TIP3    H263555   3.583   4.286  11.453  1.3124  0.0202  1.5755
14022TIP3   OH263556   1.644   1.614   2.885 -0.3176 -0.2983  0.3832
14022TIP3    H163557   1.619   1.521   2.886  0.6098 -0.5606  0.0814
14022TIP3    H263558   1.732   1.615   2.923  0.0219  0.3579 -0.4146
14023TIP3   OH263559   6.630   1.875   3.046  0.3692  0.2956 -0.6274
14023TIP3    H163560   6.703   1.911   2.996 -0.5059  1.6368 -0.9942
14023TIP3    H263561   6.613   1.941   3.114  1.0344 -1.1278  0.9860
14024TIP3   OH263562   5.493   5.381   2.999 -1.6020  0.0556  0.1967
14024TIP3    H163563   5.400   5.365   3.017 -1.8238 -0.7625 -1.4300
14024TIP3    H263564   5.518   5.309   2.940  0.6877 -1.0968  2.3735
14025TIP3   OH263565   2.221   6.191   0.266  0.7786  0.1463 -0.1660
14025TIP3    H163566   2.156   6.122   0.250  0.9543 -0.0127 -0.2043
14025TIP3    H263567   2.229   6.236   0.181 -0.1929  0.9678  0.1581
14026TIP3   OH263568   5.594   6.583  11.610 -0.4479 -0.4816 -0.6005
14026TIP3    H163569   5.559   6.637  11.681 -1.0965 -1.0496 -0.4767
14026TIP3    H263570   5.602   6.495  11.649 -1.0336 -0.8503 -1.2861
14027TIP3   OH263571   3.166   6.099   4.095  0.2605  0.1195 -0.2922
14027TIP3    H163572   3.089   6.097   4.039 -0.2206  0.6797  0.3327
14027TIP3    H263573   3.203   6.186   4.083  0.4007  0.0933 -0.0609
14028TIP3   OH263574   5.564   2.820  11.320  0.0516  0.2637 -0.2469
14028TIP3    H163575   5.475   2.855  11.332 -1.0427 -1.9560 -1.2247
14028TIP3    H263576   5.601   2.871  11.249 -1.3775 -0.2792 -1.4429
14029TIP3   OH263577   0.999   5.768   4.862 -0.5356 -0.3736  0.8656
14029TIP3    H163578   0.969   5.793   4.950  2.1481  1.5667  1.3565
14029TIP3    H263579   0.922   5.781   4.806 -1.9380 -0.3680  2.6843
14030TIP3   OH263580   3.607   0.006  14.230 -0.3274 -0.3295  0.5159
14030TIP3    H163581   3.679  -0.056  14.240 -0.6531 -0.7602  0.2729
14030TIP3    H263582   3.649   0.091  14.221  0.1275 -0.5076  0.8983
14031TIP3   OH263583   3.054   1.139  10.805  0.4325 -0.5357 -0.1963
14031TIP3    H163584   3.010   1.119  10.723  1.3555 -2.1794 -0.3337
14031TIP3    H263585   3.005   1.213  10.841 -1.0999 -0.9489 -1.3314
14032TIP3   OH263586   0.437   1.694  17.158  0.5740 -0.3277 -0.5060
14032TIP3    H163587   0.428   1.660  17.069  1.0318 -0.2702 -0.5777
14032TIP3    H263588   0.476   1.781  17.146  1.1388 -0.5388 -0.2226
14033TIP3   OH263589   3.173   0.581   2.133  0.7472 -0.2214  0.4213
14033TIP3    H163590   3.105   0.633   2.176  0.6330  0.6493 -0.7635
14033TIP3    H263591   3.206   0.524   2.202 -1.7295 -1.2690  0.8737
14034TIP3   OH263592   2.125   1.780   3.130 -0.2653  0.2587 -0.0191
14034TIP3    H163593   2.075   1.784   3.212 -0.2985  2.5520 -0.0958
14034TIP3    H263594   2.189   1.710   3.145 -0.4299  0.4441  1.8793
14035TIP3   OH263595   6.064   2.070  16.966  0.2496 -0.4265 -0.1176
14035TIP3    H163596   5.974   2.084  16.995  0.3935 -0.2087  0.2371
14035TIP3    H263597   6.096   1.999  17.022  0.9049  0.7837  1.0940
14036TIP3   OH263598   1.158   2.692   0.220  0.4643  0.1911 -0.3068
14036TIP3    H163599   1.114   2.746   0.286  1.7404  1.5409 -0.5012
14036TIP3    H263600   1.086   2.657   0.167 -0.4412  3.4870 -1.5163
14037TIP3   OH263601   4.830   6.334  13.053 -0.4835 -0.3332  0.9362
14037TIP3    H163602   4.893   6.334  12.980 -0.5648 -3.1048  0.7377
14037TIP3    H263603   4.827   6.424  13.083  0.9173  0.5527 -1.3467
14038TIP3   OH263604   2.808   0.806   0.197  0.0876  0.0664 -0.0795
14038TIP3    H163605   2.797   0.719   0.234 -2.0498 -0.0068 -0.7694
14038TIP3    H263606   2.833   0.861   0.271 -0.2818 -0.8048  0.7069
14039TIP3   OH263607   0.255   4.605  15.327 -0.0129  0.2403 -0.1427
14039TIP3    H163608   0.295   4.691  15.341  2.0940 -0.3514 -1.9175
14039TIP3    H263609   0.328   4.548  15.301 -1.4918 -1.8542 -0.0185
14040TIP3   OH263610   5.838   3.830   6.628 -0.1773 -0.1411  0.4911
14040TIP3    H163611   5.759   3.871   6.594  0.4550  1.5090  0.9322
14040TIP3    H263612   5.905   3.847   6.562 -0.3332 -2.3510 -0.3483
14041TIP3   OH263613   5.355   5.122   0.574 -0.1865 -0.3084 -0.4989
14041TIP3    H163614   5.300   5.114   0.652 -0.2945 -2.4180 -0.7236
14041TIP3    H263615   5.427   5.178   0.601 -1.6292  1.2641  0.2621
14042TIP3   OH263616   6.188   3.465  14.039  0.4334 -0.0104  0.1843
14042TIP3    H163617   6.193   3.420  13.955  1.5449 -0.1397  0.3003
14042TIP3    H263618   6.255   3.423  14.093  1.1858  1.4455  0.4501
14043TIP3   OH263619   2.457   1.117  17.116  0.2544 -0.5547 -0.5040
14043TIP3    H163620   2.487   1.057  17.184 -0.4664  0.0313  0.3773
14043TIP3    H263621   2.473   1.204  17.153 -1.5034 -0.2167 -0.4123
14044TIP3   OH263622   1.259   4.292   3.660  0.2221  0.5792 -0.2305
14044TIP3    H163623   1.269   4.227   3.590  1.2232  0.6461 -0.1696
14044TIP3    H263624   1.291   4.247   3.738 -1.3766  0.3268  0.3054
14045TIP3   OH263625   0.293   2.873   0.954 -0.1498 -0.0106  0.0813
14045TIP3    H163626   0.337   2.822   0.887 -0.2236 -0.2149  0.1882
14045TIP3    H263627   0.350   2.869   1.030 -0.0291  0.2853  0.0081
14046TIP3   OH263628   5.461   3.478  13.247 -0.7142 -0.0029  0.2859
14046TIP3    H163629   5.427   3.419  13.180  1.2585 -0.6492 -0.1950
14046TIP3    H263630   5.396   3.473  13.317 -2.3698  0.0057 -1.1817
14047TIP3   OH263631   6.499   0.778  12.766 -0.1381  0.1087 -0.1830
14047TIP3    H163632   6.590   0.753  12.749  0.4557  1.5276  0.7435
14047TIP3    H263633   6.472   0.719  12.836  0.8481  1.1846  1.1467
14048TIP3   OH263634   6.587   0.258   4.048  0.2412 -0.2978 -0.2743
14048TIP3    H163635   6.555   0.169   4.037  0.6671 -0.5383  0.3819
14048TIP3    H263636   6.615   0.284   3.960  0.6113 -1.0141 -0.3789
14049TIP3   OH263637   0.303   1.688  12.885 -0.1025 -0.1619  0.2586
14049TIP3    H163638   0.362   1.750  12.842  0.5446 -0.4030  0.7831
14049TIP3    H263639   0.227   1.741  12.910 -0.4309  0.0212 -1.0131
14050TIP3   OH263640   3.987   1.260  12.689  0.6575 -0.9362  0.7046
14050TIP3    H163641   4.000   1.315  12.767  1.6710 -1.7380  1.1335
14050TIP3    H263642   3.971   1.173  12.724  0.7211 -1.2261  0.0167
14051TIP3   OH263643   5.305   2.456  17.169 -0.6287  0.0748 -0.5298
14051TIP3    H163644   5.400   2.456  17.154 -0.6817  1.2516 -0.9091
14051TIP3    H263645   5.294   2.508  17.248 -1.0653  1.1643 -1.2882
14052TIP3   OH263646   0.884   0.508   2.687 -0.4823 -0.3432 -0.7137
14052TIP3    H163647   0.912   0.591   2.648 -1.1850  1.0582  1.5333
14052TIP3    H263648   0.908   0.517   2.780 -1.8416 -2.0750 -0.1495
14053TIP3   OH263649   4.620   3.683   5.379 -0.4065 -0.2465  0.1736
14053TIP3    H163650   4.533   3.646   5.363 -0.2785 -1.2173  1.5258
14053TIP3    H263651   4.668   3.612   5.423  2.2384 -1.0751 -3.5521
14054TIP3   OH263652   1.068   4.701  14.578  0.4726 -0.1048 -0.1024
14054TIP3    H163653   1.003   4.697  14.648  0.6919 -2.8317  0.0723
14054TIP3    H263654   1.146   4.661  14.616  0.7056 -1.3260 -1.7661
14055TIP3   OH263655   1.959   4.533  14.679  0.0571 -0.6802  0.5325
14055TIP3    H163656   2.020   4.515  14.750  0.5123  0.7422  0.5223
14055TIP3    H263657   1.935   4.625  14.690 -0.7606 -0.7508 -0.4828
14056TIP3   OH263658   4.495   0.105  14.248 -0.1167 -0.2233  0.1571
14056TIP3    H163659   4.542   0.092  14.165 -0.7168 -0.5976 -0.1243
14056TIP3    H263660   4.457   0.192  14.240 -0.5754 -0.4513 -0.1596
14057TIP3   OH263661   1.124   2.111  11.097  0.3111 -0.0883 -0.2859
14057TIP3    H163662   1.115   2.156  11.013 -1.1085  0.8827  0.3390
14057TIP3    H263663   1.127   2.018  11.073  3.1740  0.2412 -1.5889
14058TIP3   OH263664   1.337   0.664  11.559  0.0697 -0.2373  0.4503
14058TIP3    H163665   1.339   0.705  11.645 -0.7561 -0.0507  0.3880
14058TIP3    H263666   1.428   0.663  11.530  0.5507 -1.5882  1.9162
14059TIP3   OH263667   5.932   4.755   1.507  0.0913 -0.5247 -0.3294
14059TIP3    H163668   6.011   4.768   1.455  0.0204 -0.2921 -0.3807
14059TIP3    H263669   5.907   4.665   1.489 -0.2569 -0.2773 -1.1567
14060TIP3   OH263670   1.942   0.445   5.363  0.4239 -0.1166 -0.0459
14060TIP3    H163671   1.930   0.401   5.448 -0.2048 -3.5837 -1.7353
14060TIP3    H263672   2.036   0.461   5.358  0.4658  0.2318  1.2989
14061TIP3   OH263673   1.097   1.745  15.656  0.2991  0.3643  0.0363
14061TIP3    H163674   1.123   1.657  15.630  2.6234  1.1820 -0.6570
14061TIP3    H263675   1.047   1.733  15.736  0.0451 -1.6151 -0.3798
14062TIP3   OH263676   2.664   5.007   1.094  0.1488  0.1848  0.1541
14062TIP3    H163677   2.578   5.044   1.074 -0.1725 -0.8881 -0.5997
14062TIP3    H263678   2.650   4.954   1.172 -0.5334 -2.0040 -1.3468
14063TIP3   OH263679   0.797   0.043  17.123 -0.0904  0.5112 -0.2902
14063TIP3    H163680   0.714  -0.005  17.122  0.5197 -0.5715 -0.9866
14063TIP3    H263681   0.799   0.087  17.038  0.3255  0.0286 -0.5330
14064TIP3   OH263682   0.922   2.288   4.515 -0.3468  0.1419  0.7503
14064TIP3    H163683   0.829   2.279   4.492 -0.5875  2.4264  0.5579
14064TIP3    H263684   0.922   2.300   4.610 -0.1374 -0.8134  0.8798
14065TIP3   OH263685   6.321   3.760  12.382 -0.2284  0.5008  0.1474
14065TIP3    H163686   6.367   3.709  12.315 -2.1618  0.5675 -1.3261
14065TIP3    H263687   6.275   3.828  12.333 -1.5593  0.6688  1.5498
14066TIP3   OH263688   4.849   4.857   3.351  0.6765  0.2564  0.2438
14066TIP3    H163689   4.787   4.912   3.303  1.0134 -0.3521 -0.9177
14066TIP3    H263690   4.903   4.919   3.400  1.9453  1.1145 -2.0881
14067TIP3   OH263691   6.204   4.483  16.499  0.0553  0.0381 -0.6429
14067TIP3    H163692   6.142   4.533  16.446 -0.8791  0.8559  1.1005
14067TIP3    H263693   6.207   4.531  16.582  1.3883 -1.2155  0.0741
14068TIP3   OH263694   5.839   1.308  12.329  0.2501  0.2205  0.8027
14068TIP3    H163695   5.913   1.347  12.283  1.1909 -1.2785  0.9697
14068TIP3    H263696   5.784   1.382  12.353  1.4532  1.3350  0.2533
14069TIP3   OH263697   5.010   5.822   5.840 -0.5034 -0.1047  0.4403
14069TIP3    H163698   4.981   5.909   5.810 -0.1799 -0.3893 -0.7386
14069TIP3    H263699   5.069   5.841   5.913 -0.5428  0.6663  0.2887
14070TIP3   OH263700   5.239   2.374  15.073  0.5482  0.1633  0.1553
14070TIP3    H163701   5.183   2.296  15.076  2.1711 -1.0453  1.8873
14070TIP3    H263702   5.187   2.443  15.114 -0.5498 -0.2538 -0.4967
14071TIP3   OH263703   6.140   4.419  11.767 -0.0416 -0.3207  0.1618
14071TIP3    H163704   6.073   4.385  11.707  0.4738 -0.4804 -0.3338
14071TIP3    H263705   6.092   4.440  11.847 -0.8568  0.4644 -0.5010
14072TIP3   OH263706   5.066   4.560   5.892  0.9147  0.3401 -0.1381
14072TIP3    H163707   5.001   4.520   5.951  1.1214 -0.6464 -0.5646
14072TIP3    H263708   5.084   4.492   5.827 -0.4616  1.8869 -2.2982
14073TIP3   OH263709   0.748   3.603  16.662  0.1867  0.4683 -0.0613
14073TIP3    H163710   0.710   3.518  16.639  0.4704  0.3823 -0.2117
14073TIP3    H263711   0.720   3.662  16.593 -1.3577  0.8825  0.8701
14074TIP3   OH263712   4.180   4.990   2.576 -0.1859  0.2458  0.1590
14074TIP3    H163713   4.154   4.918   2.518  1.6953 -0.7130  0.4330
14074TIP3    H263714   4.214   5.057   2.518  0.0679  0.0138  0.0402
14075TIP3   OH263715   1.565   1.669   5.533 -0.4711 -0.0419  0.3978
14075TIP3    H163716   1.558   1.740   5.470 -2.2207 -2.3635 -2.2707
14075TIP3    H263717   1.560   1.712   5.618  3.0235  3.3493 -0.8559
14076TIP3   OH263718   1.616   4.462   2.070 -0.0113 -0.6735 -0.1831
14076TIP3    H163719   1.687   4.400   2.085 -0.0961 -0.7335 -0.0244
14076TIP3    H263720   1.574   4.431   1.990  0.1634 -0.6157 -0.2987
14077TIP3   OH263721   1.622   4.513  11.613 -0.0929  0.2160  0.4513
14077TIP3    H163722   1.605   4.458  11.537  0.5647 -1.0574  1.2011
14077TIP3    H263723   1.544   4.569  11.619 -0.2606  0.1876 -0.9947
14078TIP3   OH263724   0.901   0.156  12.870  0.3694 -0.0422  0.1488
14078TIP3    H163725   0.861   0.117  12.948 -0.0295  1.6206  0.8108
14078TIP3    H263726   0.853   0.237  12.855  2.0805  0.9537 -0.3048
14079TIP3   OH263727   3.854   4.680  11.220 -0.3353 -0.0020  0.2234
14079TIP3    H163728   3.762   4.668  11.243 -0.1850  0.0775  0.8653
14079TIP3    H263729   3.868   4.619  11.148 -0.8284 -0.1931  0.2853
14080TIP3   OH263730   6.811   3.699   2.317 -0.4871 -0.2746 -0.0598
14080TIP3    H163731   6.780   3.781   2.277 -0.9623 -0.5793 -0.3237
14080TIP3    H263732   6.793   3.710   2.410  1.4755  0.8282  0.2547
14081TIP3   OH263733   6.264   2.524   2.394 -0.1096  0.1315 -0.6941
14081TIP3    H163734   6.265   2.566   2.480 -1.4642 -2.0338  0.4813
14081TIP3    H263735   6.289   2.433   2.412 -0.6519 -0.4335 -2.5517
14082TIP3   OH263736   4.376   4.729  13.316 -1.5087 -0.1955 -0.1745
14082TIP3    H163737   4.313   4.659  13.331 -0.2767 -1.1288  0.7982
14082TIP3    H263738   4.457   4.684  13.295 -0.4949  0.8920  1.2496
14083TIP3   OH263739   4.050   1.532  12.167 -0.2614  0.0046 -1.0004
14083TIP3    H163740   3.981   1.523  12.101 -1.6919 -1.2329  0.5764
14083TIP3    H263741   4.005   1.565  12.244  0.9493 -0.6421  0.0255
14084TIP3   OH263742   3.749   6.741   4.411 -0.0639  0.1428  0.2832
14084TIP3    H163743   3.840   6.770   4.417  0.4115 -1.3028  0.3113
14084TIP3    H263744   3.724   6.760   4.320 -0.6913  3.1542  0.9841
14085TIP3   OH263745   6.374   5.308  16.415  0.3880  0.3140  0.2298
14085TIP3    H163746   6.324   5.241  16.369  1.3133  0.1154 -0.5134
14085TIP3    H263747   6.465   5.284  16.400  0.7388  1.8241 -0.1854
14086TIP3   OH263748   5.044   3.107  16.472  0.5628 -0.4375  0.1626
14086TIP3    H163749   5.097   3.176  16.512  1.0069 -1.7157  1.9153
14086TIP3    H263750   5.108   3.050  16.428  0.4636 -0.9845  0.7124
14087TIP3   OH263751   5.478   3.313   3.128 -0.4663  1.2748  0.5331
14087TIP3    H163752   5.418   3.343   3.196 -0.2081  2.6045  0.2058
14087TIP3    H263753   5.439   3.344   3.046  1.3882  3.6117  0.4048
14088TIP3   OH263754   4.905   1.230  14.776  0.7841 -0.0857 -0.6909
14088TIP3    H163755   4.836   1.203  14.837  0.8736  0.9619 -0.0941
14088TIP3    H263756   4.872   1.204  14.690 -1.1213  1.7567 -0.5930
14089TIP3   OH263757   5.691   5.857  12.075  0.6977 -0.4583  0.5577
14089TIP3    H163758   5.688   5.846  12.170 -1.3205  0.7074  0.7000
14089TIP3    H263759   5.730   5.776  12.042  2.0826 -0.6105  2.3891
14090TIP3   OH263760   0.013   5.742  15.353 -0.3956  0.7455  0.2891
14090TIP3    H163761   0.048   5.692  15.427 -0.1903  1.4892  0.7181
14090TIP3    H263762  -0.047   5.805  15.393 -0.0824  1.3327 -0.1494
14091TIP3   OH263763   3.281   0.270  12.831  0.2601  0.1709 -0.0019
14091TIP3    H163764   3.266   0.295  12.923  1.8726  0.9228  0.0777
14091TIP3    H263765   3.285   0.353  12.784  1.2477 -0.1338 -0.4607
14092TIP3   OH263766   5.128   0.594  16.086  0.2588  0.0339 -0.3182
14092TIP3    H163767   5.050   0.547  16.056 -0.0207  0.8818 -0.9667
14092TIP3    H263768   5.151   0.652  16.014  1.5948 -0.3048 -0.1940
14093TIP3   OH263769   3.215   5.048   3.741 -0.2814 -0.0790 -0.4170
14093TIP3    H163770   3.220   5.140   3.769  0.3898 -0.2325 -0.0181
14093TIP3    H263771   3.305   5.017   3.746 -0.6464 -1.0466  0.4223
14094TIP3   OH263772   6.401   1.645   6.767 -0.3903 -0.1255 -0.0891
14094TIP3    H163773   6.490   1.678   6.755  1.0873 -3.0717  1.6739
14094TIP3    H263774   6.368   1.693   6.843  0.2441  0.0089  0.1092
14095TIP3   OH263775   6.344   4.038   5.540  0.4913 -0.3193 -0.6097
14095TIP3    H163776   6.333   3.999   5.454  1.4838 -1.6703 -0.1435
14095TIP3    H263777   6.283   3.991   5.596  2.8458 -2.4800  0.3140
14096TIP3   OH263778   6.664   6.571   4.516 -0.4651 -0.0174  0.3933
14096TIP3    H163779   6.726   6.561   4.588  0.3027  0.7875 -0.1367
14096TIP3    H263780   6.685   6.657   4.478  0.3168 -1.1426 -1.8812
14097TIP3   OH263781   1.890   4.600  12.513  0.6638  0.1638 -0.2767
14097TIP3    H163782   1.930   4.680  12.547  0.4800 -0.0504  0.4601
14097TIP3    H263783   1.922   4.531  12.571  0.6477 -0.2684 -0.7729
14098TIP3   OH263784   0.536   6.764  13.160  0.2294  0.5955  0.0456
14098TIP3    H163785   0.484   6.829  13.113  1.8389  1.7068 -0.2904
14098TIP3    H263786   0.554   6.696  13.096 -0.8120  0.1988  0.1708
14099TIP3   OH263787   2.541   3.317   1.544  0.1510 -0.3139  0.1842
14099TIP3    H163788   2.511   3.386   1.604 -2.3667 -1.0218 -0.1212
14099TIP3    H263789   2.598   3.362   1.482  0.4190  1.0240  1.3392
14100TIP3   OH263790   4.477   6.663  12.858  0.6392  0.1861  0.4720
14100TIP3    H163791   4.437   6.726  12.797 -1.3381 -2.1242 -0.7885
14100TIP3    H263792   4.562   6.643  12.819  0.4629  0.6299 -0.1691
14101TIP3   OH263793   2.981   6.465   2.407  0.2847  0.8509 -0.6089
14101TIP3    H163794   3.014   6.544   2.450  1.8175  0.1103 -0.3436
14101TIP3    H263795   3.023   6.465   2.321  1.6222 -0.4829  0.0052
14102TIP3   OH263796   5.209   4.239  10.993 -0.2797 -0.5217 -0.5238
14102TIP3    H163797   5.292   4.191  10.993  0.6888  1.0918 -0.5592
14102TIP3    H263798   5.233   4.330  10.977 -2.0411  0.0379 -0.2615
14103TIP3   OH263799   1.069   0.076  15.894  0.3514 -0.0786  0.1672
14103TIP3    H163800   1.001   0.009  15.905  0.5033 -0.1158  0.9466
14103TIP3    H263801   1.137   0.032  15.844  0.2951 -0.3999  0.3690
14104TIP3   OH263802   0.548   2.732   5.733  0.1262 -0.0034 -0.6453
14104TIP3    H163803   0.544   2.789   5.809 -2.9753  1.3736 -1.6645
14104TIP3    H263804   0.524   2.645   5.767  0.6864  0.1673  0.2227
14105TIP3   OH263805   4.070   5.073   4.221  0.3534 -0.1376  0.1025
14105TIP3    H163806   4.006   5.003   4.233 -0.4768  0.3801 -1.0951
14105TIP3    H263807   4.133   5.061   4.292  0.0534 -1.8864  0.1009
14106TIP3   OH263808   3.583   3.040  15.268  0.3535 -0.1976  0.2029
14106TIP3    H163809   3.543   3.103  15.328  0.8314  0.7393 -0.4247
14106TIP3    H263810   3.670   3.025  15.304 -0.1741 -1.4550  1.0124
14107TIP3   OH263811   4.041   6.119  11.126 -0.9564  0.5113 -0.2552
14107TIP3    H163812   4.130   6.088  11.142 -0.6574  1.8676  0.8149
14107TIP3    H263813   4.021   6.089  11.038 -0.1863 -1.5148  0.2082
14108TIP3   OH263814   4.567   3.331   5.292  0.4768  0.2626  0.1771
14108TIP3    H163815   4.622   3.376   5.228  0.0685  0.7875  0.1836
14108TIP3    H263816   4.501   3.286   5.240  1.5102 -1.2288  0.1096
14109TIP3   OH263817   2.039   2.999   4.334 -0.2943 -0.4423  0.0241
14109TIP3    H163818   2.043   2.911   4.298  0.3562 -0.8397  0.9985
14109TIP3    H263819   2.011   3.054   4.261  2.5199 -0.9451 -1.5867
14110TIP3   OH263820   4.273   1.161  15.676  0.5403  0.1520 -0.1047
14110TIP3    H163821   4.220   1.187  15.751  0.0506 -0.8839 -0.0708
14110TIP3    H263822   4.340   1.103  15.714  0.4854 -0.1193 -0.4272
14111TIP3   OH263823   3.639   6.364  10.750  0.3329 -0.3467  0.3750
14111TIP3    H163824   3.692   6.443  10.746  0.0421 -0.1873 -0.4888
14111TIP3    H263825   3.554   6.390  10.715 -0.3581 -0.5899  1.7837
14112TIP3   OH263826   6.473   4.403   1.064  0.2046 -0.2436 -0.3358
14112TIP3    H163827   6.436   4.397   1.152 -1.5456 -0.0528 -1.0306
14112TIP3    H263828   6.460   4.494   1.039  1.1295 -0.1794 -0.6350
14113TIP3   OH263829   6.763   1.943   1.187  0.0910  0.3244  0.3822
14113TIP3    H163830   6.677   1.958   1.226  0.0841  0.8057  0.1987
14113TIP3    H263831   6.824   1.945   1.260 -0.0864 -0.3547  0.5540
14114TIP3   OH263832   5.452   6.198  13.457  0.1796  0.5473 -0.0180
14114TIP3    H163833   5.372   6.241  13.486 -0.5171  1.6318 -3.1842
14114TIP3    H263834   5.422   6.118  13.414  0.6929  1.1860 -1.6388
14115TIP3   OH263835   2.863   6.172   1.133  0.4368  0.0250  0.5365
14115TIP3    H163836   2.771   6.145   1.142  0.0445  1.4081  0.9019
14115TIP3    H263837   2.863   6.264   1.160  1.8052  0.2514 -0.1955
14116TIP3   OH263838   1.515   2.267  12.687  0.0328  0.0469 -0.2092
14116TIP3    H163839   1.537   2.280  12.779 -0.7990  1.3768 -0.1536
14116TIP3    H263840   1.502   2.173  12.678 -0.0853 -0.0818  1.0902
14117TIP3   OH263841   5.218   3.038  15.694  0.4291 -0.0670 -0.4512
14117TIP3    H163842   5.218   3.133  15.684  1.5549 -0.0041 -0.0415
14117TIP3    H263843   5.237   3.024  15.787  1.8686 -0.6903 -0.8214
14118TIP3   OH263844   3.891   5.598   3.393 -0.1126  0.3574  0.1193
14118TIP3    H163845   3.850   5.514   3.372  0.7938 -0.7063  2.2779
14118TIP3    H263846   3.818   5.660   3.396 -0.9548 -0.5713 -0.4142
14119TIP3   OH263847   2.840   1.600  16.243  0.2754  0.3415  0.5951
14119TIP3    H163848   2.851   1.582  16.150 -1.3524  0.6666  0.3166
14119TIP3    H263849   2.758   1.650  16.249  0.5094  0.5964  2.1666
14120TIP3   OH263850   5.494   5.820   0.626  0.0610 -0.2164 -0.2488
14120TIP3    H163851   5.542   5.797   0.547  0.5372 -0.9843  0.2593
14120TIP3    H263852   5.559   5.860   0.683 -0.7486  2.6764 -1.1509
14121TIP3   OH263853   6.070   3.845  13.948  0.4495 -0.0218 -0.0150
14121TIP3    H163854   5.993   3.853  14.004  0.6991  2.0669  0.0971
14121TIP3    H263855   6.134   3.798  14.002  0.2198  0.7697  0.9759
14122TIP3   OH263856   4.626   1.402   3.468  0.3078 -0.2233 -0.4330
14122TIP3    H163857   4.600   1.493   3.454 -1.2819 -0.5256  0.2894
14122TIP3    H263858   4.559   1.367   3.527  1.0695 -1.7747 -0.4436
14123TIP3   OH263859   3.840   1.015   1.622  0.0588  0.4890 -0.0282
14123TIP3    H163860   3.755   1.054   1.598  0.5756  0.9833 -1.1720
14123TIP3    H263861   3.902   1.055   1.561  0.9244 -0.7572 -0.0092
14124TIP3   OH263862   5.874   5.918   0.082 -0.3197  0.0662 -0.5060
14124TIP3    H163863   5.879   6.013   0.082 -0.5065  0.0788 -1.1630
14124TIP3    H263864   5.948   5.890   0.028  0.1965 -0.1959  0.3084
14125TIP3   OH263865   1.672   4.366  11.067  0.0549 -0.3139 -0.3167
14125TIP3    H163866   1.629   4.301  11.010 -1.5276  0.3172  0.0935
14125TIP3    H263867   1.678   4.444  11.013 -1.6879  0.3666  0.3885
14126TIP3   OH263868   2.697   5.076  14.602 -0.2702  0.0963  0.0648
14126TIP3    H163869   2.755   4.999  14.607 -0.4253 -0.1001 -1.0380
14126TIP3    H263870   2.610   5.040  14.587 -0.4175  0.4678  0.0132
14127TIP3   OH263871   4.436   0.743  15.039 -0.3642  0.1345  0.0148
14127TIP3    H163872   4.363   0.774  14.984 -0.3392 -1.1224 -0.7487
14127TIP3    H263873   4.509   0.731  14.978 -0.6508 -2.3606  0.0710
14128TIP3   OH263874   4.640   5.973  16.216 -0.5188 -0.2167  0.5594
14128TIP3    H163875   4.638   5.892  16.267  0.6906  0.3827  1.6299
14128TIP3    H263876   4.672   6.039  16.278 -0.8444  0.9375 -0.4749
14129TIP3   OH263877   2.286   4.640   3.687  0.4666 -0.1629 -0.5912
14129TIP3    H163878   2.226   4.714   3.691  0.3496 -0.2958  0.3097
14129TIP3    H263879   2.232   4.564   3.707  1.1432 -0.1554  1.4771
14130TIP3   OH263880   6.442   4.608   5.258 -0.6854  0.3484 -0.6244
14130TIP3    H163881   6.517   4.560   5.292 -0.6605 -0.2989 -1.5473
14130TIP3    H263882   6.365   4.560   5.290 -0.6585 -0.4160 -1.6680
14131TIP3   OH263883   2.884   6.432   3.391 -0.6173 -0.3399  0.5029
14131TIP3    H163884   2.929   6.515   3.376 -0.7451 -0.4764 -0.7307
14131TIP3    H263885   2.900   6.413   3.484 -1.7802  1.7566  1.2063
14132TIP3   OH263886   0.569   2.420  16.248  0.0062  0.4767  0.6869
14132TIP3    H163887   0.507   2.492  16.233 -0.5047 -0.0285  0.3617
14132TIP3    H263888   0.539   2.380  16.330 -1.8034 -1.4857 -0.8308
14133TIP3   OH263889   0.246   0.649   1.597  0.6720 -0.0833 -0.7125
14133TIP3    H163890   0.228   0.729   1.548  1.6000 -0.3864 -1.5856
14133TIP3    H263891   0.196   0.581   1.551  0.0175 -0.0486 -0.0724
14134TIP3   OH263892   6.501   4.809  15.466  0.4353 -0.0573 -0.2883
14134TIP3    H163893   6.509   4.832  15.373 -1.4802 -1.6203 -0.9255
14134TIP3    H263894   6.483   4.892  15.509  0.0446  0.5331 -1.5252
14135TIP3   OH263895   0.047   6.548  11.969  0.6842  0.3065  0.3096
14135TIP3    H163896   0.010   6.615  11.911 -0.8164 -1.5216 -0.9931
14135TIP3    H263897   0.138   6.575  11.982  0.4675  1.9367 -1.1452
14136TIP3   OH263898   1.510   5.102   3.697  0.4600 -0.1874 -0.0683
14136TIP3    H163899   1.597   5.063   3.695  0.6720 -0.0959  2.9749
14136TIP3    H263900   1.520   5.181   3.750 -1.5190 -0.3560  0.6527
14137TIP3   OH263901   1.678   0.782  15.851  0.1996 -0.3875  1.0013
14137TIP3    H163902   1.694   0.792  15.945  0.3747  0.6623  0.8709
14137TIP3    H263903   1.620   0.854  15.829 -0.5037 -1.1068  0.4516
14138TIP3   OH263904   4.030   0.363  14.837 -0.1217 -0.1129  0.2233
14138TIP3    H163905   4.091   0.411  14.893 -0.9918 -0.0656  1.1493
14138TIP3    H263906   4.025   0.415  14.757  0.5973  0.1921  0.3699
14139TIP3   OH263907   6.122   2.576  12.436  0.4608  0.0560 -0.2443
14139TIP3    H163908   6.153   2.574  12.345 -0.9011  1.4497 -0.7768
14139TIP3    H263909   6.108   2.669  12.455  0.2119 -0.2540  1.2240
14140TIP3   OH263910   4.886   6.279   2.822  0.2874  0.4353  0.2776
14140TIP3    H163911   4.926   6.246   2.902 -0.6544 -0.1231  0.5289
14140TIP3    H263912   4.942   6.353   2.797  1.9042 -0.7515  0.2035
14141TIP3   OH263913   2.784   2.884  14.699  0.2987  0.4846 -0.1259
14141TIP3    H163914   2.820   2.913  14.615  1.0887  0.5084  0.2160
14141TIP3    H263915   2.819   2.946  14.763 -2.0857  1.8692 -0.0350
14142TIP3   OH263916   3.103   4.534   0.336  0.5510  0.0135 -0.1821
14142TIP3    H163917   3.179   4.529   0.277  0.8340  0.4200  0.1414
14142TIP3    H263918   3.129   4.481   0.412  0.4420  0.0183 -0.1424
14143TIP3   OH263919   1.741   1.178   4.558 -0.0539  0.4061  0.3827
14143TIP3    H163920   1.805   1.226   4.505  0.8960 -0.0413  1.1052
14143TIP3    H263921   1.686   1.246   4.597 -0.3205  0.7729 -0.5861
14144TIP3   OH263922   5.855   3.450  16.979  0.0909 -0.3083 -0.0395
14144TIP3    H163923   5.935   3.497  16.955 -0.6659  0.5939 -0.8382
14144TIP3    H263924   5.794   3.518  17.008 -0.6076 -0.9178 -0.0496
14145TIP3   OH263925   4.190   0.506  12.257 -0.6618  0.1087 -0.0020
14145TIP3    H163926   4.125   0.494  12.327 -0.8567 -1.7307 -0.4616
14145TIP3    H263927   4.242   0.581  12.286 -2.2469  0.8920  0.9371
14146TIP3   OH263928   3.142   5.658  11.566 -0.1053 -0.5203 -0.2419
14146TIP3    H163929   3.187   5.742  11.573  0.6148 -0.9547  0.5942
14146TIP3    H263930   3.049   5.680  11.563  0.0376  0.2704  0.7039
14147TIP3   OH263931   6.425   5.438   4.357 -0.0060 -0.4019 -0.5267
14147TIP3    H163932   6.410   5.490   4.278  1.8441  1.8054  0.4442
14147TIP3    H263933   6.458   5.354   4.325 -1.0553 -0.2381 -2.1224
14148TIP3   OH263934   5.142   2.357  12.876 -0.7048 -0.5872 -0.5011
14148TIP3    H163935   5.130   2.402  12.792  0.3678  0.0274 -0.3316
14148TIP3    H263936   5.211   2.405  12.920 -1.7394 -0.4634  1.0578
14149TIP3   OH263937   3.123   6.008   0.127  0.2001  0.1050  0.4086
14149TIP3    H163938   3.132   6.085   0.183 -0.5132  0.4962  0.0063
14149TIP3    H263939   3.191   6.019   0.060  0.9556 -0.2890  1.0898
14150TIP3   OH263940   4.045   6.171  15.526  0.3903 -0.1684 -0.2219
14150TIP3    H163941   4.008   6.163  15.614 -1.0260  1.3540 -0.6357
14150TIP3    H263942   4.136   6.143  15.536  1.1905  2.8161  2.4271
14151TIP3   OH263943   0.050   0.651  17.109  0.4681  0.5510  0.3113
14151TIP3    H163944   0.029   0.660  17.202  0.8058 -0.8480  0.5418
14151TIP3    H263945   0.097   0.569  17.102 -1.3332 -0.4466 -1.3882
14152TIP3   OH263946   1.613   3.082  16.616 -0.3886  0.0925  0.6125
14152TIP3    H163947   1.664   3.111  16.540  0.4210  1.1143  1.5092
14152TIP3    H263948   1.640   2.991  16.628  0.0294  0.1434  0.1177
14153TIP3   OH263949   5.240   5.458   6.138 -0.4985 -0.2666 -0.2958
14153TIP3    H163950   5.190   5.385   6.174  0.2773 -0.5073  0.3233
14153TIP3    H263951   5.210   5.534   6.188 -0.7756 -0.2830 -0.4345
14154TIP3   OH263952   6.006   1.073   0.774  0.0589 -0.1575 -0.2717
14154TIP3    H163953   6.056   1.101   0.697  0.3342  0.0463 -0.0240
14154TIP3    H263954   5.917   1.061   0.742  0.4831 -1.6258 -0.9698
14155TIP3   OH263955   2.015   2.912   6.048  0.1617 -0.0397 -0.7676
14155TIP3    H163956   2.102   2.930   6.013  0.2091  0.5170 -0.3797
14155TIP3    H263957   2.032   2.864   6.130  0.1802  1.5218  0.1767
14156TIP3   OH263958   4.526   0.410   2.002 -0.5022  0.0157  0.1348
14156TIP3    H163959   4.519   0.459   2.083 -0.9033 -1.2287  0.8721
14156TIP3    H263960   4.502   0.320   2.025 -2.2289 -0.0566 -1.6799
14157TIP3   OH263961   3.612   4.845   5.238  0.0375  0.1582  0.0829
14157TIP3    H163962   3.616   4.755   5.206  2.5034 -0.4362  1.7740
14157TIP3    H263963   3.572   4.839   5.324 -1.1443  0.9307 -0.3834
14158TIP3   OH263964   3.752   0.031  11.617  0.2448  0.3927 -0.2038
14158TIP3    H163965   3.742  -0.027  11.692  1.0423  0.8148  0.2406
14158TIP3    H263966   3.845   0.030  11.598  0.1807  1.0401 -0.5742
14159TIP3   OH263967   3.315   6.093  14.674 -0.6444  0.2287  0.0659
14159TIP3    H163968   3.392   6.145  14.653 -1.0142  0.9479  0.4649
14159TIP3    H263969   3.348   6.025  14.734 -0.7665  2.2646  2.6385
14160TIP3   OH263970   1.255   5.885   5.543  0.3252 -0.1423  0.3505
14160TIP3    H163971   1.278   5.955   5.481  0.4338 -0.3145  0.1958
14160TIP3    H263972   1.322   5.891   5.611 -1.3909  1.9503  2.0292
14161TIP3   OH263973   3.991   5.593  15.685 -0.1522 -0.1345 -0.3515
14161TIP3    H163974   3.928   5.663  15.705 -1.4742 -1.5041  0.4719
14161TIP3    H263975   3.941   5.529  15.636  1.1811 -0.3169 -1.5291
14162TIP3   OH263976   4.589   6.693   0.056 -0.0637  0.2059  0.1031
14162TIP3    H163977   4.642   6.652  -0.012 -0.1091  0.2764  0.0258
14162TIP3    H263978   4.608   6.786   0.049 -0.9641  0.3510 -0.5929
14163TIP3   OH263979   2.755   5.272   3.485 -0.3647 -0.4530 -0.0848
14163TIP3    H163980   2.767   5.287   3.579  0.7130  1.3889 -0.4576
14163TIP3    H263981   2.844   5.262   3.451 -0.7534 -1.2629 -0.8919
14164TIP3   OH263982   5.561   6.563   3.821  0.5434  0.0787 -0.6367
14164TIP3    H163983   5.522   6.518   3.746 -0.5521  0.9304 -0.5966
14164TIP3    H263984   5.653   6.575   3.796  0.0273  1.1033 -2.2287
14165TIP3   OH263985   6.114   1.419  15.207 -1.0099 -0.3423  0.2972
14165TIP3    H163986   6.102   1.490  15.270 -0.0433  0.7044 -0.6594
14165TIP3    H263987   6.077   1.342  15.251 -0.0615  0.2533  2.3086
14166TIP3   OH263988   3.024   3.003   5.328 -0.1089  0.2157 -0.5952
14166TIP3    H163989   2.997   2.994   5.236  0.9547  2.3411 -1.1808
14166TIP3    H263990   3.113   3.037   5.323  0.4115 -0.7714  1.2664
14167TIP3   OH263991   1.806   5.835  10.489  0.1319 -0.1306 -0.5121
14167TIP3    H163992   1.828   5.866  10.577 -1.2824  0.7016 -0.4200
14167TIP3    H263993   1.877   5.868  10.434  1.1159 -0.7913  0.3157
14168TIP3   OH263994   5.592   1.231  13.343 -0.3164  0.1489 -0.2200
14168TIP3    H163995   5.567   1.279  13.264  0.4961 -0.2950 -0.7804
14168TIP3    H263996   5.524   1.164  13.353 -1.2539  1.1709  0.3597
14169TIP3   OH263997   0.097   3.510  11.147 -1.1233 -0.6784  0.2758
14169TIP3    H163998   0.053   3.593  11.128 -0.8521 -0.7872 -0.8988
14169TIP3    H263999   0.070   3.488  11.236 -1.9404  0.2021  0.2570
14170TIP3   OH264000   0.649   1.913  14.881  0.0032 -0.0484  0.5089
14170TIP3    H164001   0.696   1.857  14.944  0.0715 -1.2184 -0.5350
14170TIP3    H264002   0.633   1.856  14.806 -0.4635  1.1950 -0.3689
14171TIP3   OH264003   5.238   6.105   4.124 -0.4617 -0.8414  0.2022
14171TIP3    H164004   5.222   6.089   4.217  1.8532  0.3186  0.8637
14171TIP3    H264005   5.254   6.199   4.118  0.8556 -1.1224 -1.1167
14172TIP3   OH264006   5.922   2.441   6.243 -0.1462 -0.0861  0.3790
14172TIP3    H164007   5.996   2.478   6.291  0.0882 -0.0381 -0.0252
14172TIP3    H264008   5.886   2.375   6.303  1.2994 -1.3807 -0.1206
14173TIP3   OH264009   0.347   5.472  11.097 -0.2139 -0.0071  0.2411
14173TIP3    H164010   0.330   5.399  11.037  1.3833  0.3615 -0.7226
14173TIP3    H264011   0.366   5.430  11.181  1.0634 -0.7491 -0.3933
14174TIP3   OH264012   3.478   0.508  15.563 -0.3278 -0.5666  0.1725
14174TIP3    H164013   3.544   0.521  15.631 -0.6388 -0.7205  0.5089
14174TIP3    H264014   3.528   0.483  15.485  0.0718  0.1234  0.1990
14175TIP3   OH264015   2.283   3.704  11.304 -0.5752  0.1176  0.1652
14175TIP3    H164016   2.253   3.616  11.279 -0.4483  0.0801  0.1471
14175TIP3    H264017   2.255   3.760  11.233  0.2775 -0.0745 -0.3274
14176TIP3   OH264018   3.270   1.934   1.549 -0.5606  0.0216 -0.3410
14176TIP3    H164019   3.324   1.931   1.629 -0.4741 -1.1664 -0.4368
14176TIP3    H264020   3.333   1.923   1.478 -0.4637  2.2809 -0.6916
14177TIP3   OH264021   6.771   5.981   0.796  0.0780 -0.1297  0.1815
14177TIP3    H164022   6.712   6.054   0.817 -1.0487 -1.2085  0.9579
14177TIP3    H264023   6.790   5.990   0.703 -2.0794 -0.2257 -0.3189
14178TIP3   OH264024   1.545   4.457  13.778  0.2186  0.7700 -0.1517
14178TIP3    H164025   1.578   4.367  13.775 -0.5598  0.2358  3.0994
14178TIP3    H264026   1.622   4.512  13.765  0.9065 -0.3715 -1.0382
14179TIP3   OH264027   1.559   1.002   5.166 -0.2953  0.3399 -0.1554
14179TIP3    H164028   1.516   1.087   5.153 -0.6230  0.4248  1.3811
14179TIP3    H264029   1.551   0.959   5.081 -2.0081  1.0036 -0.3813
14180TIP3   OH264030   5.291   3.435  13.464 -0.1309 -0.0047 -0.3938
14180TIP3    H164031   5.334   3.494  13.526  1.2040 -1.3232 -0.0077
14180TIP3    H264032   5.198   3.449  13.478  0.1264  2.2212 -0.5520
14181TIP3   OH264033   2.602   2.207   1.475 -0.1347  0.2515  0.4210
14181TIP3    H164034   2.553   2.172   1.401  0.0743  3.9330 -1.6854
14181TIP3    H264035   2.668   2.139   1.494 -0.4536 -1.0360 -2.5059
14182TIP3   OH264036   3.375   2.001  16.481 -0.0551  0.4341  0.1741
14182TIP3    H164037   3.319   2.069  16.518 -0.2967  0.4968 -0.3104
14182TIP3    H264038   3.354   1.922  16.531 -0.5485  0.4646  0.0135
14183TIP3   OH264039   2.415   5.844   2.440 -0.4040  0.1417 -0.7771
14183TIP3    H164040   2.494   5.876   2.483 -0.2525  0.0658 -1.0009
14183TIP3    H264041   2.344   5.866   2.501 -0.1477 -0.3133 -0.3045
14184TIP3   OH264042   6.117   5.039  14.701  0.1476  0.1533  0.1248
14184TIP3    H164043   6.181   4.999  14.760 -1.2507 -2.6495 -0.1259
14184TIP3    H264044   6.169   5.069  14.626  1.3684 -0.5005  0.6796
14185TIP3   OH264045   4.349   2.357   0.491 -0.1271 -0.0979  0.1289
14185TIP3    H164046   4.334   2.450   0.507  1.8287  0.2265  0.3742
14185TIP3    H264047   4.316   2.341   0.403 -1.4197  0.5756  0.4745
14186TIP3   OH264048   2.840   6.033   0.350 -0.2582  0.9709  0.0771
14186TIP3    H164049   2.774   6.083   0.397  0.1199 -0.1800  1.9712
14186TIP3    H264050   2.880   6.096   0.290 -2.9564  1.7115 -1.0787
14187TIP3   OH264051   0.611   6.234  10.353 -0.6068  0.2874  0.1833
14187TIP3    H164052   0.675   6.255  10.421 -1.1339  1.1070  0.4395
14187TIP3    H264053   0.663   6.192  10.284  0.1326  0.5341  0.5728
14188TIP3   OH264054   0.336   3.757  11.471  0.1416  0.4139 -0.0495
14188TIP3    H164055   0.391   3.818  11.423 -0.1008 -0.0681 -0.9751
14188TIP3    H264056   0.249   3.799  11.473 -0.6106 -0.8106 -2.6521
14189TIP3   OH264057   2.390   5.967   4.579  0.1283  0.0279  0.3801
14189TIP3    H164058   2.468   5.926   4.617  0.9764  0.2221 -1.0632
14189TIP3    H264059   2.383   6.050   4.624 -0.1923 -0.6581  1.6404
14190TIP3   OH264060   6.492   0.538  14.839 -0.2482 -0.7435  0.0025
14190TIP3    H164061   6.543   0.457  14.844  0.5826 -0.2113  0.6885
14190TIP3    H264062   6.437   0.528  14.762  1.8879 -0.8106 -1.6242
14191TIP3   OH264063   3.297   4.357   4.273  0.3691 -0.4626  0.1236
14191TIP3    H164064   3.359   4.380   4.342  0.3966 -1.2793  0.3762
14191TIP3    H264065   3.255   4.440   4.250  2.2970  0.3272 -0.8071
14192TIP3   OH264066   5.652   4.314  13.654 -0.7947 -0.0452  0.2635
14192TIP3    H164067   5.624   4.346  13.568 -0.5139  2.5738  1.0570
14192TIP3    H264068   5.671   4.393  13.704  1.5752 -1.5427  1.9370
14193TIP3   OH264069   0.709   1.145   1.041  0.1716  0.0546  1.0145
14193TIP3    H164070   0.662   1.133   0.958  0.3550 -2.1030  1.1600
14193TIP3    H264071   0.790   1.188   1.016  0.5864 -1.2790 -0.1067
14194TIP3   OH264072   1.259   3.765   2.044  0.4155 -0.1628  0.0220
14194TIP3    H164073   1.338   3.799   2.085  0.2445  0.6241 -0.2909
14194TIP3    H264074   1.189   3.785   2.107  0.5136 -1.2966  0.5293
14195TIP3   OH264075   4.786   5.054   0.272  0.2035  0.7308  0.3782
14195TIP3    H164076   4.734   4.976   0.250  1.5596  0.0382 -0.4958
14195TIP3    H264077   4.817   5.037   0.361  0.5426  0.2296  0.1711
14196TIP3   OH264078   1.349   6.252   4.058  0.1341 -0.6811  0.4916
14196TIP3    H164079   1.329   6.169   4.016  0.7460 -0.7355  0.2954
14196TIP3    H264080   1.440   6.244   4.085  0.4341  0.1922 -0.1846
14197TIP3   OH264081   0.813   0.728   0.709 -0.7664  0.1276  0.1795
14197TIP3    H164082   0.867   0.804   0.729  1.5075 -1.2685 -0.2054
14197TIP3    H264083   0.866   0.676   0.649 -1.9165 -2.0777  0.9288
14198TIP3   OH264084   5.622   6.323  14.953 -0.2116  0.6049  0.3812
14198TIP3    H164085   5.640   6.270  14.876 -2.1346 -0.4847  0.6168
14198TIP3    H264086   5.652   6.411  14.930 -3.1748  1.0111 -2.7408
14199TIP3   OH264087   6.284   5.801   3.213  0.2093 -0.5674 -0.1831
14199TIP3    H164088   6.351   5.844   3.160  0.1211 -1.2772 -0.8862
14199TIP3    H264089   6.301   5.832   3.302  2.9095 -2.4280  0.0779
14200TIP3   OH264090   3.286   1.624  10.388 -0.0068  0.6210 -0.1905
14200TIP3    H164091   3.260   1.704  10.434 -1.5439  0.3085 -0.4357
14200TIP3    H264092   3.374   1.642  10.356  0.0297  1.8675  0.5419
14201TIP3   OH264093   6.338   5.416   3.005 -0.3309  0.2124  0.2032
14201TIP3    H164094   6.257   5.386   2.964 -0.0153 -2.3277  1.2756
14201TIP3    H264095   6.317   5.424   3.098  0.4580  0.1632  0.3965
14202TIP3   OH264096   5.681   1.256   1.752 -0.0755  0.3541  0.2314
14202TIP3    H164097   5.743   1.244   1.680 -0.0107  1.6202  0.0495
14202TIP3    H264098   5.616   1.187   1.740  2.5184 -2.6823  1.8531
14203TIP3   OH264099   5.308   2.610  15.316  0.0030 -0.1546  0.1503
14203TIP3    H164100   5.307   2.678  15.249 -0.4965 -1.1100 -0.8472
14203TIP3    H264101   5.221   2.570  15.309 -0.8845  1.0488  2.7912
14204TIP3   OH264102   2.394   5.379  14.841 -0.4289  0.4966  0.5886
14204TIP3    H164103   2.434   5.428  14.769 -0.8067 -0.3002 -0.1770
14204TIP3    H264104   2.389   5.442  14.913  1.2740  0.8997  0.3863
14205TIP3   OH264105   0.734   4.755   4.232  0.3952 -0.3397  0.2980
14205TIP3    H164106   0.714   4.671   4.273 -2.2726 -0.7513 -1.6051
14205TIP3    H264107   0.714   4.820   4.300  0.5884 -1.1503  1.1490
14206TIP3   OH264108   2.455   6.621  12.339  0.1137  0.0118 -1.1274
14206TIP3    H164109   2.502   6.679  12.398  0.2687  1.2819 -2.4454
14206TIP3    H264110   2.512   6.612  12.262 -0.9943  0.1731 -2.0091
14207TIP3   OH264111   2.752   2.567  16.879  0.4030 -0.7039  0.3186
14207TIP3    H164112   2.838   2.604  16.859 -0.2252  0.8755  0.3721
14207TIP3    H264113   2.770   2.494  16.938  1.6533  0.2233  1.1288
14208TIP3   OH264114   1.748   1.261  14.771  0.1826 -0.0983 -0.5455
14208TIP3    H164115   1.773   1.198  14.838  0.7255 -1.0902 -1.6509
14208TIP3    H264116   1.689   1.213  14.713 -1.2098  1.0759 -0.1784
14209TIP3   OH264117   2.048   2.643  15.341 -0.1526 -0.1050  0.2794
14209TIP3    H164118   2.132   2.622  15.381 -0.0958 -1.7647 -0.5845
14209TIP3    H264119   2.070   2.669  15.251 -0.4492  1.1620  0.5585
14210TIP3   OH264120   4.622   1.013   3.587  0.2283  0.1895  0.0159
14210TIP3    H164121   4.555   1.021   3.655 -0.9889 -2.6756 -0.6940
14210TIP3    H264122   4.700   0.985   3.635 -0.5210 -1.4597  0.3559
14211TIP3   OH264123   0.764   5.434  14.877  0.0751  0.4420 -0.2193
14211TIP3    H164124   0.756   5.430  14.972  3.2512  2.9610  0.3296
14211TIP3    H264125   0.783   5.526  14.858  1.8514 -0.3639 -3.0150
14212TIP3   OH264126   5.382   4.318  12.174 -0.3942 -0.3614  0.1253
14212TIP3    H164127   5.429   4.348  12.252  1.1200  2.1571 -1.6233
14212TIP3    H264128   5.333   4.395  12.145 -1.2445 -1.3738 -1.2101
14213TIP3   OH264129   6.264   2.581   0.970  0.3767 -0.0614  0.1089
14213TIP3    H164130   6.355   2.560   0.951  0.5750  0.2367  0.7136
14213TIP3    H264131   6.227   2.500   1.005  0.9217  0.3273  1.6607
14214TIP3   OH264132   1.954   1.617  12.298 -0.0243  0.4068  0.2767
14214TIP3    H164133   2.016   1.639  12.368 -1.1827  0.5838  1.2913
14214TIP3    H264134   1.946   1.522  12.301 -0.1769  0.4250  0.4919
14215TIP3   OH264135   2.601   0.908  11.928  0.5265 -0.2748 -0.2669
14215TIP3    H164136   2.524   0.954  11.959  0.1917 -0.6690 -0.5036
14215TIP3    H264137   2.623   0.950  11.845  1.5475  0.9213  0.5619
14216TIP3   OH264138   1.734   1.957  11.268  0.6250  0.1411  0.3586
14216TIP3    H164139   1.824   1.979  11.245 -0.0452  1.0893 -1.6136
14216TIP3    H264140   1.683   1.980  11.190 -1.2323 -1.0794  1.1287
14217TIP3   OH264141   6.319   6.720   5.615 -0.5762 -0.3452  0.1063
14217TIP3    H164142   6.370   6.640   5.633 -0.4260 -0.0206  1.1863
14217TIP3    H264143   6.364   6.788   5.664 -0.0354  0.6694 -1.6909
14218TIP3   OH264144   3.159   2.321   2.223  0.3528 -0.4382 -0.1409
14218TIP3    H164145   3.109   2.245   2.253  2.2144 -0.8787  2.0722
14218TIP3    H264146   3.237   2.284   2.181 -0.6513  0.2582 -2.8844
14219TIP3   OH264147   1.633   5.854   2.298  0.0560  0.8287  0.2632
14219TIP3    H164148   1.563   5.798   2.263 -0.4835  2.4133 -1.3834
14219TIP3    H264149   1.587   5.932   2.330  0.9371  1.1737  0.7268
14220TIP3   OH264150   1.377   4.115   0.534  0.4773  0.1330 -0.0624
14220TIP3    H164151   1.358   4.045   0.596  0.9092 -0.0946 -0.1798
14220TIP3    H264152   1.307   4.108   0.468  0.6585 -0.3557 -0.2116
14221TIP3   OH264153   3.199   0.943  15.473  0.0106  0.0185 -0.3761
14221TIP3    H164154   3.264   0.874  15.457  0.0001  0.1278 -0.8862
14221TIP3    H264155   3.152   0.914  15.552  1.9664  0.8761  1.1974
14222TIP3   OH264156   1.321   0.628   1.848 -0.2634  0.1471  0.3694
14222TIP3    H164157   1.233   0.667   1.843  0.3046  1.4935  0.6695
14222TIP3    H264158   1.370   0.670   1.778 -0.5300 -2.5429 -1.6224
14223TIP3   OH264159   0.457   1.526   5.055 -0.5367  0.1181  0.2213
14223TIP3    H164160   0.531   1.504   5.111 -1.0916 -1.6362  0.3220
14223TIP3    H264161   0.453   1.455   4.992 -0.8697  1.2741 -1.1171
14224TIP3   OH264162   4.559   0.613  13.593  0.1355 -0.0231 -0.2868
14224TIP3    H164163   4.597   0.652  13.515  0.1289  1.4459  0.4110
14224TIP3    H264164   4.496   0.550  13.560  1.5009 -0.8441 -1.4577
14225TIP3   OH264165   1.146   5.094  15.183  0.1561  0.1124  0.1773
14225TIP3    H164166   1.179   5.074  15.096 -2.3438  1.8655 -1.3031
14225TIP3    H264167   1.172   5.184  15.199 -1.0811  0.4678  0.3321
14226TIP3   OH264168   0.045   4.031  12.245 -0.0781 -0.1502 -0.1854
14226TIP3    H164169   0.011   4.057  12.331  1.4766 -0.5937  0.5996
14226TIP3    H264170   0.134   4.066  12.244  0.6180 -1.8769 -0.7805
14227TIP3   OH264171   1.092   6.273  13.586 -0.0109  0.2502  0.1866
14227TIP3    H164172   1.118   6.296  13.497  1.4949  2.3074  1.0827
14227TIP3    H264173   1.107   6.352  13.637  1.3219 -1.4818  2.7163
14228TIP3   OH264174   6.325   4.347   4.557  0.5648  0.1063 -0.4315
14228TIP3    H164175   6.259   4.394   4.608  3.2073  2.6220  1.0154
14228TIP3    H264176   6.364   4.285   4.619  0.5211 -0.3433 -0.8505
14229TIP3   OH264177   2.542   1.274   1.490 -0.2661 -0.0723  0.1068
14229TIP3    H164178   2.611   1.281   1.555  2.8744 -0.6087 -2.8583
14229TIP3    H264179   2.506   1.186   1.502  0.0832 -0.0719  1.2226
14230TIP3   OH264180   1.464   6.633  13.127  0.1823  0.1476  0.4537
14230TIP3    H164181   1.465   6.668  13.216  0.0405  2.2931 -0.3369
14230TIP3    H264182   1.555   6.609  13.110  0.5324  1.3200  0.5963
14231TIP3   OH264183   5.692   2.725  13.229  0.2073 -0.3904  0.2966
14231TIP3    H164184   5.732   2.642  13.206 -1.1327 -1.0944  0.4260
14231TIP3    H264185   5.618   2.735  13.168 -0.1912  0.2539  0.8649
14232TIP3   OH264186   1.818   4.306  12.333 -0.3853 -0.0170 -0.0070
14232TIP3    H164187   1.841   4.361  12.259 -0.2734  1.7728  1.2886
14232TIP3    H264188   1.788   4.367  12.400 -1.9612 -1.6904  0.9115
14233TIP3   OH264189   4.182   0.569   2.711 -0.0733  0.1146 -0.3157
14233TIP3    H164190   4.202   0.583   2.619 -1.2367  3.2385 -0.2029
14233TIP3    H264191   4.212   0.648   2.755 -1.1160 -0.5348  1.7130
14234TIP3   OH264192   6.585   0.400   3.625  0.4409  0.0528 -0.0322
14234TIP3    H164193   6.643   0.411   3.700  1.2674  0.0851 -0.6565
14234TIP3    H264194   6.505   0.363   3.661  1.7082 -2.3582  0.5521
14235TIP3   OH264195   3.130   3.107   1.260  0.2985  0.4113  0.2093
14235TIP3    H164196   3.180   3.079   1.336 -0.7603 -1.5078  0.2678
14235TIP3    H264197   3.162   3.051   1.189 -2.0830 -1.3278  0.3811
14236TIP3   OH264198   6.109   2.818  13.498  0.1116  0.3247  0.8700
14236TIP3    H164199   6.069   2.801  13.413  0.8751  1.5417  0.2429
14236TIP3    H264200   6.100   2.913  13.510  2.4104  0.5896  0.8834
14237TIP3   OH264201   5.757   1.077  16.809  0.6792 -0.4178  0.0754
14237TIP3    H164202   5.814   1.118  16.875  1.0556 -3.7888  2.0546
14237TIP3    H264203   5.818   1.032  16.750  0.2470  1.2731 -1.8025
14238TIP3   OH264204   0.208   2.358  11.403 -1.1527 -0.0524 -0.0472
14238TIP3    H164205   0.235   2.274  11.366 -0.8615  0.0696 -0.1170
14238TIP3    H264206   0.241   2.423  11.341 -2.2389  0.0776 -0.5211
14239TIP3   OH264207   4.676   1.888  17.106 -0.0420  0.3681  0.1244
14239TIP3    H164208   4.758   1.883  17.154  0.3063  1.4510 -0.3186
14239TIP3    H264209   4.609   1.892  17.174  0.3193  0.1065  0.4982
14240TIP3   OH264210   3.233   1.127   1.212 -0.5941  0.0803  0.1175
14240TIP3    H164211   3.173   1.143   1.285  0.0028 -2.0349  1.1437
14240TIP3    H264212   3.319   1.115   1.254  0.2902  1.4959 -1.1946
14241TIP3   OH264213   2.204   5.334   5.734  0.1489 -0.0483 -0.4446
14241TIP3    H164214   2.233   5.360   5.646 -1.2374  0.4686 -0.7806
14241TIP3    H264215   2.268   5.269   5.762  1.3281  0.6831 -1.3245
14242TIP3   OH264216   5.009   6.283   5.591 -0.3906 -0.1466 -0.5319
14242TIP3    H164217   5.100   6.313   5.584  0.2629 -2.1025 -1.1059
14242TIP3    H264218   4.960   6.361   5.615  1.4673  0.9200 -0.0088
14243TIP3   OH264219   1.220   6.349   0.938 -0.1879  0.3657 -0.2412
14243TIP3    H164220   1.277   6.321   0.866 -0.7417 -2.2794  0.2185
14243TIP3    H264221   1.252   6.300   1.014 -1.9816  0.1146  0.4059
14244TIP3   OH264222   6.715   3.768   1.861 -0.2055  0.8445  0.2528
14244TIP3    H164223   6.808   3.754   1.847 -0.6248 -1.3246 -0.7133
14244TIP3    H264224   6.699   3.736   1.951 -0.0633  1.0054  0.3351
14245TIP3   OH264225   5.464   1.838  16.267 -0.1277  0.2851 -0.1974
14245TIP3    H164226   5.505   1.756  16.241 -0.5359 -0.0513  0.2068
14245TIP3    H264227   5.537   1.899  16.280  0.2781 -0.4239  0.9439
14246TIP3   OH264228   2.593   3.679  11.896 -0.0130 -0.2238  0.5739
14246TIP3    H164229   2.682   3.701  11.867  2.0003 -3.6838  3.2316
14246TIP3    H264230   2.578   3.736  11.971  0.4194 -0.2437  0.6830
14247TIP3   OH264231   4.403   5.350  16.377 -0.1437  0.0281 -0.4916
14247TIP3    H164232   4.320   5.378  16.415  0.5535  1.6633 -0.0603
14247TIP3    H264233   4.444   5.297  16.445  1.1064  2.9516  1.2539
14248TIP3   OH264234   4.879   3.554   3.013 -0.0837 -0.1732 -0.4085
14248TIP3    H164235   4.870   3.599   3.097  1.3602  1.2352 -0.9670
14248TIP3    H264236   4.792   3.519   2.996 -0.4785 -0.2477  1.5316
14249TIP3   OH264237   5.943   0.508  14.267 -0.0557 -0.2067  0.1910
14249TIP3    H164238   5.958   0.598  14.296 -1.8371  0.0343  0.4589
14249TIP3    H264239   5.921   0.460  14.347 -0.1472 -0.6467 -0.0947
14250TIP3   OH264240   2.789   0.487  13.018 -0.0574 -0.3703  0.6212
14250TIP3    H164241   2.746   0.402  13.021  0.3630 -0.5802  0.8133
14250TIP3    H264242   2.726   0.548  13.055 -0.9962 -0.3219 -0.9436
14251TIP3   OH264243   1.982   4.856  13.176 -0.6553 -0.4046  0.1286
14251TIP3    H164244   1.988   4.761  13.187  0.8908 -0.3011  0.4303
14251TIP3    H264245   2.028   4.874  13.094 -1.6595  0.0261 -0.3683
14252TIP3   OH264246   6.153   2.774  15.839 -0.0682 -0.0896 -0.3005
14252TIP3    H164247   6.081   2.779  15.776 -0.2520 -0.4467 -0.1184
14252TIP3    H264248   6.192   2.688  15.825 -1.1642 -0.8643  1.2035
14253TIP3   OH264249   2.843   3.170  12.112  0.9358  0.0926  0.3344
14253TIP3    H164250   2.795   3.101  12.068  1.1947 -0.6224  1.1341
14253TIP3    H264251   2.824   3.249  12.062  0.3543 -0.4924 -0.3881
14254TIP3   OH264252   0.923   1.188  13.591  0.5145  1.0046 -0.0898
14254TIP3    H164253   0.829   1.180  13.603  0.5745 -2.1089 -0.7554
14254TIP3    H264254   0.959   1.190  13.679 -0.1084  1.1639  0.1615
14255TIP3   OH264255   4.466   1.121   0.290 -0.3778  0.7861  0.4210
14255TIP3    H164256   4.557   1.148   0.281  0.2908 -1.0854  1.0611
14255TIP3    H264257   4.448   1.127   0.384 -0.5559  0.1061  0.4355
14256TIP3   OH264258   6.685   2.873  14.210 -0.3813  0.2760  0.0879
14256TIP3    H164259   6.739   2.936  14.257 -0.1414 -0.1274  0.3555
14256TIP3    H264260   6.602   2.871  14.259  0.1067 -0.6516  0.9238
14257TIP3   OH264261   5.103   1.313  13.047  0.5282 -0.1388 -0.1573
14257TIP3    H164262   5.167   1.329  12.978 -0.7052  1.3076 -1.0348
14257TIP3    H264263   5.070   1.400  13.070 -1.1215 -0.8178  0.2334
14258TIP3   OH264264   1.800   6.757  12.804 -0.2607 -0.0808 -0.2731
14258TIP3    H164265   1.874   6.697  12.800 -1.5980 -1.7689 -1.6455
14258TIP3    H264266   1.834   6.840  12.771  1.5370 -0.1472  1.2834
14259TIP3   OH264267   2.830   5.000  16.157 -0.0353 -0.0172 -0.3038
14259TIP3    H164268   2.752   4.945  16.163  0.4822 -0.7338 -0.0407
14259TIP3    H264269   2.886   4.957  16.093 -0.1257  0.8479 -0.9860
14260TIP3   OH264270   2.889   6.241  16.835 -0.3451  0.1664  0.3010
14260TIP3    H164271   2.957   6.209  16.894 -0.2513 -2.3479 -1.0325
14260TIP3    H264272   2.891   6.336  16.845  3.1341  0.1811  0.5592
14261TIP3   OH264273   5.950   5.426  11.820 -0.8829  0.7577  0.1498
14261TIP3    H164274   5.907   5.479  11.752  0.5841  0.6799 -0.9042
14261TIP3    H264275   6.041   5.420  11.790 -0.7172 -1.2659  0.9255
14262TIP3   OH264276   5.209   1.047   4.277 -0.0880 -0.3851  0.3032
14262TIP3    H164277   5.241   0.963   4.309 -1.3265 -0.3550  1.7191
14262TIP3    H264278   5.251   1.112   4.334  1.1402  0.0253 -1.0021
14263TIP3   OH264279   4.517   6.340  14.077 -0.4843 -0.1649 -0.0908
14263TIP3    H164280   4.572   6.418  14.063 -1.1507  0.2353 -0.5422
14263TIP3    H264281   4.494   6.312  13.989  0.4660 -1.4153  0.0290
14264TIP3   OH264282   0.045   5.969   1.993 -0.4140  0.2660  0.9226
14264TIP3    H164283   0.074   5.888   2.035 -2.0489 -0.7010  0.3098
14264TIP3    H264284  -0.050   5.958   1.984 -0.2828  0.7512 -2.2522
14265TIP3   OH264285   2.191   4.972   6.787 -0.3648  0.4137  0.8008
14265TIP3    H164286   2.139   4.893   6.800 -0.3569  0.3029  0.2063
14265TIP3    H264287   2.129   5.044   6.797 -0.6361  0.2828  0.0795
14266TIP3   OH264288   3.188   3.398   4.553 -0.0279  0.0168 -0.2138
14266TIP3    H164289   3.231   3.340   4.491 -1.2729  0.0602 -1.1535
14266TIP3    H264290   3.121   3.343   4.595 -0.4408  0.4669 -0.2763
14267TIP3   OH264291   5.500   4.175   3.509  0.3666  0.0157 -0.4139
14267TIP3    H164292   5.405   4.164   3.504 -0.1066  2.7134  0.7224
14267TIP3    H264293   5.526   4.130   3.589  0.0100 -0.5130 -0.5936
14268TIP3   OH264294   3.978   5.502  14.874 -0.2498 -0.5787 -0.6340
14268TIP3    H164295   3.982   5.411  14.846 -2.0818 -1.4017  1.4583
14268TIP3    H264296   4.032   5.549  14.811 -0.1866 -2.9208 -2.4695
14269TIP3   OH264297   0.782   6.353   5.971 -0.6446 -0.6104 -0.3796
14269TIP3    H164298   0.754   6.262   5.978  0.2474 -0.7991  1.2370
14269TIP3    H264299   0.773   6.388   6.060 -0.6243  0.7787 -0.8941
14270TIP3   OH264300   5.122   4.864  10.988 -0.6579 -0.1536 -0.4603
14270TIP3    H164301   5.077   4.796  11.039 -2.6378  0.3916 -1.3943
14270TIP3    H264302   5.213   4.859  11.017 -0.9488 -2.4847  0.2675
14271TIP3   OH264303   0.654   2.308   4.583 -0.3258 -0.3933 -0.2697
14271TIP3    H164304   0.719   2.282   4.648 -1.3304 -1.3912  0.3745
14271TIP3    H264305   0.595   2.368   4.631 -0.2227  0.0419 -0.6817
14272TIP3   OH264306   6.816   5.422  14.899  0.0225 -0.3490 -0.6194
14272TIP3    H164307   6.819   5.451  14.990  0.1841  0.1766 -0.7919
14272TIP3    H264308   6.864   5.339  14.899  1.0545  0.2404 -0.4416
14273TIP3   OH264309   3.395   0.887  12.335 -0.5386  0.3317  0.4603
14273TIP3    H164310   3.396   0.901  12.430 -1.6170  2.0614  0.2504
14273TIP3    H264311   3.302   0.891  12.311 -0.1605  1.6529 -0.9046
14274TIP3   OH264312   2.171   6.170   2.677  0.0817 -0.2206 -0.3258
14274TIP3    H164313   2.203   6.167   2.587  1.9555 -1.1026  0.3035
14274TIP3    H264314   2.077   6.153   2.670  0.5047 -2.4353 -1.9897
14275TIP3   OH264315   5.948   4.494  12.465  0.4809 -0.2676  0.0404
14275TIP3    H164316   5.901   4.421  12.425  0.8872 -0.0900 -0.8072
14275TIP3    H264317   5.882   4.563  12.474 -0.5563 -1.5288  3.2464
14276TIP3   OH264318   2.841   2.428  15.548  0.0232 -0.0038 -0.0009
14276TIP3    H164319   2.842   2.377  15.629  0.6689 -0.2899 -0.1777
14276TIP3    H264320   2.799   2.371  15.484  2.1061 -0.9791 -0.5899
14277TIP3   OH264321   0.392   2.032  13.173 -0.5752 -0.1732 -0.4612
14277TIP3    H164322   0.467   2.088  13.196 -2.2166  1.8042  0.4068
14277TIP3    H264323   0.426   1.943  13.179  0.9159  0.4548  3.3207
14278TIP3   OH264324   0.823   0.179   1.358  0.3247  0.0220 -0.5857
14278TIP3    H164325   0.893   0.116   1.376  1.0085  0.4899 -1.4749
14278TIP3    H264326   0.744   0.127   1.350  0.5972 -0.5435  0.2415
14279TIP3   OH264327   2.330   3.492   2.020  0.1742  0.2955 -0.1257
14279TIP3    H164328   2.249   3.523   2.060 -0.4231 -0.5602 -0.6283
14279TIP3    H264329   2.312   3.495   1.926 -0.0145 -1.7228 -0.2116
14280TIP3   OH264330   6.751   4.024   3.169  0.3124  0.1872 -0.3880
14280TIP3    H164331   6.778   4.115   3.161  1.2397 -0.0301  0.1320
14280TIP3    H264332   6.761   4.003   3.262  0.2328 -0.4778 -0.5210
14281TIP3   OH264333   6.316   5.375  14.340  0.8187 -0.1643 -0.3873
14281TIP3    H164334   6.328   5.463  14.376  0.3509  0.8718 -2.5930
14281TIP3    H264335   6.348   5.382  14.250 -1.1024 -1.6944 -1.2470
14282TIP3   OH264336   3.394   5.397  16.259 -0.4368  0.1511  0.3604
14282TIP3    H164337   3.341   5.424  16.334 -1.7577  0.1360 -0.5367
14282TIP3    H264338   3.362   5.310  16.236  0.7419 -0.3342  0.4616
14283TIP3   OH264339   1.680   3.550   2.189 -0.2644 -0.2871  0.2221
14283TIP3    H164340   1.617   3.517   2.125  0.8297 -1.1743 -0.4106
14283TIP3    H264341   1.631   3.617   2.238 -1.3958 -0.2650 -0.9024
14284TIP3   OH264342   3.353   4.549  16.708 -0.1137  0.2408  0.2461
14284TIP3    H164343   3.416   4.533  16.638 -0.8270  0.2006 -0.4086
14284TIP3    H264344   3.299   4.621  16.675  0.1598  0.8875  1.1894
14285TIP3   OH264345   0.809   4.800   3.005  0.3467  0.3282  0.3982
14285TIP3    H164346   0.771   4.864   2.945 -2.4190 -1.1226  0.4266
14285TIP3    H264347   0.830   4.725   2.949  1.9238  0.5772  0.6225
14286TIP3   OH264348   0.592   1.558  11.114 -0.2047  0.0742  0.5328
14286TIP3    H164349   0.569   1.651  11.122 -1.6762 -0.2576  0.4335
14286TIP3    H264350   0.535   1.525  11.044  0.6038 -0.8188  0.2715
14287TIP3   OH264351   4.240   0.849  16.748  0.3885  0.0587 -0.4860
14287TIP3    H164352   4.234   0.819  16.839 -2.5482  2.2517  0.2348
14287TIP3    H264353   4.158   0.820  16.708  1.7999 -1.2069 -2.6271
14288TIP3   OH264354   0.106   6.277  16.771 -0.2202  0.2173 -0.3858
14288TIP3    H164355   0.042   6.340  16.738 -1.3610 -1.6951 -2.0246
14288TIP3    H264356   0.069   6.248  16.854 -0.3418  0.7281 -0.2528
14289TIP3   OH264357   4.600   5.084  17.095  0.3078  0.7172  0.3680
14289TIP3    H164358   4.670   5.116  17.151  0.2059  1.0038  0.3320
14289TIP3    H264359   4.579   4.997  17.131  2.5932 -0.6430 -1.3325
14290TIP3   OH264360   5.830   3.455   1.727 -0.1722 -1.0318 -0.3911
14290TIP3    H164361   5.738   3.443   1.754 -0.4957  0.4135 -0.7720
14290TIP3    H264362   5.842   3.550   1.726  1.4387 -1.2208 -0.0283
14291TIP3   OH264363   5.187   0.642  13.758  0.3019 -0.3023 -0.0201
14291TIP3    H164364   5.236   0.616  13.836  0.9581 -0.7302 -0.5603
14291TIP3    H264365   5.253   0.674  13.697 -0.0081 -1.4165 -0.9742
14292TIP3   OH264366   1.508   6.669  16.487 -0.4243 -0.1459  0.3211
14292TIP3    H164367   1.579   6.726  16.457 -0.5977  0.2039  0.5650
14292TIP3    H264368   1.510   6.677  16.583  0.7410 -1.9770  0.4962
14293TIP3   OH264369   4.908   2.685  14.003  0.0142 -0.1295  0.2730
14293TIP3    H164370   4.910   2.677  14.099 -0.7646 -0.4435  0.2703
14293TIP3    H264371   4.940   2.773  13.986 -0.6139  0.2306  0.8744
14294TIP3   OH264372   4.953   1.326  10.354  0.4394 -0.2051 -0.4926
14294TIP3    H164373   4.911   1.411  10.341 -0.1412 -0.4554 -0.3022
14294TIP3    H264374   5.044   1.347  10.373 -0.3957  0.6582  3.4894
14295TIP3   OH264375   0.692   3.473  13.058  0.0641 -0.3710 -0.1606
14295TIP3    H164376   0.608   3.427  13.048 -0.0204 -0.5710  1.2443
14295TIP3    H264377   0.756   3.410  13.025 -0.3272 -0.1802 -1.3391
14296TIP3   OH264378   4.919   2.853   0.837 -0.3442  0.0780 -0.0046
14296TIP3    H164379   4.901   2.833   0.929 -0.1756  0.5355  0.1307
14296TIP3    H264380   4.964   2.937   0.839  2.9957 -1.5176 -0.2119
14297TIP3   OH264381   2.988   4.673  15.211 -0.1280 -0.3701 -0.5471
14297TIP3    H164382   3.025   4.725  15.282 -0.6235 -1.4343  0.5298
14297TIP3    H264383   3.036   4.700  15.133  1.9438 -0.6870  0.5509
14298TIP3   OH264384   6.221   4.755   3.457 -0.7631 -0.0346  0.1303
14298TIP3    H164385   6.302   4.804   3.447 -0.7864 -0.4139 -3.1968
14298TIP3    H264386   6.244   4.680   3.510  1.4369 -0.7339 -1.6622
14299TIP3   OH264387   0.981   2.936   2.478 -0.2396  0.5185  0.2652
14299TIP3    H164388   1.024   2.990   2.544  0.8260  1.2530 -0.9783
14299TIP3    H264389   0.993   2.846   2.509  0.0086  0.8666  1.1970
14300TIP3   OH264390   4.143   0.945  16.284 -0.2316 -0.1883  0.1409
14300TIP3    H164391   4.204   0.948  16.357  0.0481 -0.7804 -0.0576
14300TIP3    H264392   4.108   0.856  16.286  1.3045 -0.9106 -1.6478
14301TIP3   OH264393   4.285   2.410   5.204 -0.1945 -0.1413  0.0893
14301TIP3    H164394   4.245   2.456   5.277  0.1132 -0.1027  0.2333
14301TIP3    H264395   4.230   2.432   5.129  0.1322  0.7116  0.0965
14302TIP3   OH264396   5.988   4.668   2.297 -0.4864  0.1025 -0.3424
14302TIP3    H164397   6.031   4.583   2.307 -1.0612 -0.2666 -0.9528
14302TIP3    H264398   5.991   4.686   2.203 -0.2602  0.8190 -0.2037
14303TIP3   OH264399   0.719   1.321   0.676  0.0786  0.5976 -0.2587
14303TIP3    H164400   0.807   1.344   0.645  0.1127 -0.4343 -1.0001
14303TIP3    H264401   0.704   1.378   0.752  2.4758 -0.9961  1.5681
14304TIP3   OH264402   1.556   5.583   0.457  0.1737 -0.6171 -0.3688
14304TIP3    H164403   1.536   5.676   0.464 -2.4890 -1.1431  0.1694
14304TIP3    H264404   1.560   5.566   0.363  0.6339  0.0064 -0.4703
14305TIP3   OH264405   3.720   4.101   0.698 -0.2367 -0.2586 -0.3585
14305TIP3    H164406   3.711   4.068   0.787 -0.3397  0.7429  0.0152
14305TIP3    H264407   3.815   4.107   0.684 -0.1930 -1.6674 -0.8098
14306TIP3   OH264408   0.607   0.889   0.345 -0.5985 -0.5258 -0.1873
14306TIP3    H164409   0.592   0.955   0.412  0.0032 -1.9811  1.4672
14306TIP3    H264410   0.541   0.907   0.279 -1.2697  0.9321  0.8163
14307TIP3   OH264411   0.723   1.362  15.213 -0.3307  0.1188 -0.6433
14307TIP3    H164412   0.703   1.453  15.237 -0.7947 -0.1964  0.2136
14307TIP3    H264413   0.641   1.329  15.175  0.1820  0.3913 -2.0395
14308TIP3   OH264414   0.872   4.005   2.443 -0.0309  0.0640 -0.5966
14308TIP3    H164415   0.868   4.069   2.515 -0.7878  0.4729 -0.9922
14308TIP3    H264416   0.902   3.924   2.485 -0.5140  0.2780  0.1911
14309TIP3   OH264417   6.827   3.322   4.930  0.3072  0.9200  0.0399
14309TIP3    H164418   6.922   3.306   4.930 -0.0783 -1.9237  0.6312
14309TIP3    H264419   6.793   3.259   4.994 -1.9567  2.2607  0.2404
14310TIP3   OH264420   2.356   0.295  13.348  0.0982 -0.2805 -0.2062
14310TIP3    H164421   2.337   0.251  13.265  0.5019  0.0820 -0.4913
14310TIP3    H264422   2.271   0.325  13.379 -1.0347 -4.8480  2.1318
14311TIP3   OH264423   1.659   4.332   3.812  0.1573 -0.0830 -0.3603
14311TIP3    H164424   1.617   4.249   3.831 -0.9840  0.4324 -0.5543
14311TIP3    H264425   1.645   4.346   3.719  0.7106  0.1316 -0.4151
14312TIP3   OH264426   5.942   1.432  10.701  0.6628 -0.0427  0.4364
14312TIP3    H164427   5.996   1.354  10.707  0.2195 -0.3942 -0.0702
14312TIP3    H264428   5.852   1.399  10.704  0.4691  0.5282  1.2509
14313TIP3   OH264429   1.149   6.226  11.998 -0.2520 -0.1666 -0.0979
14313TIP3    H164430   1.092   6.249  12.071 -1.3156 -0.2254 -0.8838
14313TIP3    H264431   1.237   6.249  12.028 -0.7101  0.1781  1.0416
14314TIP3   OH264432   2.870   2.989   1.918 -0.1909 -0.2163  0.3101
14314TIP3    H164433   2.893   2.992   2.011  0.8257  2.6361  0.0895
14314TIP3    H264434   2.815   3.066   1.904 -1.4169 -1.2993 -1.2508
14315TIP3   OH264435   0.861   3.418  11.577  0.0942 -0.3652 -0.1745
14315TIP3    H164436   0.832   3.509  11.576  0.0137 -0.3846  0.4368
14315TIP3    H264437   0.782   3.368  11.556  0.5669 -0.2032 -2.7387
14316TIP3   OH264438   3.544   5.006   1.167 -0.3525  0.3271  0.0653
14316TIP3    H164439   3.510   4.952   1.096 -1.3223  1.0278 -0.0229
14316TIP3    H264440   3.620   5.051   1.129  0.5046 -0.9936  0.1612
14317TIP3   OH264441   6.560   5.719   1.747  0.0148  0.0828  0.5580
14317TIP3    H164442   6.503   5.643   1.762  0.0713  0.3580  2.3343
14317TIP3    H264443   6.531   5.754   1.662 -0.2421 -1.6948 -0.1331
14318TIP3   OH264444   2.962   1.849  16.028  0.3509 -0.2343 -0.0741
14318TIP3    H164445   2.930   1.938  16.014  1.3507  0.1177 -0.1973
14318TIP3    H264446   2.890   1.793  16.000 -0.3780  0.5336  0.2253
14319TIP3   OH264447   3.363   0.973   4.247 -0.2773 -0.8059 -0.2675
14319TIP3    H164448   3.296   0.980   4.316  1.2887  0.2901  1.2265
14319TIP3    H264449   3.386   1.064   4.227  0.9193 -1.1623 -0.5721
14320TIP3   OH264450   2.926   0.841   3.988  0.2024  0.3472 -0.2519
14320TIP3    H164451   3.006   0.882   3.957  0.0132  1.0962  0.2277
14320TIP3    H264452   2.872   0.913   4.019 -1.0168 -0.0576 -1.3480
14321TIP3   OH264453   2.288   2.816   1.554 -0.5504  0.2457 -0.2383
14321TIP3    H164454   2.294   2.755   1.481 -0.4424  0.8437 -0.7341
14321TIP3    H264455   2.360   2.878   1.540 -1.0886  0.9053 -0.1350
14322TIP3   OH264456   4.935   6.349   3.484  0.1219  0.0656  0.3094
14322TIP3    H164457   4.934   6.428   3.430 -0.3372  1.1521  1.8113
14322TIP3    H264458   5.020   6.308   3.466 -0.1538  0.2021 -1.4332
14323TIP3   OH264459   5.112   4.794   4.260  0.5682  0.0203  0.5154
14323TIP3    H164460   5.052   4.859   4.225  0.9040 -0.3613 -0.8112
14323TIP3    H264461   5.134   4.738   4.185  3.0478  0.5140  0.7942
14324TIP3   OH264462   4.726   4.601   1.785 -0.3997  0.1581 -0.2115
14324TIP3    H164463   4.745   4.662   1.856 -0.6725 -0.9590  0.8542
14324TIP3    H264464   4.714   4.517   1.829 -0.6733 -0.5360 -1.5805
14325TIP3   OH264465   2.768   1.809   4.096  0.7134 -0.1469  0.4152
14325TIP3    H164466   2.860   1.793   4.114  0.4739 -2.4281 -0.1728
14325TIP3    H264467   2.751   1.763   4.014 -1.3073 -1.0980  1.3080
14326TIP3   OH264468   4.239   3.217  16.048 -0.3483 -0.3391  0.3906
14326TIP3    H164469   4.298   3.264  15.989  0.4951  0.0627  1.5188
14326TIP3    H264470   4.258   3.253  16.135 -0.3928 -2.0728  1.1524
14327TIP3   OH264471   6.000   0.353   2.582  0.0847 -0.4710 -0.3452
14327TIP3    H164472   5.967   0.290   2.519  0.1002  0.3906 -1.2444
14327TIP3    H264473   5.991   0.438   2.538 -2.4626  0.5076  1.7870
14328TIP3   OH264474   0.199   1.052  11.631 -0.4788 -0.5408 -0.0278
14328TIP3    H164475   0.190   1.059  11.726  0.8350  0.7850  0.0185
14328TIP3    H264476   0.210   1.142  11.601 -0.4112 -0.9866 -1.4030
14329TIP3   OH264477   0.816   3.235   6.543 -0.2861  0.1263  0.2659
14329TIP3    H164478   0.763   3.156   6.534 -0.6727  0.4173 -0.0285
14329TIP3    H264479   0.758   3.299   6.585 -0.3091  0.5795 -0.4394
14330TIP3   OH264480   2.247   4.815   2.401 -0.6042 -0.0767  0.1007
14330TIP3    H164481   2.269   4.897   2.445  1.2215 -0.9580  0.9466
14330TIP3    H264482   2.192   4.841   2.327 -1.3072  1.7432  1.2092
14331TIP3   OH264483   2.232   3.334  14.376  0.0064 -0.2881  0.0949
14331TIP3    H164484   2.158   3.385  14.343 -0.8747 -0.8926  1.0983
14331TIP3    H264485   2.297   3.400  14.400 -0.5045  0.2904 -0.0738
14332TIP3   OH264486   5.200   5.419  14.811  0.6785 -0.1884  0.4458
14332TIP3    H164487   5.190   5.396  14.904  0.1965  1.6079  0.8734
14332TIP3    H264488   5.260   5.493  14.811  1.8259 -1.0722 -0.8431
14333TIP3   OH264489   2.982   4.045  14.610  0.3136 -0.2320  0.1122
14333TIP3    H164490   3.003   4.135  14.635  0.5769 -0.5093  0.9277
14333TIP3    H264491   2.983   4.046  14.515  1.3272  0.4026  0.1135
14334TIP3   OH264492   3.140   3.328   0.149 -0.3862  0.0588 -0.6586
14334TIP3    H164493   3.101   3.416   0.145 -0.3949  0.0978  0.2003
14334TIP3    H264494   3.095   3.285   0.221 -0.2409 -0.5897 -0.9494
14335TIP3   OH264495   3.396   5.499   0.695 -0.2522  0.5998 -0.5891
14335TIP3    H164496   3.318   5.545   0.665  0.3938  1.8644 -0.3999
14335TIP3    H264497   3.367   5.451   0.772 -0.9700  0.6160 -0.8403
14336TIP3   OH264498   5.222   5.803  15.251 -0.3855  0.5005  0.0956
14336TIP3    H164499   5.165   5.757  15.312 -0.1903 -0.7637 -0.6412
14336TIP3    H264500   5.173   5.803  15.168  0.0460  0.7388 -0.1629
14337TIP3   OH264501   3.909   5.906  11.498  0.0457 -0.4151  0.0643
14337TIP3    H164502   3.963   5.848  11.444 -0.5161 -0.7908 -0.0962
14337TIP3    H264503   3.916   5.991  11.456  1.1242 -0.2772  0.4721
14338TIP3   OH264504   1.065   2.868  16.081 -0.1716 -0.2916  0.4215
14338TIP3    H164505   0.984   2.911  16.051 -1.8181 -2.2467  1.8055
14338TIP3    H264506   1.124   2.873  16.005 -0.9557  2.5974 -0.1039
14339TIP3   OH264507   3.259   3.900  10.791 -0.6967  0.2615  0.2376
14339TIP3    H164508   3.262   3.985  10.746 -0.7489 -0.9726 -2.2872
14339TIP3    H264509   3.337   3.854  10.761 -1.0479 -0.8738  0.9936
14340TIP3   OH264510   4.903   0.124   3.560  0.7042 -0.0510 -0.4893
14340TIP3    H164511   4.937   0.154   3.644  0.1926  0.1536 -0.3484
14340TIP3    H264512   4.897   0.029   3.569  0.8835 -0.0528 -0.3855
14341TIP3   OH264513   0.362   3.208   5.850  0.0792  0.5066 -0.8157
14341TIP3    H164514   0.338   3.292   5.891  0.9886  0.6846 -0.6221
14341TIP3    H264515   0.453   3.194   5.877  0.4705  0.2805 -2.2129
14342TIP3   OH264516   1.187   6.639   3.441 -0.4908 -0.2146 -0.0307
14342TIP3    H164517   1.227   6.681   3.365  0.6321 -1.1854 -0.0061
14342TIP3    H264518   1.187   6.706   3.509 -0.4201  0.2997 -0.5268
14343TIP3   OH264519   3.203   2.506   5.373  0.2479  0.6226 -0.3120
14343TIP3    H164520   3.287   2.481   5.335  0.4679  1.0630 -0.1270
14343TIP3    H264521   3.139   2.452   5.327  0.5600  0.7896 -0.9525
14344TIP3   OH264522   1.867   0.474   1.961 -0.1594  0.5454 -0.0901
14344TIP3    H164523   1.815   0.405   2.003 -0.0746  0.2680 -0.4309
14344TIP3    H264524   1.830   0.556   1.993  0.8749  0.3638  1.7681
14345TIP3   OH264525   1.173   5.173   4.219  0.1794  0.2776  0.3571
14345TIP3    H164526   1.221   5.219   4.149 -0.5847 -0.1671 -0.4782
14345TIP3    H264527   1.081   5.186   4.197 -0.1314  1.4351  2.1581
14346TIP3   OH264528   5.815   6.087   5.832  0.0422  0.2638 -0.6139
14346TIP3    H164529   5.747   6.105   5.897 -0.2237 -1.3302 -0.4087
14346TIP3    H264530   5.832   6.172   5.791 -1.6062  0.8192 -0.2223
14347TIP3   OH264531   0.621   1.741  14.656 -0.3044 -0.5447  0.0072
14347TIP3    H164532   0.596   1.723  14.565 -1.5403  1.5274 -0.1183
14347TIP3    H264533   0.716   1.737  14.655 -0.1222  1.9310 -2.0252
14348TIP3   OH264534   1.341   0.991  14.057  0.3936 -0.2057 -0.4310
14348TIP3    H164535   1.428   0.958  14.034  1.4073  3.3067 -2.2705
14348TIP3    H264536   1.358   1.066  14.114 -1.4998  0.0772 -0.1697
14349TIP3   OH264537   4.622   3.281  14.987 -0.1937  0.4087 -0.5769
14349TIP3    H164538   4.702   3.282  15.039  0.2995  0.2456 -1.3188
14349TIP3    H264539   4.650   3.311  14.900 -1.5098  3.5576 -0.0593
14350TIP3   OH264540   1.284   0.593  14.655 -0.7866 -0.0395 -0.3505
14350TIP3    H164541   1.245   0.581  14.569 -0.2276  0.6262 -0.6999
14350TIP3    H264542   1.236   0.666  14.694  0.1326  0.8145 -0.8010
14351TIP3   OH264543   6.160   2.142  15.301  0.0812  0.2271  0.7443
14351TIP3    H164544   6.237   2.108  15.255  0.8816  2.6058  0.1574
14351TIP3    H264545   6.086   2.100  15.259  0.9753 -0.6525 -0.0069
14352TIP3   OH264546   6.210   4.361  13.335  0.6403  0.4078  0.7282
14352TIP3    H164547   6.167   4.295  13.280  2.6464  0.1853 -0.7002
14352TIP3    H264548   6.166   4.443  13.313  1.1115  0.2472 -0.9721
14353TIP3   OH264549   0.504   0.090   2.553  0.3185 -0.7520  0.4516
14353TIP3    H164550   0.434   0.052   2.501  1.2662  0.2875 -1.6737
14353TIP3    H264551   0.538   0.162   2.501  1.5006  0.2035  2.4164
14354TIP3   OH264552   2.063   5.006  11.808 -0.1035 -0.0544 -0.1252
14354TIP3    H164553   1.998   5.061  11.763 -0.2499  0.2309  0.4116
14354TIP3    H264554   2.130   4.989  11.743 -1.7077 -2.1023 -1.3494
14355TIP3   OH264555   0.331   6.462   5.173 -0.0895  0.2143  0.3371
14355TIP3    H164556   0.263   6.526   5.197  1.5250  2.2085 -0.1606
14355TIP3    H264557   0.297   6.379   5.205 -2.2122  1.3277  1.1981
14356TIP3   OH264558   4.898   0.529   2.107  0.3234 -0.6238 -0.2087
14356TIP3    H164559   4.814   0.558   2.143 -0.6072 -0.4145 -2.3545
14356TIP3    H264560   4.935   0.608   2.067 -0.6840 -1.5434 -3.2439
14357TIP3   OH264561   3.999   6.391  10.809  0.3140  0.0482 -0.4888
14357TIP3    H164562   3.957   6.308  10.832  0.3030  1.2314  4.9577
14357TIP3    H264563   3.926   6.451  10.792  0.2896 -0.4050 -2.2384
14358TIP3   OH264564   0.857   1.561   4.174  0.2991 -0.6152  0.0172
14358TIP3    H164565   0.882   1.593   4.087 -1.4681  0.4140 -0.1732
14358TIP3    H264566   0.876   1.468   4.171  1.3808 -0.3983 -1.0416
14359TIP3   OH264567   2.465   3.034   1.531 -0.4693 -0.3060 -0.4369
14359TIP3    H164568   2.398   3.055   1.596  1.5211  0.4767  1.5083
14359TIP3    H264569   2.464   3.108   1.471 -0.6390  0.2294  0.2099
14360TIP3   OH264570   6.086   5.406  14.918 -0.0054  0.0758 -0.0228
14360TIP3    H164571   6.081   5.311  14.929  1.6444  0.0161  0.4543
14360TIP3    H264572   6.144   5.435  14.988  1.0183  1.2006 -1.2916
14361TIP3   OH264573   2.063   5.602  12.472  0.0602  0.0461  0.1691
14361TIP3    H164574   1.995   5.549  12.513 -0.1440 -0.8597 -1.2526
14361TIP3    H264575   2.143   5.579  12.520 -0.1071 -1.2489 -0.1241
14362TIP3   OH264576   3.304   3.974   4.952  0.1899  0.0682  0.2396
14362TIP3    H164577   3.352   3.939   4.877 -1.4924 -1.4471 -0.2214
14362TIP3    H264578   3.218   3.996   4.917 -0.1440  0.7739  1.4312
14363TIP3   OH264579   4.575   4.771   6.279  0.1000  0.0754 -0.1522
14363TIP3    H164580   4.616   4.690   6.308  0.3150  0.4153  0.5051
14363TIP3    H264581   4.482   4.759   6.296  0.1339 -0.0258 -0.0427
14364TIP3   OH264582   1.227   5.625  12.604  0.1059  0.1141  0.1290
14364TIP3    H164583   1.190   5.634  12.516  0.1388  3.7698  0.3626
14364TIP3    H264584   1.195   5.700  12.652  1.3810 -0.9181  2.8277
14365TIP3   OH264585   5.545   1.159  14.095  0.1568  0.3314 -0.0144
14365TIP3    H164586   5.523   1.194  14.181  2.3745  0.6084  0.4938
14365TIP3    H264587   5.559   1.236  14.040 -0.3138  0.1690 -0.3648
14366TIP3   OH264588   1.379   4.742  16.520  0.1944 -0.7608 -0.9903
14366TIP3    H164589   1.410   4.832  16.520 -0.0282 -0.6723 -0.1111
14366TIP3    H264590   1.328   4.734  16.439 -0.2138  0.0656 -0.8287
14367TIP3   OH264591   2.485   3.219  16.473 -0.6763  0.3980 -0.0100
14367TIP3    H164592   2.472   3.284  16.542  0.7608  0.1912  0.4852
14367TIP3    H264593   2.539   3.264  16.407 -1.8989  0.5410 -0.9437
14368TIP3   OH264594   1.386   5.581   3.371  0.6581 -0.4312 -0.3596
14368TIP3    H164595   1.350   5.564   3.458  2.6472 -0.8585  0.4234
14368TIP3    H264596   1.449   5.511   3.356  0.3144 -0.4121 -2.2018
14369TIP3   OH264597   5.369   0.582  13.521 -0.0957 -0.3690  0.3767
14369TIP3    H164598   5.426   0.559  13.448 -0.3951  0.7649 -0.2362
14369TIP3    H264599   5.290   0.615  13.480  0.7124  2.8266  1.1072
14370TIP3   OH264600   5.466   0.043  16.802  0.1035 -0.3062 -0.8625
14370TIP3    H164601   5.530   0.038  16.731 -0.7472  0.7053 -1.7387
14370TIP3    H264602   5.430  -0.046  16.808  2.8698 -1.4384  0.9545
14371TIP3   OH264603   0.948   6.366  14.537  0.5796 -0.4744 -0.3498
14371TIP3    H164604   0.983   6.279  14.519  1.7393 -0.3147  0.9845
14371TIP3    H264605   0.893   6.355  14.614  0.7155 -0.0350 -0.1882
14372TIP3   OH264606   3.921   6.501  12.286  0.8757  0.2442  0.2315
14372TIP3    H164607   3.947   6.523  12.197  1.8964  1.8702  0.8699
14372TIP3    H264608   3.972   6.423  12.308  2.0038  0.8896 -0.0120
14373TIP3   OH264609   2.114   0.256  10.923 -0.3663 -0.3434 -0.2711
14373TIP3    H164610   2.058   0.223  10.994 -2.6543  1.2982 -1.1853
14373TIP3    H264611   2.177   0.314  10.967  0.8590 -2.3544  0.8011
14374TIP3   OH264612   0.498   4.500   4.672  0.1677  0.2060  1.0254
14374TIP3    H164613   0.555   4.565   4.714 -1.8060  2.7970 -0.0122
14374TIP3    H264614   0.434   4.477   4.738  0.3046  0.0650  1.1080
14375TIP3   OH264615   4.737   0.442   1.831 -0.3110  0.1214 -0.1192
14375TIP3    H164616   4.771   0.529   1.852 -0.3540 -0.1284  1.0273
14375TIP3    H264617   4.661   0.432   1.888 -0.1679 -0.7661 -0.0852
14376TIP3   OH264618   5.012   1.117  12.152 -0.3239 -0.4750 -0.0878
14376TIP3    H164619   5.047   1.059  12.220  1.7384 -0.4129 -1.0381
14376TIP3    H264620   4.999   1.201  12.197 -1.6750 -1.1508  0.8710
14377TIP3   OH264621   6.383   6.037  14.632  0.1847  0.1793  0.6736
14377TIP3    H164622   6.434   6.085  14.567  0.4926 -0.9165  0.0809
14377TIP3    H264623   6.429   5.953  14.640 -1.5473 -0.8601  0.0791
14378TIP3   OH264624   1.701   3.957  11.676  0.1123  0.4227  0.5891
14378TIP3    H164625   1.639   3.918  11.737 -1.3064  2.8492  0.8355
14378TIP3    H264626   1.653   4.030  11.636  0.8965 -1.0841 -3.5999
14379TIP3   OH264627   2.319   5.646   1.431  0.1789 -0.2699 -0.6560
14379TIP3    H164628   2.242   5.617   1.479  0.8550  1.4371  1.6313
14379TIP3    H264629   2.383   5.576   1.444  0.5423  0.3979  1.5386
14380TIP3   OH264630   6.701   3.641  11.864  0.1569 -0.1220 -0.0085
14380TIP3    H164631   6.712   3.585  11.941 -0.1054 -0.9292 -0.5523
14380TIP3    H264632   6.666   3.723  11.900 -0.1111 -0.5408  0.7210
14381TIP3   OH264633   5.131   6.524  14.489  0.6923 -0.1206  0.1678
14381TIP3    H164634   5.221   6.523  14.521 -0.2069 -0.7527  3.0060
14381TIP3    H264635   5.097   6.609  14.518  0.0319 -0.4007  0.2270
14382TIP3   OH264636   3.504   3.321  11.592  0.2902 -0.2437 -0.2302
14382TIP3    H164637   3.538   3.278  11.670 -1.5336 -1.0596  0.1564
14382TIP3    H264638   3.540   3.270  11.519 -1.2816 -2.0947  0.2046
14383TIP3   OH264639   1.295   1.085  15.596  0.1155 -0.5205  0.5003
14383TIP3    H164640   1.287   1.076  15.691 -1.6532 -1.1918  0.3404
14383TIP3    H264641   1.222   1.143  15.572  0.9721  0.2253 -0.3926
14384TIP3   OH264642   3.982   0.587  15.821  0.1237 -0.2107 -0.0623
14384TIP3    H164643   3.978   0.598  15.726  1.1685 -2.5882 -0.4676
14384TIP3    H264644   4.055   0.641  15.849  0.3035 -0.0900 -0.7373
14385TIP3   OH264645   6.208   5.790   1.486  0.0608 -0.0904  0.1275
14385TIP3    H164646   6.160   5.828   1.560  0.4234 -0.4229  0.5445
14385TIP3    H264647   6.294   5.831   1.491  0.0524 -0.0390 -0.1727
14386TIP3   OH264648   3.790   3.621   5.347 -0.0918  0.1069 -0.2373
14386TIP3    H164649   3.763   3.665   5.428 -0.3209  1.4461 -1.0000
14386TIP3    H264650   3.756   3.532   5.355 -2.1361  0.8588  0.1738
14387TIP3   OH264651   1.628   1.558  11.034 -0.1536  0.1346  0.2960
14387TIP3    H164652   1.560   1.508  10.989  0.5314  0.4596 -1.1699
14387TIP3    H264653   1.638   1.637  10.981  0.7352  0.5060  0.9958
14388TIP3   OH264654   0.307   2.342   2.688  0.1904 -0.0256 -0.7737
14388TIP3    H164655   0.230   2.284   2.682  0.6120 -1.0125  1.8350
14388TIP3    H264656   0.345   2.341   2.600 -0.5025 -2.8065 -1.1509
14389TIP3   OH264657   1.353   0.129  12.288 -0.6784  0.0936 -0.0786
14389TIP3    H164658   1.352   0.198  12.354 -0.4050  1.0618 -1.0654
14389TIP3    H264659   1.343   0.048  12.338 -2.9792  0.9367  0.9460
14390TIP3   OH264660   6.797   4.169   5.736  0.0845 -0.5653  0.0488
14390TIP3    H164661   6.850   4.188   5.659  0.1915 -1.4029 -0.0958
14390TIP3    H264662   6.722   4.229   5.730  0.9306  0.5334  0.1871
14391TIP3   OH264663   5.046   1.797   6.876  0.2175 -0.4013  0.1159
14391TIP3    H164664   4.989   1.792   6.952  0.3187 -0.3449  0.1957
14391TIP3    H264665   4.998   1.751   6.807  0.2591 -0.7167  0.2964
14392TIP3   OH264666   1.794   4.519   3.166  0.3055 -0.2703 -0.5356
14392TIP3    H164667   1.718   4.485   3.213 -1.0287  2.2827 -0.6877
14392TIP3    H264668   1.866   4.462   3.193 -0.6334  0.1929  3.6069
14393TIP3   OH264669   0.544   1.963   1.631  0.1595  0.0213  0.1450
14393TIP3    H164670   0.588   2.030   1.684 -0.3287 -0.0410  0.6333
14393TIP3    H264671   0.595   1.960   1.549  0.1638  1.0139  0.1009
14394TIP3   OH264672   1.057   6.338  16.809  0.2130  0.7642  0.8746
14394TIP3    H164673   1.003   6.360  16.733  0.6637  0.0996  0.3570
14394TIP3    H264674   1.044   6.412  16.868  0.6559  1.8191 -0.2812
14395TIP3   OH264675   1.744   1.314   3.714  0.4170  0.2776 -0.2961
14395TIP3    H164676   1.827   1.292   3.755  1.5226  0.1475 -2.4865
14395TIP3    H264677   1.718   1.396   3.756  1.7249  0.4001  0.3236
14396TIP3   OH264678   4.705   1.336   2.843 -0.1641 -0.4264  0.1117
14396TIP3    H164679   4.783   1.391   2.850 -1.3664  1.3854 -0.1519
14396TIP3    H264680   4.636   1.395   2.812 -1.3047 -2.3026 -1.1393
14397TIP3   OH264681   2.520   1.272   3.120 -0.6025  0.5109  0.2951
14397TIP3    H164682   2.513   1.279   3.024  1.1898  0.8559  0.1431
14397TIP3    H264683   2.538   1.179   3.135 -3.4721 -0.0815  0.5627
14398TIP3   OH264684   4.218   3.605   2.848  0.7754 -0.2514 -0.1019
14398TIP3    H164685   4.238   3.647   2.765  0.4189 -1.3402 -0.7673
14398TIP3    H264686   4.130   3.635   2.870  1.5310  1.4353  0.8206
14399TIP3   OH264687   1.162   2.076   4.199  1.0532  0.1927  0.2775
14399TIP3    H164688   1.176   2.064   4.293  0.3347 -0.2306  0.3351
14399TIP3    H264689   1.242   2.041   4.158  1.7662  1.1996  0.7562
14400TIP3   OH264690   2.275   3.699  11.571 -0.0613 -0.3200  0.3475
14400TIP3    H164691   2.217   3.773  11.593 -0.2047 -0.0271 -0.9319
14400TIP3    H264692   2.269   3.692  11.476  2.7682  0.3437  0.0469
14401TIP3   OH264693   0.390   5.609  16.932 -0.4826  0.2011  0.6555
14401TIP3    H164694   0.435   5.639  17.011 -0.4788  0.1488  0.6729
14401TIP3    H264695   0.384   5.514  16.942  1.0064 -0.0135 -0.1750
14402TIP3   OH264696   6.442   1.518   2.460  0.4712  0.3784 -0.0975
14402TIP3    H164697   6.410   1.595   2.413  0.1129  0.1150 -0.2936
14402TIP3    H264698   6.391   1.446   2.424 -1.0953  0.3721  1.9451
14403TIP3   OH264699   4.287   3.599  11.386 -0.5490 -0.2931  0.2233
14403TIP3    H164700   4.247   3.684  11.371 -0.7199 -0.2625  0.8287
14403TIP3    H264701   4.377   3.608  11.353 -0.0886  0.6031  1.6675
14404TIP3   OH264702   5.487   5.267   2.352 -0.2519 -0.2308  0.0815
14404TIP3    H164703   5.424   5.219   2.298 -0.9090 -0.5121  1.0677
14404TIP3    H264704   5.517   5.203   2.416 -1.0963  0.6244  1.3823
14405TIP3   OH264705   1.990   4.085   1.455 -0.0909 -0.0759  0.4738
14405TIP3    H164706   2.001   3.994   1.428 -1.1539 -0.7402  2.1437
14405TIP3    H264707   1.900   4.106   1.432  0.2216  0.6525 -0.1203
14406TIP3   OH264708   3.363   2.766  14.693 -0.4965 -0.5715 -0.2243
14406TIP3    H164709   3.458   2.767  14.686 -0.2281  0.1729  2.4880
14406TIP3    H264710   3.344   2.802  14.779 -3.2937 -0.0814 -0.9210
14407TIP3   OH264711   2.090   1.065  11.021 -0.2935 -0.5352  0.1771
14407TIP3    H164712   2.034   1.119  11.077  1.5203  0.3073  1.2631
14407TIP3    H264713   2.108   0.987  11.074 -1.2359 -1.3128 -0.5887
14408TIP3   OH264714   1.900   6.115   1.012  0.3821  0.5352 -0.0404
14408TIP3    H164715   1.901   6.103   0.917 -1.9996  0.7700 -0.1309
14408TIP3    H264716   1.968   6.055   1.043  1.9608  1.2014 -1.9166
14409TIP3   OH264717   1.003   1.776  15.283  0.5980  0.3211  0.4944
14409TIP3    H164718   1.032   1.688  15.310 -0.1186  0.1029  0.5546
14409TIP3    H264719   0.943   1.804  15.351  2.5233  1.8268  1.6837
14410TIP3   OH264720   6.005   6.031   4.066 -0.8170 -0.1797  0.3663
14410TIP3    H164721   6.098   6.035   4.089 -0.6193  0.5362 -0.4708
14410TIP3    H264722   6.004   6.030   3.971 -1.6591 -0.9652  0.3698
14411TIP3   OH264723   5.174   0.135  16.001  0.3792  0.0869  0.3211
14411TIP3    H164724   5.139   0.048  16.018 -1.3536  0.5726 -0.4734
14411TIP3    H264725   5.184   0.175  16.087 -1.5998  0.0922  0.5872
14412TIP3   OH264726   3.292   5.788  15.435 -0.3923  0.5445  0.1549
14412TIP3    H164727   3.268   5.860  15.493 -0.3853 -0.4727  1.4664
14412TIP3    H264728   3.262   5.710  15.481 -2.0151 -0.2237 -2.0325
14413TIP3   OH264729   2.622   0.879   3.743 -0.2071 -0.5277 -0.8800
14413TIP3    H164730   2.703   0.912   3.703  0.5697 -1.8055 -0.4307
14413TIP3    H264731   2.611   0.932   3.822  1.8969 -2.2503  0.6937
14414TIP3   OH264732   3.301   3.896   3.611 -0.5373 -1.0218  0.5780
14414TIP3    H164733   3.268   3.943   3.535 -0.2297 -1.2945  0.2781
14414TIP3    H264734   3.332   3.965   3.670  0.8261 -0.8852 -0.2777
14415TIP3   OH264735   4.796   1.250   4.598  0.3392 -0.2302  0.0168
14415TIP3    H164736   4.755   1.167   4.621  1.1103 -0.4144  0.7793
14415TIP3    H264737   4.847   1.231   4.519 -1.5663  0.1787 -1.3977
14416TIP3   OH264738   3.009   2.864  14.419 -0.0217  0.1522  0.6053
14416TIP3    H164739   3.020   2.907  14.335 -0.1113 -0.4642  0.2672
14416TIP3    H264740   3.092   2.818  14.433 -0.8228 -1.6716 -0.2881
14417TIP3   OH264741   4.136   4.096  16.673 -0.3498 -0.2075 -0.5624
14417TIP3    H164742   4.070   4.166  16.670  1.3977  1.5231 -1.1888
14417TIP3    H264743   4.137   4.070  16.765 -2.4300 -0.8771 -0.6690
14418TIP3   OH264744   3.961   0.831  16.687 -0.5615 -0.2033  0.1016
14418TIP3    H164745   3.946   0.900  16.623 -2.6306  0.6631  1.4104
14418TIP3    H264746   3.938   0.871  16.771 -0.9917 -2.2124  1.0079
14419TIP3   OH264747   6.711   0.007  17.105  0.4185 -0.0190 -0.4583
14419TIP3    H164748   6.681   0.098  17.106 -0.0730 -0.1731 -0.5301
14419TIP3    H264749   6.783   0.005  17.167 -0.5647  0.0954  0.7363
14420TIP3   OH264750   4.009   4.257   6.232  0.2510 -0.4311 -0.0170
14420TIP3    H164751   4.014   4.345   6.193  1.7773 -0.7511 -0.5930
14420TIP3    H264752   4.060   4.202   6.173  0.5605 -1.4204  1.1533
14421TIP3   OH264753   2.725   6.513   2.125  0.7289 -0.2141 -0.6084
14421TIP3    H164754   2.656   6.483   2.183  0.3309  1.6485 -0.0490
14421TIP3    H264755   2.767   6.584   2.172  1.1486  0.6027 -2.1308
14422TIP3   OH264756   1.555   2.630   4.673 -0.8021 -0.6279  0.4242
14422TIP3    H164757   1.587   2.585   4.751 -0.7998  0.3024  0.9838
14422TIP3    H264758   1.467   2.594   4.660 -0.4823 -1.4032  0.3445
14423TIP3   OH264759   1.136   3.254  12.231  0.1448 -0.3627 -0.2413
14423TIP3    H164760   1.124   3.159  12.228 -0.6702 -0.2422 -2.0140
14423TIP3    H264761   1.070   3.284  12.294  0.9744 -1.0114  0.9897
14424TIP3   OH264762   6.243   1.979   0.648 -0.3846  0.5095 -0.4415
14424TIP3    H164763   6.321   1.961   0.699 -0.2742  0.9347 -0.4558
14424TIP3    H264764   6.201   2.053   0.693  0.8335  2.3340 -2.1489
14425TIP3   OH264765   4.925   1.720   4.125  0.9789  0.5759 -0.7358
14425TIP3    H164766   4.974   1.639   4.140  0.4121  0.5195  1.0151
14425TIP3    H264767   4.844   1.692   4.082 -0.6708 -0.3049  2.6003
14426TIP3   OH264768   6.446   4.676   0.984  0.4671  0.7710  0.1986
14426TIP3    H164769   6.404   4.734   1.048  0.4585 -0.3361  1.2083
14426TIP3    H264770   6.477   4.736   0.915 -0.5061  1.8637  0.6730
14427TIP3   OH264771   3.104   6.442   4.887 -0.4789  0.0818  0.0203
14427TIP3    H164772   3.078   6.534   4.890 -1.5074 -0.0983 -1.9302
14427TIP3    H264773   3.060   6.407   4.810  0.9687 -1.7269 -0.0563
14428TIP3   OH264774   0.146   3.988  16.896 -1.0545  0.0418  0.0652
14428TIP3    H164775   0.160   4.004  16.989 -1.3913  2.0601 -0.1765
14428TIP3    H264776   0.233   3.999  16.856 -0.9081 -0.8331  0.1353
14429TIP3   OH264777   2.142   5.034   0.161  0.2171  0.5482 -0.7739
14429TIP3    H164778   2.186   5.024   0.246 -1.7763  2.2605  0.5805
14429TIP3    H264779   2.158   5.125   0.137  2.6186 -0.4477 -3.4640
14430TIP3   OH264780   2.972   6.452   1.452  0.0668 -0.2134 -0.0532
14430TIP3    H164781   3.067   6.452   1.441 -0.0708 -1.0390 -1.3974
14430TIP3    H264782   2.958   6.492   1.538  1.4236  3.0500 -1.2012
14431TIP3   OH264783   6.120   2.163   0.824  0.0864 -0.0075  0.0805
14431TIP3    H164784   6.052   2.102   0.797 -0.6501 -0.5261  2.8100
14431TIP3    H264785   6.076   2.248   0.828 -0.5849 -0.3982  2.1723
14432TIP3   OH264786   2.035   0.980   4.464 -0.4628 -0.0748 -0.0394
14432TIP3    H164787   2.094   1.047   4.501 -1.7429  2.5588 -2.3665
14432TIP3    H264788   2.038   0.995   4.370 -1.2756 -3.0446 -0.6348
14433TIP3   OH264789   1.411   4.774   0.452  0.7724 -0.1442 -0.7337
14433TIP3    H164790   1.504   4.750   0.445  1.0281  1.1509 -2.8143
14433TIP3    H264791   1.364   4.693   0.436  1.5230 -0.7603  0.0531
14434TIP3   OH264792   6.380   0.023  14.141 -0.0049 -0.3983  1.3682
14434TIP3    H164793   6.462   0.040  14.187  0.4075 -0.1179  0.5594
14434TIP3    H264794   6.352  -0.062  14.173  2.0652 -1.8575 -0.3302
14435TIP3   OH264795   4.969   1.954  14.926 -0.4957  0.0358  0.2547
14435TIP3    H164796   4.984   1.929  15.017  0.7043  0.2079  0.1235
14435TIP3    H264797   4.893   2.013  14.929 -0.0031  0.6553  1.2527
14436TIP3   OH264798   6.572   6.058  15.259  0.2076 -0.1906  0.1808
14436TIP3    H164799   6.585   6.007  15.339  0.6999 -0.6266 -0.1669
14436TIP3    H264800   6.538   5.995  15.196  1.0800 -0.1564 -0.3344
14437TIP3   OH264801   4.161   1.948   5.999  0.0170 -0.2502  0.2700
14437TIP3    H164802   4.250   1.981   5.984 -0.6832  1.7751  0.2582
14437TIP3    H264803   4.139   1.979   6.087 -1.1875  0.5009 -0.2854
14438TIP3   OH264804   1.185   5.578  15.684  0.1093  0.2856 -0.3179
14438TIP3    H164805   1.250   5.516  15.716 -1.2322 -0.3682  1.2468
14438TIP3    H264806   1.222   5.610  15.601  1.9535 -0.7624  0.0421
14439TIP3   OH264807   5.708   0.415   4.536 -0.4126  0.6576  0.2027
14439TIP3    H164808   5.618   0.435   4.558 -1.1946  0.3968 -2.4426
14439TIP3    H264809   5.713   0.319   4.539 -0.3156  0.6558  0.0287
14440TIP3   OH264810   1.148   5.344  12.429 -0.5619 -0.6299 -0.4840
14440TIP3    H164811   1.224   5.389  12.466  0.0253 -1.7487 -0.2810
14440TIP3    H264812   1.186   5.277  12.372 -1.4041 -1.0944 -0.5088
14441TIP3   OH264813   5.042   2.396  13.534 -0.3379  0.4616  0.0513
14441TIP3    H164814   5.124   2.423  13.575 -0.6270  2.7652 -0.7475
14441TIP3    H264815   5.002   2.335  13.597  2.2907 -1.3462  0.1138
14442TIP3   OH264816   3.363   6.039   0.953 -0.0967 -0.1457 -0.2635
14442TIP3    H164817   3.364   5.959   0.900 -1.4253  0.5418 -1.3717
14442TIP3    H264818   3.404   6.105   0.898 -0.8280  0.4070 -0.1563
14443TIP3   OH264819   1.349   2.909   2.084 -0.4478 -0.4376  0.0561
14443TIP3    H164820   1.360   2.871   2.171  1.6439 -0.4766 -0.1750
14443TIP3    H264821   1.374   3.001   2.094 -1.5624 -0.0792 -0.2443
14444TIP3   OH264822   0.783   1.570   2.021 -0.3895  0.5973  0.1029
14444TIP3    H164823   0.779   1.515   2.099 -1.5623 -1.9481 -1.6169
14444TIP3    H264824   0.741   1.652   2.047 -0.2966  0.0122  2.2527
14445TIP3   OH264825   5.973   1.689  16.826  0.0156  0.1501  0.2481
14445TIP3    H164826   5.911   1.657  16.891  0.7366 -0.6574  0.5537
14445TIP3    H264827   6.033   1.616  16.811  0.3662  0.6073 -0.7030
14446TIP3   OH264828   5.075   5.771  17.091 -0.1707 -0.3115  0.8020
14446TIP3    H164829   5.049   5.692  17.139 -1.4286  0.9545  2.3418
14446TIP3    H264830   5.137   5.815  17.150  0.4783 -0.1098 -0.0189
14447TIP3   OH264831   6.277   2.255  15.728  0.8271  0.4939 -0.3159
14447TIP3    H164832   6.303   2.179  15.780 -0.0496  0.0915 -0.4457
14447TIP3    H264833   6.199   2.226  15.680  1.1088  1.1400 -1.1855
14448TIP3   OH264834   3.569   0.854   5.458 -0.4358 -0.9147  0.3390
14448TIP3    H164835   3.599   0.865   5.368 -1.7846  2.8487  0.1958
14448TIP3    H264836   3.486   0.806   5.450 -0.5532 -0.5903 -0.4284
14449TIP3   OH264837   6.457   1.775   0.396  0.1999  0.4170 -0.0045
14449TIP3    H164838   6.434   1.851   0.343 -0.0802 -0.0112 -0.5078
14449TIP3    H264839   6.551   1.787   0.415  1.0055 -0.7091 -2.8203
14450TIP3   OH264840   6.476   3.122  13.697  0.2455  0.6764 -0.3302
14450TIP3    H164841   6.571   3.110  13.700  0.5279  2.5710 -0.3769
14450TIP3    H264842   6.449   3.083  13.614  0.5714 -2.1003  0.7658
14451TIP3   OH264843   6.109   1.601  14.697 -0.0479  0.4196 -0.0337
14451TIP3    H164844   6.104   1.554  14.780  1.7482  0.5312  0.1835
14451TIP3    H264845   6.124   1.533  14.631 -0.3915  0.4308 -0.1259
14452TIP3   OH264846   3.989   6.471   5.601 -0.1770 -0.2470  0.3945
14452TIP3    H164847   3.897   6.495   5.608 -0.9728 -2.9243  0.2139
14452TIP3    H264848   4.023   6.479   5.690 -0.7157  0.2258  0.5640
14453TIP3   OH264849   3.634   1.903  15.856  0.0872 -0.1644 -0.1798
14453TIP3    H164850   3.632   1.867  15.944 -0.5496  0.9644  0.2823
14453TIP3    H264851   3.573   1.848  15.806  1.0443 -1.2997 -0.1400
14454TIP3   OH264852   6.589   2.419   2.100  0.1741 -0.0269 -0.4798
14454TIP3    H164853   6.630   2.400   2.185  1.5358 -2.2984 -1.5537
14454TIP3    H264854   6.637   2.365   2.037 -0.8127  1.5569 -2.7379
14455TIP3   OH264855   0.154   1.302   4.999  0.0139 -0.1754  0.2709
14455TIP3    H164856   0.194   1.311   5.086  0.0755 -1.9148  0.4670
14455TIP3    H264857   0.158   1.208   4.981 -2.4172 -0.1995 -0.4667
14456TIP3   OH264858   0.683   1.457   5.250 -0.1711  0.3139 -0.2939
14456TIP3    H164859   0.676   1.404   5.329 -0.3629  0.6882 -0.0574
14456TIP3    H264860   0.744   1.527   5.274 -1.0228  1.0153 -0.1496
14457TIP3   OH264861   0.776   0.207   2.974 -0.3984  0.2113 -0.2227
14457TIP3    H164862   0.721   0.137   2.938 -0.2016 -0.5828  0.9745
14457TIP3    H264863   0.714   0.277   2.993 -1.0591 -0.7147  1.2301
14458TIP3   OH264864   2.387   5.984  10.046  0.4839  0.0420 -0.5304
14458TIP3    H164865   2.465   6.041  10.042  0.8453 -0.4599 -0.7407
14458TIP3    H264866   2.367   5.965   9.955  0.0325  0.2719 -0.4810
14459TIP3   OH264867   4.167   1.594   0.678  0.5732  0.4743  0.2838
14459TIP3    H164868   4.218   1.537   0.736  0.5317 -1.0198 -1.1058
14459TIP3    H264869   4.213   1.591   0.594 -2.0539 -1.4142 -1.2118
14460TIP3   OH264870   4.048   4.086  15.013 -0.4450  0.4699  0.2590
14460TIP3    H164871   4.104   4.100  15.089  1.1929 -1.8617 -0.4436
14460TIP3    H264872   4.087   4.141  14.945  0.0897  0.0120  0.1913
14461TIP3   OH264873   6.285   4.891   3.974 -0.3142  0.1538  0.1149
14461TIP3    H164874   6.204   4.848   4.000 -0.6267  1.8546  2.2302
14461TIP3    H264875   6.354   4.839   4.017 -0.5305  0.4805  0.8766
14462TIP3   OH264876   2.526   5.793   0.644  0.3426  0.1131  0.0423
14462TIP3    H164877   2.586   5.851   0.691  0.1919 -0.0722  0.4761
14462TIP3    H264878   2.499   5.728   0.710  1.0233 -0.8540 -0.6015
14463TIP3   OH264879   1.618   5.176   1.745 -0.0942 -0.1126 -0.0022
14463TIP3    H164880   1.651   5.262   1.718  1.5473 -0.7416 -0.1561
14463TIP3    H264881   1.548   5.195   1.808  0.4884  1.3390  0.2489
14464TIP3   OH264882   1.180   2.572  14.291 -0.2548  0.3115  0.1411
14464TIP3    H164883   1.163   2.642  14.228 -2.8310 -1.6272 -1.5380
14464TIP3    H264884   1.111   2.581  14.356 -0.1669 -0.2308  0.3145
14465TIP3   OH264885   4.915   0.121   3.841  0.2662 -0.0901 -0.0066
14465TIP3    H164886   4.961   0.043   3.871 -1.2626 -0.8196  0.5637
14465TIP3    H264887   4.823   0.103   3.860 -0.0830  2.0618  0.5992
14466TIP3   OH264888   6.579   4.986  15.267 -0.3448 -0.1247  0.1507
14466TIP3    H164889   6.556   5.054  15.330 -0.7779 -1.1160  1.0922
14466TIP3    H264890   6.660   5.017  15.226 -0.3532  0.7864  0.8117
14467TIP3   OH264891   0.492   2.027   5.494  0.7096  0.2290 -0.0452
14467TIP3    H164892   0.397   2.012   5.495  0.8548 -0.7884 -0.2540
14467TIP3    H264893   0.501   2.122   5.503 -0.3002  0.2674  0.8008
14468TIP3   OH264894   4.683   6.759  15.249 -0.2941  0.1839  0.0626
14468TIP3    H164895   4.657   6.688  15.189  0.1662  0.2312 -0.1940
14468TIP3    H264896   4.606   6.772  15.305  0.1219 -1.5726  1.1359
14469TIP3   OH264897   5.688   3.665  15.892 -0.1702  0.2253 -0.1141
14469TIP3    H164898   5.699   3.746  15.942 -0.5028 -0.1600  0.6003
14469TIP3    H264899   5.776   3.628  15.887 -0.1813  0.1252  0.4323
14470TIP3   OH264900   1.529   4.885  10.827  0.2209  0.2142 -0.3856
14470TIP3    H164901   1.623   4.899  10.837 -0.1779  2.4498  0.7501
14470TIP3    H264902   1.507   4.929  10.745 -0.3681  3.1347  1.2021
14471TIP3   OH264903   3.280   2.114  14.738 -0.3772 -0.2254  0.2323
14471TIP3    H164904   3.210   2.173  14.712 -1.3791 -0.9954  1.0875
14471TIP3    H264905   3.246   2.069  14.816  0.1153 -2.3361 -0.6984
14472TIP3   OH264906   6.064   2.437  16.919  0.3944 -0.0362  0.0518
14472TIP3    H164907   6.081   2.431  16.825  0.7953 -0.8314  0.1637
14472TIP3    H264908   5.979   2.394  16.931 -1.5173  3.2831 -0.4091
14473TIP3   OH264909   2.951   0.403  16.815 -0.6472 -0.2688 -0.1396
14473TIP3    H164910   2.944   0.460  16.892 -0.8202 -0.3939 -0.0599
14473TIP3    H264911   2.862   0.400  16.779 -0.4782  0.1463 -0.6056
14474TIP3   OH264912   3.693   4.387   5.534  0.5808  0.2132 -0.3568
14474TIP3    H164913   3.690   4.357   5.624  1.5128 -1.2473 -0.7712
14474TIP3    H264914   3.747   4.467   5.537  0.7194  0.0956  0.3618
14475TIP3   OH264915   4.546   2.691  13.932 -0.2589 -0.3981  0.2546
14475TIP3    H164916   4.555   2.695  13.836  0.4310  0.3343  0.3431
14475TIP3    H264917   4.517   2.601  13.949 -1.5684 -0.2024 -0.7272
14476TIP3   OH264918   1.511   2.251  14.283  0.3858  0.4103 -0.0063
14476TIP3    H164919   1.459   2.297  14.350  0.7631  0.6458  0.1284
14476TIP3    H264920   1.446   2.213  14.224  0.0513  0.3170  0.4178
14477TIP3   OH264921   1.341   3.526  14.392  0.2577  0.1330 -0.4203
14477TIP3    H164922   1.310   3.603  14.345  0.6907  0.2272 -0.5538
14477TIP3    H264923   1.289   3.524  14.472 -0.8514 -0.3105 -1.1294
14478TIP3   OH264924   0.024   5.350  14.352  0.5859 -0.0289 -0.0885
14478TIP3    H164925   0.063   5.407  14.418  0.5086 -1.2765  1.0760
14478TIP3    H264926  -0.067   5.341  14.380  0.2907  0.2128 -0.9381
14479TIP3   OH264927   4.909   5.454   0.802  0.0461 -0.3247 -1.0074
14479TIP3    H164928   4.906   5.540   0.760 -0.2210  0.7954  1.1543
14479TIP3    H264929   4.983   5.459   0.862 -1.0311 -0.9339  0.4283
14480TIP3   OH264930   1.704   5.605   3.901  0.4771 -0.3296  0.1883
14480TIP3    H164931   1.666   5.688   3.928 -1.3714 -1.6520  2.0334
14480TIP3    H264932   1.786   5.628   3.857 -0.1058  2.4335  0.4019
14481TIP3   OH264933   6.667   0.630   6.266  0.2295  0.3213  0.3423
14481TIP3    H164934   6.741   0.577   6.295  2.7825  2.6257 -1.4648
14481TIP3    H264935   6.619   0.650   6.347  1.1373 -1.7608  1.4817
14482TIP3   OH264936   5.263   5.653  11.411  0.3762 -0.6167 -0.2467
14482TIP3    H164937   5.299   5.585  11.468 -2.6230 -2.0050  0.1849
14482TIP3    H264938   5.242   5.725  11.470 -0.7902 -1.2211  0.0945
14483TIP3   OH264939   2.274   2.510   5.669 -0.3139 -0.1003  0.8184
14483TIP3    H164940   2.180   2.494   5.674 -0.9104  2.9169  1.3274
14483TIP3    H264941   2.289   2.533   5.577 -0.7151  2.2285  1.2657
14484TIP3   OH264942   5.082   5.002  13.218 -0.2217  0.4808  0.0598
14484TIP3    H164943   5.110   5.051  13.141  0.0662  0.2121 -0.0057
14484TIP3    H264944   5.008   5.053  13.253 -0.8739  0.1693 -0.8387
14485TIP3   OH264945   4.374   2.454  11.292 -0.0304  0.0385  0.5866
14485TIP3    H164946   4.375   2.387  11.224 -0.0618  0.0162  0.6085
14485TIP3    H264947   4.429   2.419  11.362  0.2105  0.1710  0.4653
14486TIP3   OH264948   4.162   5.399   3.850  0.2480 -0.0946  0.4471
14486TIP3    H164949   4.129   5.322   3.803  1.2138 -1.2119  1.5466
14486TIP3    H264950   4.257   5.398   3.834  0.0909  1.9053 -0.9811
14487TIP3   OH264951   1.136   2.527  15.878 -0.0057 -0.1991 -0.1669
14487TIP3    H164952   1.088   2.519  15.796 -0.5777  1.2408 -0.0100
14487TIP3    H264953   1.191   2.605  15.866 -0.7650  0.5830  1.0982
14488TIP3   OH264954   5.325   2.999  13.747  0.2321  0.5556 -0.1778
14488TIP3    H164955   5.290   3.044  13.823  0.0866  1.5084 -0.7916
14488TIP3    H264956   5.369   2.921  13.783 -2.0167 -0.3999  0.6445
14489TIP3   OH264957   0.701   5.040   2.878  0.3516  0.2206 -0.3964
14489TIP3    H164958   0.662   5.125   2.859 -1.7546 -0.4328  0.6660
14489TIP3    H264959   0.732   5.008   2.793  0.4366  1.6807 -0.9421
14490TIP3   OH264960   5.308   5.985  13.010 -0.0694  0.0407 -0.0893
14490TIP3    H164961   5.387   6.025  13.047 -0.7581 -0.7971  2.4798
14490TIP3    H264962   5.238   6.047  13.031 -0.2637  0.3800 -1.6183
14491TIP3   OH264963   4.109   0.450   2.093  0.1239 -0.1286  0.0024
14491TIP3    H164964   4.040   0.516   2.102 -1.5373 -1.4460 -2.0252
14491TIP3    H264965   4.180   0.495   2.049 -0.0756  0.8602  0.6643
14492TIP3   OH264966   0.981   4.551   2.593  0.1410  0.5050  0.0290
14492TIP3    H164967   1.039   4.622   2.564 -1.1452  0.7017 -2.2405
14492TIP3    H264968   1.005   4.477   2.538  0.3614 -0.3717  1.2723
14493TIP3   OH264969   1.362   3.162  17.078  0.4106  0.2241  0.2249
14493TIP3    H164970   1.339   3.097  17.145 -0.6462  0.1822 -0.1628
14493TIP3    H264971   1.423   3.116  17.020  1.2313  0.2182  1.0682
14494TIP3   OH264972   2.457   2.288  15.237  0.2977  0.4118  0.1757
14494TIP3    H164973   2.489   2.198  15.243  2.1082  1.0030  0.0470
14494TIP3    H264974   2.460   2.320  15.328 -0.4383  0.3213  0.2360
14495TIP3   OH264975   6.138   6.476  14.005  0.0190 -0.1218  0.0412
14495TIP3    H164976   6.167   6.542  14.068 -2.0798  0.4548  0.4540
14495TIP3    H264977   6.216   6.423  13.990  1.4378  1.6468  0.6734
14496TIP3   OH264978   3.093   3.585   4.888  0.4294  0.1260  0.1357
14496TIP3    H164979   3.013   3.574   4.940  1.1773 -1.6384  0.9932
14496TIP3    H264980   3.154   3.630   4.946  0.6266 -0.1068  0.1120
14497TIP3   OH264981   0.864   0.221   3.381  0.5445 -0.5453  0.7577
14497TIP3    H164982   0.907   0.207   3.296 -1.2055  1.3696 -0.5504
14497TIP3    H264983   0.937   0.234   3.442  1.9694  1.7605 -1.1944
14498TIP3   OH264984   0.037   5.599  11.393  0.2921  0.2970 -0.1555
14498TIP3    H164985   0.120   5.573  11.433  0.4669 -1.6558 -1.6618
14498TIP3    H264986   0.046   5.694  11.380  1.9770  0.2512  0.3942
14499TIP3   OH264987   5.507   2.661  15.803  0.0040 -0.7060  0.6495
14499TIP3    H164988   5.416   2.672  15.831 -0.5214 -0.9662 -0.8822
14499TIP3    H264989   5.501   2.619  15.717  1.5257  0.6002 -0.1413
14500TIP3   OH264990   1.679   0.489   6.360  0.7069 -0.5237  0.2524
14500TIP3    H164991   1.646   0.504   6.271  4.1773 -0.0594 -1.1205
14500TIP3    H264992   1.731   0.409   6.352  0.2646 -1.0387  2.1627
14501TIP3   OH264993   5.493   1.544   2.095 -0.5158 -0.3603 -0.6672
14501TIP3    H164994   5.502   1.506   2.183  1.8518  0.9650 -0.2494
14501TIP3    H264995   5.437   1.621   2.107 -0.0709 -0.0938 -0.2552
14502TIP3   OH264996   3.786   4.876   2.296  0.3215 -0.1982  0.7899
14502TIP3    H164997   3.841   4.952   2.276  1.2896 -0.2233  3.0842
14502TIP3    H264998   3.723   4.908   2.361 -2.6396 -0.1201 -1.8910
14503TIP3   OH264999   4.520   0.987  15.418 -0.3534 -0.3906 -0.4421
14503TIP3    H165000   4.427   1.009  15.421 -0.0101  1.0828  0.4465
14503TIP3    H265001   4.535   0.936  15.498 -0.2779 -0.1448 -0.3009
14504TIP3   OH265002   2.586   2.523   3.462 -0.1586 -0.1527  0.2360
14504TIP3    H165003   2.579   2.434   3.426 -2.7758  0.4614 -0.9463
14504TIP3    H265004   2.679   2.532   3.483  0.7479 -2.1551 -2.3133
14505TIP3   OH265005   0.853   2.110   3.005  1.0304 -0.1234  0.5241
14505TIP3    H165006   0.816   2.188   2.964 -0.6778 -0.9587  0.4157
14505TIP3    H265007   0.948   2.126   3.004  0.7468  1.7768  0.1920
14506TIP3   OH265008   4.273   2.051  16.803 -0.1527  0.0409 -0.8924
14506TIP3    H165009   4.197   1.993  16.808  0.7895 -1.1562  0.3596
14506TIP3    H265010   4.316   2.042  16.888  0.8078  1.5296 -1.1734
14507TIP3   OH265011   5.985   3.566   5.424 -0.7384  0.4233 -0.3670
14507TIP3    H165012   5.916   3.618   5.464 -1.9824 -2.4156  1.4731
14507TIP3    H265013   5.953   3.476   5.427  2.8033 -1.0108  0.1681
14508TIP3   OH265014   1.895   4.792  11.803  0.4468 -0.2922  0.5342
14508TIP3    H165015   1.953   4.866  11.825  1.7238 -1.6750  2.1299
14508TIP3    H265016   1.807   4.827  11.817  0.9597  1.2227  0.2497
14509TIP3   OH265017   3.153   1.899   0.457 -0.2298 -0.1056 -0.2517
14509TIP3    H165018   3.168   1.993   0.444 -0.5262  0.1149  0.8927
14509TIP3    H265019   3.238   1.858   0.444 -0.1746  0.2748 -1.1338
14510TIP3   OH265020   4.859   4.599  15.921  0.0210 -0.2057 -0.2219
14510TIP3    H165021   4.863   4.651  16.002  2.3452 -1.9474  0.8901
14510TIP3    H265022   4.928   4.636  15.866 -0.1202 -0.4031 -0.5323
14511TIP3   OH265023   1.885   0.360   3.851  0.6531  0.2243 -0.0449
14511TIP3    H165024   1.868   0.451   3.875  0.2725 -0.0309  0.6719
14511TIP3    H265025   1.798   0.321   3.840  0.8019 -0.2400  0.3790
14512TIP3   OH265026   6.669   1.107  16.349  0.2974  0.0781 -0.7792
14512TIP3    H165027   6.689   1.200  16.339 -0.8906  0.2123 -2.1673
14512TIP3    H265028   6.682   1.090  16.443 -0.2384  1.8224 -0.3437
14513TIP3   OH265029   0.781   2.356  13.334 -0.4432  0.1841  0.5047
14513TIP3    H165030   0.861   2.392  13.374 -0.8726  0.9847  0.6617
14513TIP3    H265031   0.711   2.412  13.365 -0.8894  0.3926 -0.7975
14514TIP3   OH265032   1.261   3.923  11.220 -0.2233 -0.4251 -0.1241
14514TIP3    H165033   1.176   3.954  11.253 -0.2581  0.4997 -1.0319
14514TIP3    H265034   1.282   3.848  11.276 -2.1055 -1.3094 -0.5116
14515TIP3   OH265035   2.311   4.910  14.279 -0.5676 -0.8200 -0.0652
14515TIP3    H165036   2.306   4.956  14.195 -0.0529 -0.7448 -0.0580
14515TIP3    H265037   2.349   4.824  14.257  3.7557  0.6596  0.5815
14516TIP3   OH265038   5.402   0.038  12.287 -0.5095  0.5845 -0.1221
14516TIP3    H165039   5.387   0.129  12.258  1.3965  1.3430  1.0942
14516TIP3    H265040   5.416   0.045  12.381  1.4064 -0.7103 -0.2526
14517TIP3   OH265041   6.303   6.814  16.400 -0.1755 -0.1491  0.5209
14517TIP3    H165042   6.250   6.845  16.473 -1.1707  1.2305 -0.7000
14517TIP3    H265043   6.249   6.831  16.323  1.3645 -0.2970 -0.6483
14518TIP3   OH265044   0.567   0.658   0.609  0.2131 -0.3583 -0.4979
14518TIP3    H165045   0.581   0.573   0.652  0.9237  0.2215  0.4646
14518TIP3    H265046   0.650   0.705   0.621  0.4597 -0.1863 -2.6171
14519TIP3   OH265047   4.020   5.776   1.530 -0.2112  0.1583 -0.3260
14519TIP3    H165048   4.046   5.709   1.594 -0.4028  0.8066  0.4414
14519TIP3    H265049   4.043   5.859   1.571 -0.5023  0.6006 -1.0321
14520TIP3   OH265050   6.155   1.537  14.406 -0.5170 -0.6564 -0.1711
14520TIP3    H165051   6.242   1.577  14.411 -0.5859 -0.5179 -0.0498
14520TIP3    H265052   6.130   1.544  14.314 -1.5137  1.7095  0.2144
14521TIP3   OH265053   0.534   5.582  15.945 -0.2074 -0.3606  0.0604
14521TIP3    H165054   0.472   5.634  15.997 -3.2253 -2.2990 -1.3716
14521TIP3    H265055   0.534   5.496  15.986 -0.5201 -1.1274 -1.4791
14522TIP3   OH265056   5.489   0.280   4.737 -0.2718  0.0723 -0.3986
14522TIP3    H165057   5.416   0.245   4.787  0.6149 -0.2270  0.7329
14522TIP3    H265058   5.510   0.363   4.780  1.0360 -0.5812  0.3185
14523TIP3   OH265059   0.129   0.706  14.189 -0.0181  0.3907 -0.0779
14523TIP3    H165060   0.113   0.679  14.280  2.6096 -0.4983  0.2195
14523TIP3    H265061   0.083   0.640  14.137  0.7408 -0.7511  0.6422
14524TIP3   OH265062   2.658   3.606   4.537  0.4183 -0.1432  0.1630
14524TIP3    H165063   2.689   3.648   4.457  1.4031  0.2994  0.7519
14524TIP3    H265064   2.588   3.664   4.569  1.4580  0.8651  0.7254
14525TIP3   OH265065   0.332   1.720  12.446  1.0111 -0.5671 -0.3554
14525TIP3    H165066   0.325   1.788  12.513  2.1082  0.6565 -1.4195
14525TIP3    H265067   0.371   1.646  12.491  2.7945  0.6197  0.1380
14526TIP3   OH265068   2.240   5.288  13.577 -0.0846  0.2276 -0.3471
14526TIP3    H165069   2.223   5.194  13.586 -1.1304  0.3619 -0.7701
14526TIP3    H265070   2.157   5.324  13.545  0.2597  1.3170 -0.0494
14527TIP3   OH265071   1.872   4.660   3.461 -0.6504 -0.2622  0.6218
14527TIP3    H165072   1.944   4.614   3.419 -0.5657 -0.1987  0.6968
14527TIP3    H265073   1.901   4.673   3.552 -1.5465 -1.9853  1.2083
14528TIP3   OH265074   1.152   6.662   4.052  0.5274 -0.0674  0.4115
14528TIP3    H165075   1.127   6.618   3.971  2.2233  0.2720 -0.3395
14528TIP3    H265076   1.078   6.648   4.111 -0.1527 -1.5017 -0.7305
14529TIP3   OH265077   4.278   5.777   4.939  0.2627 -0.5140  0.6219
14529TIP3    H165078   4.346   5.762   4.874  0.1941 -0.8519  0.6286
14529TIP3    H265079   4.210   5.825   4.892  0.9514  0.7675  0.8731
14530TIP3   OH265080   3.877   6.341  14.051 -0.0032  0.0196 -0.3520
14530TIP3    H165081   3.898   6.365  13.960 -0.0191  0.4382 -0.2497
14530TIP3    H265082   3.952   6.289  14.079  0.9473  1.5079  0.0089
14531TIP3   OH265083   4.127   2.452  13.267  0.1693 -0.1918 -0.4412
14531TIP3    H165084   4.219   2.468  13.288 -0.2402 -0.8956  2.4200
14531TIP3    H265085   4.108   2.366  13.306 -1.7565  0.0666 -0.6920
14532TIP3   OH265086   3.828   4.368  13.950 -0.0770  0.0109 -0.6903
14532TIP3    H165087   3.875   4.290  13.978  0.2991  0.0595 -1.1851
14532TIP3    H265088   3.741   4.358  13.990  0.8347  0.7503  1.6491
14533TIP3   OH265089   2.013   1.311  13.835 -0.3958 -0.0401  0.4686
14533TIP3    H165090   2.037   1.238  13.779  0.2157 -0.1403  0.8558
14533TIP3    H265091   2.002   1.385  13.774 -2.6463 -0.7868 -0.1382
14534TIP3   OH265092   0.972   5.663  12.016 -0.2489 -1.2927 -0.4556
14534TIP3    H165093   1.035   5.727  12.049 -0.7360 -0.2688 -1.4437
14534TIP3    H265094   1.013   5.628  11.937 -1.3246  0.1736 -1.7256
14535TIP3   OH265095   4.820   2.036   2.974  0.2979 -0.0867  0.1257
14535TIP3    H165096   4.764   2.103   3.014  1.4696  1.0750 -0.0836
14535TIP3    H265097   4.770   2.003   2.900 -0.3871  0.4224  0.3555
14536TIP3   OH265098   1.171   3.680   5.687  0.5411  0.0126 -0.4946
14536TIP3    H165099   1.110   3.614   5.721  0.2748 -0.1760 -1.3293
14536TIP3    H265100   1.121   3.727   5.620  1.0779  0.3523 -0.6638
14537TIP3   OH265101   3.016   2.047   3.317 -0.1330 -0.7255  0.8174
14537TIP3    H165102   3.062   1.967   3.290  1.0212 -0.0407  0.6919
14537TIP3    H265103   2.993   2.032   3.408  0.4880 -1.0154  0.9269
14538TIP3   OH265104   0.531   4.684  16.706 -0.5899 -0.0712 -0.0710
14538TIP3    H165105   0.539   4.656  16.798  0.0258  0.3085 -0.0037
14538TIP3    H265106   0.446   4.728  16.702 -0.5519  0.0503  0.3542
14539TIP3   OH265107   2.704   2.384   0.132 -0.1817 -0.5571 -0.1788
14539TIP3    H165108   2.715   2.323   0.205  2.0524  1.3809  1.2281
14539TIP3    H265109   2.638   2.446   0.161  1.0850  0.5246  0.4794
14540TIP3   OH265110   5.359   6.229  14.536  0.2873 -0.0311 -0.0798
14540TIP3    H165111   5.372   6.322  14.552  0.3146  0.0531 -0.5798
14540TIP3    H265112   5.274   6.224  14.491  0.2889 -0.2425 -0.0620
14541TIP3   OH265113   3.580   0.931  13.551 -0.0321  0.0481 -0.6963
14541TIP3    H165114   3.554   1.022  13.562  0.7991  0.0837  1.5508
14541TIP3    H265115   3.649   0.918  13.616 -1.3702 -2.6650  0.3261
14542TIP3   OH265116   3.657   3.516  14.562  0.0179 -0.1265  0.2787
14542TIP3    H165117   3.705   3.557  14.634 -0.7023  1.2259  0.0175
14542TIP3    H265118   3.590   3.580  14.539 -0.8554 -1.2824 -0.4567
14543TIP3   OH265119   4.918   0.093  14.074 -0.2035  0.0027 -0.3967
14543TIP3    H165120   4.919   0.187  14.058  1.2462 -0.0417 -0.7189
14543TIP3    H265121   4.938   0.054  13.989 -1.8344 -0.6698 -0.5142
14544TIP3   OH265122   3.319   3.201  14.085  0.3191  0.1183  0.1345
14544TIP3    H165123   3.339   3.291  14.057 -1.2560  0.1542 -1.0104
14544TIP3    H265124   3.262   3.212  14.161 -1.0158  0.1349 -0.8445
14545TIP3   OH265125   4.725   6.831  15.923 -0.0731 -0.1174 -0.3624
14545TIP3    H165126   4.725   6.920  15.957  0.8195  0.0472 -0.7772
14545TIP3    H265127   4.806   6.792  15.954 -0.2933 -0.6754 -0.4689
14546TIP3   OH265128   1.392   2.479   5.120  0.0493 -0.0004  0.6782
14546TIP3    H165129   1.344   2.418   5.176 -1.8179  0.4526 -0.3433
14546TIP3    H265130   1.428   2.544   5.181 -0.2271 -0.6128  1.5155
14547TIP3   OH265131   3.773   0.646  11.229  0.4475  0.4133  0.0999
14547TIP3    H165132   3.794   0.634  11.321  2.2942  0.7354 -0.2399
14547TIP3    H265133   3.761   0.557  11.195 -0.2580  0.2970  0.6351
14548TIP3   OH265134   4.596   2.301  11.725 -0.0079  0.2555 -0.6665
14548TIP3    H165135   4.670   2.360  11.735  0.5003 -0.4859  0.0688
14548TIP3    H265136   4.615   2.228  11.784 -1.7100  0.4335  0.1855
14549TIP3   OH265137   1.661   2.074   1.287 -0.0032  0.0524 -0.1439
14549TIP3    H165138   1.632   2.156   1.248  0.2432  1.1762  1.9277
14549TIP3    H265139   1.755   2.069   1.268 -0.1196 -0.0450 -0.7246
14550TIP3   OH265140   5.023   5.839  10.748  0.0160 -0.1577 -0.1974
14550TIP3    H165141   5.051   5.749  10.761  0.3955  0.0271  0.2790
14550TIP3    H265142   5.097   5.881  10.702 -0.6560 -0.3949 -1.5555
14551TIP3   OH265143   6.564   1.945  14.339  0.3362  0.1985 -0.1722
14551TIP3    H165144   6.552   1.970  14.247  0.5956  0.5007 -0.1271
14551TIP3    H265145   6.604   1.858  14.336  1.3397  0.6465 -0.3682
14552TIP3   OH265146   5.146   1.507  12.050  0.6527 -0.1710 -0.0597
14552TIP3    H165147   5.162   1.598  12.026  0.9827 -0.2829 -0.2752
14552TIP3    H265148   5.141   1.507  12.145  0.7153  0.0611 -0.0567
14553TIP3   OH265149   2.520   3.448   5.290  0.7070  0.0379  0.1484
14553TIP3    H165150   2.439   3.498   5.301  0.2857 -0.6792  0.3505
14553TIP3    H265151   2.556   3.440   5.378  0.3688 -0.6761  0.2279
14554TIP3   OH265152   3.643   2.191   1.093  0.0074  0.3605  0.0705
14554TIP3    H165153   3.624   2.267   1.148 -2.2389 -0.0957  0.0166
14554TIP3    H265154   3.728   2.211   1.053  0.1314  2.1826  1.1276
14555TIP3   OH265155   1.121   5.491  11.854 -0.3546  0.1873  0.9703
14555TIP3    H165156   1.212   5.499  11.824  0.0488 -0.2949  1.9902
14555TIP3    H265157   1.076   5.446  11.783  0.2356  0.3289  0.5021
14556TIP3   OH265158   2.984   5.085  13.089  0.0212  0.2052 -0.0500
14556TIP3    H165159   2.902   5.037  13.098 -0.3258  1.0940  2.0864
14556TIP3    H265160   3.052   5.018  13.098 -0.4374 -0.4085 -0.9961
14557TIP3   OH265161   0.408   2.719   2.634 -0.1057  0.0789 -0.3842
14557TIP3    H165162   0.317   2.719   2.664  0.2174 -0.3062  0.6537
14557TIP3    H265163   0.406   2.767   2.551 -0.8581  2.2173  0.8013
14558TIP3   OH265164   5.184   1.298  15.570 -0.3798  0.2037 -0.1789
14558TIP3    H165165   5.153   1.364  15.509 -1.5775 -0.6910 -0.5698
14558TIP3    H265166   5.112   1.236  15.578 -0.3643  0.4027  2.3290
14559TIP3   OH265167   2.006   5.490   1.337  0.1160 -0.3130  0.0164
14559TIP3    H165168   2.007   5.560   1.271  0.2677 -0.6808 -0.3741
14559TIP3    H265169   2.031   5.534   1.418 -0.3367  0.1963 -0.1160
14560TIP3   OH265170   1.174   6.525   2.427  0.0403 -0.2742 -0.5938
14560TIP3    H165171   1.222   6.607   2.414  2.9466 -2.0828 -2.2713
14560TIP3    H265172   1.201   6.496   2.514  1.8186 -1.0660 -1.3556
14561TIP3   OH265173   5.417   1.604  14.155 -0.1731  0.3979  0.2163
14561TIP3    H165174   5.343   1.655  14.122 -0.7643 -0.6714 -0.1357
14561TIP3    H265175   5.492   1.635  14.104 -0.6610  0.3800 -0.5254
14562TIP3   OH265176   1.102   6.408  10.722  0.1340  0.0359  0.0656
14562TIP3    H165177   1.166   6.340  10.740  2.3256  1.7902 -0.6699
14562TIP3    H265178   1.098   6.414  10.626  0.1357  1.0576  0.1122
14563TIP3   OH265179   4.980   1.097   3.258 -0.4754 -0.2590 -0.0591
14563TIP3    H165180   4.956   1.007   3.239  0.6382 -0.1681 -2.2706
14563TIP3    H265181   5.075   1.101   3.246 -0.3481  0.9857  1.0539
14564TIP3   OH265182   4.474   2.964   3.589 -0.3968 -0.4330  0.4842
14564TIP3    H165183   4.423   2.995   3.663  1.1870 -0.0044  1.4415
14564TIP3    H265184   4.412   2.963   3.515 -1.8601 -0.3611  1.6739
14565TIP3   OH265185   0.007   3.306  13.968 -0.1851  0.1182 -0.6963
14565TIP3    H165186  -0.005   3.274  13.878  1.3246  0.8274 -1.1838
14565TIP3    H265187   0.010   3.227  14.021  0.7454 -0.4273 -1.5255
14566TIP3   OH265188   1.032   3.485  15.356 -0.1544  0.5309  0.3390
14566TIP3    H165189   1.036   3.545  15.281  0.6102  1.9368  1.4517
14566TIP3    H265190   1.099   3.420  15.337  0.7116  1.4215  0.2203
14567TIP3   OH265191   0.653   5.872   0.361  0.1320  0.8167  0.2581
14567TIP3    H165192   0.581   5.880   0.424  0.2924  0.9071  0.4303
14567TIP3    H265193   0.635   5.790   0.315  0.3382  0.4450  0.8323
14568TIP3   OH265194   5.062   1.961   1.242  0.5717  0.2097 -0.3804
14568TIP3    H165195   4.972   1.984   1.218 -0.0821  1.2339  2.5391
14568TIP3    H265196   5.055   1.873   1.278  0.7177  0.3101 -0.1031
14569TIP3   OH265197   0.499   6.106  12.744  0.9667  0.2406  0.0769
14569TIP3    H165198   0.467   6.155  12.668 -1.1675  1.0119  1.3719
14569TIP3    H265199   0.490   6.014  12.720 -1.7129  0.4225  0.0532
14570TIP3   OH265200   4.997   4.719  15.023  0.2255  0.1511  0.5579
14570TIP3    H165201   5.078   4.759  14.991 -0.0111 -0.4902 -0.8803
14570TIP3    H265202   5.009   4.625  15.009 -1.4203  0.1619 -1.3122
14571TIP3   OH265203   2.490   4.477  16.792  0.2789  0.1090 -0.6851
14571TIP3    H165204   2.494   4.553  16.851  0.5179 -0.4991  0.0961
14571TIP3    H265205   2.440   4.412  16.841  0.7270 -0.5082 -1.0434
14572TIP3   OH265206   6.697   4.597  16.528  0.8097 -0.4463 -0.3482
14572TIP3    H165207   6.735   4.512  16.550  0.8438 -0.0252  1.3567
14572TIP3    H265208   6.685   4.640  16.612 -0.1934  0.8306 -1.1144
14573TIP3   OH265209   1.925   5.747  15.249  0.1852  0.3627 -0.7947
14573TIP3    H165210   1.998   5.711  15.200 -0.0138 -0.8337 -0.2469
14573TIP3    H265211   1.880   5.671  15.286 -0.1028  1.1740  0.6303
14574TIP3   OH265212   6.702   4.590  13.894 -0.3890 -0.6807  0.0056
14574TIP3    H165213   6.606   4.599  13.897 -0.5317 -0.4173 -2.9038
14574TIP3    H265214   6.722   4.580  13.801  2.3724 -1.5960  0.6224
14575TIP3   OH265215   4.401   6.368  10.729  0.6343 -0.4045 -0.0405
14575TIP3    H165216   4.329   6.431  10.727  2.4584  1.8194  0.2214
14575TIP3    H265217   4.425   6.355  10.638  0.7586 -0.0911 -0.0531
14576TIP3   OH265218   5.347   3.842  16.887 -0.6073  0.0646 -0.1549
14576TIP3    H165219   5.352   3.937  16.901  3.1655  0.0403 -0.3485
14576TIP3    H265220   5.327   3.833  16.794  1.3002  0.7939 -0.6810
14577TIP3   OH265221   5.811   0.445   0.411 -0.4071  0.1899 -0.4571
14577TIP3    H165222   5.760   0.488   0.480 -1.3400  1.2309 -1.7511
14577TIP3    H265223   5.860   0.377   0.457  0.1707  1.8000  1.4830
14578TIP3   OH265224   0.094   6.623  15.561 -0.1056  0.4151 -0.3766
14578TIP3    H165225   0.007   6.583  15.570  0.4776 -0.5000  2.0046
14578TIP3    H265226   0.098   6.686  15.633  0.0167  2.9306 -2.4701
14579TIP3   OH265227   1.251   5.657  14.109  0.8060 -0.2803  0.2769
14579TIP3    H165228   1.220   5.719  14.043 -1.8517 -1.7114  0.0502
14579TIP3    H265229   1.278   5.712  14.183 -1.8413  1.1918  0.2489
14580TIP3   OH265230   0.282   5.416  12.430  0.3080  0.1599 -0.1308
14580TIP3    H165231   0.216   5.417  12.360  1.1042 -0.4840 -0.9154
14580TIP3    H265232   0.365   5.407  12.384  0.7213 -2.3138  0.9692
14581TIP3   OH265233   6.396   2.211   1.581 -0.4631  0.3462 -0.0753
14581TIP3    H165234   6.449   2.288   1.557  1.7463 -0.2837  2.2644
14581TIP3    H265235   6.461   2.143   1.600 -2.3295 -1.9015 -1.3071
14582TIP3   OH265236   2.678   5.807   0.010  0.4392 -0.0333 -0.1586
14582TIP3    H165237   2.632   5.887   0.035 -0.2099 -0.8529  1.4443
14582TIP3    H265238   2.768   5.820   0.040  1.3725  1.5449 -3.2390
14583TIP3   OH265239   0.151   4.338  15.602  0.1795 -0.3241  0.3939
14583TIP3    H165240   0.148   4.300  15.690  0.4221 -0.6712  0.2549
14583TIP3    H265241   0.176   4.265  15.545 -1.5155 -0.4826 -0.1911
14584TIP3   OH265242   1.627   3.113  14.116  0.0988  0.1045 -0.2670
14584TIP3    H165243   1.683   3.187  14.094 -0.0922 -0.4654 -3.0893
14584TIP3    H265244   1.538   3.144  14.099 -0.3844  0.4113  2.4038
14585TIP3   OH265245   6.494   6.515   1.531 -0.5338 -0.0643  0.4869
14585TIP3    H165246   6.560   6.459   1.571 -0.1980  0.7416  1.0799
14585TIP3    H265247   6.426   6.524   1.598 -0.0268  1.1901  0.8670
14586TIP3   OH265248   5.527   6.536  12.511 -0.3693 -0.1663 -0.3411
14586TIP3    H165249   5.582   6.480  12.567  0.3531  0.0658 -0.8049
14586TIP3    H265250   5.525   6.620  12.555 -1.7059 -0.6155  0.5147
14587TIP3   OH265251   2.416   2.939  12.845 -0.8575  0.7462  0.0540
14587TIP3    H165252   2.464   2.974  12.770  2.1865  0.9246  1.9202
14587TIP3    H265253   2.331   2.982  12.841  0.2353  2.9501 -1.6977
14588TIP3   OH265254   2.185   4.190  15.866  0.5404 -0.0960 -0.1281
14588TIP3    H165255   2.133   4.169  15.789  1.1023  0.8762 -0.7950
14588TIP3    H265256   2.276   4.184  15.837  0.7445  1.6038  0.0627
14589TIP3   OH265257   6.717   5.081  13.184 -0.1959  0.0028 -0.3494
14589TIP3    H165258   6.807   5.069  13.214  0.0866  1.2748 -0.6112
14589TIP3    H265259   6.714   5.039  13.098  0.5483  1.1101 -0.9434
14590TIP3   OH265260   3.275   3.503   0.481  0.3560  0.4652  0.5618
14590TIP3    H165261   3.190   3.475   0.516 -0.4027  0.4414 -1.2113
14590TIP3    H265262   3.316   3.550   0.553 -0.1475 -1.5006  2.2474
14591TIP3   OH265263   4.955   1.948   2.643  0.0544 -0.3274 -0.0536
14591TIP3    H165264   4.994   1.955   2.730 -2.4834  0.5933  1.1109
14591TIP3    H265265   5.004   1.878   2.600  0.0857 -2.2702  2.8557
14592TIP3   OH265266   3.669   2.114  12.688  1.0121 -0.3891 -0.4714
14592TIP3    H165267   3.695   2.022  12.681  3.1274  0.2360 -1.3576
14592TIP3    H265268   3.598   2.124  12.625  1.4893 -1.1639 -1.1406
14593TIP3   OH265269   3.668   2.790  14.885 -0.0842  0.1524 -0.5156
14593TIP3    H165270   3.734   2.848  14.924  0.2561 -1.1065  0.8714
14593TIP3    H265271   3.687   2.793  14.791  1.7530  0.0918 -0.1880
14594TIP3   OH265272   4.691   6.208   3.249  0.7849  0.2699  0.7602
14594TIP3    H165273   4.597   6.218   3.266  0.6545 -0.1108  0.3030
14594TIP3    H265274   4.721   6.149   3.319 -0.0910 -2.6865 -1.1449
14595TIP3   OH265275   2.564   1.549  14.374  0.2591 -0.3371 -0.0903
14595TIP3    H165276   2.598   1.538  14.462 -0.4728  4.7691  1.1196
14595TIP3    H265277   2.541   1.460  14.346  3.6200 -2.6173  3.4262
14596TIP3   OH265278   2.434   5.329   4.789 -0.0819 -0.1207 -0.1729
14596TIP3    H165279   2.458   5.334   4.881  0.1502  0.0214 -0.2407
14596TIP3    H265280   2.347   5.370   4.785 -0.0277  0.0097 -0.0402
14597TIP3   OH265281   2.268   1.162  15.490  0.2500 -0.3971  0.3545
14597TIP3    H165282   2.252   1.120  15.575 -0.3188  0.6149  0.7725
14597TIP3    H265283   2.199   1.227  15.483 -1.0610 -1.9114 -1.9109
14598TIP3   OH265284   0.230   2.405   3.673 -0.7363 -0.0630 -0.1053
14598TIP3    H165285   0.214   2.404   3.768  0.9351 -3.8594  0.3203
14598TIP3    H265286   0.164   2.346   3.637 -0.0888 -0.2610 -0.9969
14599TIP3   OH265287   3.600   1.975  15.020 -0.1681  0.1815 -0.4477
14599TIP3    H165288   3.582   2.062  14.986  1.5543  0.6723 -0.1585
14599TIP3    H265289   3.608   1.920  14.942  1.7837  0.9092 -0.8172
14600TIP3   OH265290   0.492   1.541  13.046 -0.1386 -0.2174  0.4285
14600TIP3    H165291   0.523   1.516  12.960 -0.5854  0.8997 -0.0841
14600TIP3    H265292   0.405   1.578  13.030 -0.4612 -0.5003  1.4324
14601TIP3   OH265293   0.030   3.023   0.726 -0.3792  0.3610  0.7819
14601TIP3    H165294  -0.014   3.072   0.795 -2.6004 -1.4160  0.7274
14601TIP3    H265295  -0.028   3.032   0.650  1.0434  0.6431 -0.3129
14602TIP3   OH265296   3.970   3.604   1.565  0.0885 -0.8166 -0.0277
14602TIP3    H165297   3.924   3.526   1.532  0.9413 -2.0707  1.6260
14602TIP3    H265298   3.943   3.612   1.656  2.2672 -0.9708  0.6933
14603TIP3   OH265299   1.318   6.397  14.891  0.0784  0.2828 -0.3949
14603TIP3    H165300   1.278   6.354  14.967 -1.0851  0.1650 -1.0457
14603TIP3    H265301   1.281   6.352  14.816  1.4382  0.2147 -1.0506
14604TIP3   OH265302   2.046   5.507  15.931  0.2633  0.5007 -0.2078
14604TIP3    H165303   1.959   5.473  15.951  1.0787 -2.1906 -0.8582
14604TIP3    H265304   2.033   5.565  15.855 -0.8279 -0.9009 -1.1373
14605TIP3   OH265305   3.011   3.992   1.308  0.5148  0.3269  0.4538
14605TIP3    H165306   2.986   4.070   1.356 -3.2220  1.0499 -2.1791
14605TIP3    H265307   3.052   4.024   1.227 -1.7508 -0.2300 -1.0166
14606TIP3   OH265308   1.480   1.886   5.381 -0.1739 -0.0748 -0.2927
14606TIP3    H165309   1.429   1.951   5.428 -1.8786 -1.8950  0.5561
14606TIP3    H265310   1.433   1.871   5.299 -0.3562 -0.8979 -0.0540
14607TIP3   OH265311   0.689   5.765  16.684 -0.0035  0.5448 -0.6146
14607TIP3    H165312   0.782   5.765  16.663 -0.1457 -0.5457 -1.3471
14607TIP3    H265313   0.665   5.672  16.688 -0.9295  0.7948  0.1957
14608TIP3   OH265314   0.514   1.944  17.072  0.5848 -0.6418 -0.2144
14608TIP3    H165315   0.599   1.971  17.106  0.1497  0.3263  0.1361
14608TIP3    H265316   0.459   2.022  17.082 -0.3563 -1.2801 -0.3726
14609TIP3   OH265317   6.593   0.959  11.814 -0.0176 -0.5370  0.0154
14609TIP3    H165318   6.516   0.982  11.865 -0.7202 -0.5895 -0.9866
14609TIP3    H265319   6.565   0.885  11.761  0.2817  0.2924 -1.3585
14610TIP3   OH265320   4.095   5.545  11.172 -0.0288 -0.0838 -0.4215
14610TIP3    H165321   4.086   5.634  11.207 -0.5561 -0.7233  1.1614
14610TIP3    H265322   4.007   5.507  11.179  0.7396 -1.6904  1.7635
14611TIP3   OH265323   1.542   5.821  17.042  0.2587  0.1188 -0.4421
14611TIP3    H165324   1.534   5.741  17.095 -2.1894  1.0431  0.7593
14611TIP3    H265325   1.563   5.889  17.106 -0.4888  0.8798 -0.9898
14612TIP3   OH265326   5.168   0.614  15.772 -0.0465 -0.1944 -0.1750
14612TIP3    H165327   5.210   0.699  15.787 -2.5825  1.3795 -1.2669
14612TIP3    H265328   5.229   0.550  15.808  2.0492  2.0667  0.5547
14613TIP3   OH265329   6.087   1.200   2.216 -0.3415 -0.2697  0.3984
14613TIP3    H165330   6.015   1.189   2.155  0.4336 -4.8860 -0.0360
14613TIP3    H265331   6.055   1.160   2.298  1.0146 -0.6531  0.7670
14614TIP3   OH265332   5.296   4.337  14.296  0.8109  0.1387  0.3712
14614TIP3    H165333   5.250   4.292  14.367 -1.4775  2.1536  0.2854
14614TIP3    H265334   5.341   4.409  14.338  0.8666  0.3344 -0.0176
14615TIP3   OH265335   0.715   0.990   5.578 -0.0743 -0.2954  0.5001
14615TIP3    H165336   0.741   0.920   5.639 -1.6519  0.0492  1.6479
14615TIP3    H265337   0.619   0.986   5.578 -0.1603 -1.0776 -2.9690
14616TIP3   OH265338   0.070   1.715   5.008 -0.4392 -0.6099 -0.0394
14616TIP3    H165339   0.162   1.727   5.032  0.2681  0.7808 -2.9149
14616TIP3    H265340   0.073   1.655   4.933 -1.3671  2.1717 -2.4913
14617TIP3   OH265341   5.129   0.859  10.786  0.8046  0.4545  0.2324
14617TIP3    H165342   5.223   0.877  10.780  0.5360  1.3669 -3.5843
14617TIP3    H265343   5.090   0.945  10.803  0.5692  0.3023  0.4606
14618TIP3   OH265344   6.179   3.060   2.914 -0.9019 -0.2890  0.2332
14618TIP3    H165345   6.128   2.996   2.863 -0.7182  0.6739 -1.2369
14618TIP3    H265346   6.112   3.118   2.952 -1.0224 -0.7757  0.7774
14619TIP3   OH265347   1.452   4.620  11.208  0.4483 -0.7729 -0.7461
14619TIP3    H165348   1.389   4.601  11.137  2.1945 -2.0949 -2.0509
14619TIP3    H265349   1.496   4.700  11.180  0.1397 -0.4908 -0.4220
14620TIP3   OH265350   2.912   6.493   0.207 -0.2218  0.2076 -0.5741
14620TIP3    H165351   2.978   6.556   0.178 -0.1112  0.3096 -0.1180
14620TIP3    H265352   2.843   6.547   0.247  0.5828 -0.0060  1.2257
14621TIP3   OH265353   0.242   5.286   4.877  0.2959 -0.2287  0.9504
14621TIP3    H165354   0.204   5.204   4.906 -0.2817  0.1025  1.1528
14621TIP3    H265355   0.173   5.351   4.891  0.5020  0.1791  0.1803
14622TIP3   OH265356   6.443   2.606   6.235 -0.6484 -0.0414 -0.4267
14622TIP3    H165357   6.497   2.619   6.157  2.1101 -1.9098  0.9931
14622TIP3    H265358   6.380   2.537   6.209 -0.7368  0.3852 -1.3865
14623TIP3   OH265359   1.075   4.222  12.017 -0.1655  0.1750 -0.2461
14623TIP3    H165360   0.994   4.226  12.069 -1.8748  1.1267 -2.7914
14623TIP3    H265361   1.115   4.138  12.041 -3.1018 -1.4317 -0.5059
14624TIP3   OH265362   2.662   2.942   0.606 -0.5060 -0.3324 -0.7039
14624TIP3    H165363   2.647   3.023   0.655 -0.3722 -0.9482  0.3817
14624TIP3    H265364   2.724   2.893   0.660 -0.8090 -1.2816 -1.2068
14625TIP3   OH265365   0.343   6.275  11.383  0.5206  0.4564  0.1419
14625TIP3    H165366   0.305   6.332  11.317  0.3979  0.7982  0.5074
14625TIP3    H265367   0.315   6.312  11.467  0.0595 -0.3993  0.3749
14626TIP3   OH265368   6.049   3.295  16.762 -0.5202  0.9906 -0.2256
14626TIP3    H165369   6.053   3.267  16.853  0.0981  0.3478 -0.4423
14626TIP3    H265370   6.106   3.234  16.715 -2.2359  0.1711 -1.3397
14627TIP3   OH265371   2.797   3.294   4.584  0.1891  0.3156  0.2144
14627TIP3    H165372   2.762   3.365   4.530  0.5953  0.5585  0.2696
14627TIP3    H265373   2.882   3.274   4.546  0.0084 -0.2567  0.1026
14628TIP3   OH265374   0.425   4.525   1.779  0.7323  0.0955 -0.4944
14628TIP3    H165375   0.337   4.509   1.743 -0.6190 -0.7747  2.7960
14628TIP3    H265376   0.479   4.457   1.739 -0.6451 -0.8496 -0.8598
14629TIP3   OH265377   1.064   1.191   2.459  0.1789  0.5700  0.0253
14629TIP3    H165378   1.007   1.246   2.512 -0.6124 -0.0898 -0.1263
14629TIP3    H265379   1.151   1.202   2.498 -0.3695  0.1106  1.4762
14630TIP3   OH265380   0.476   0.549   4.583 -0.1182 -0.3463 -0.4328
14630TIP3    H165381   0.430   0.512   4.658 -0.0766  0.5430  0.0412
14630TIP3    H265382   0.417   0.616   4.550  0.8603  0.8740  0.2424
14631TIP3   OH265383   2.001   3.494  12.199  0.3642  0.4356 -0.0461
14631TIP3    H165384   2.023   3.587  12.200  0.5605  0.4349 -1.7468
14631TIP3    H265385   1.906   3.491  12.212  0.5656  0.7457  1.7318
14632TIP3   OH265386   6.039   3.358   0.285 -0.2570 -0.0011  0.2791
14632TIP3    H165387   6.090   3.367   0.365  0.2261  1.4570 -0.1723
14632TIP3    H265388   5.971   3.295   0.307 -0.2943  0.5754  1.9096
14633TIP3   OH265389   4.871   3.722  13.262 -0.4653 -0.1981 -0.4540
14633TIP3    H165390   4.942   3.778  13.232  0.1296 -1.9675 -2.6602
14633TIP3    H265391   4.915   3.652  13.311 -1.2179  1.2625  2.5229
14634TIP3   OH265392   0.436   2.167   3.578  0.5539 -0.1962 -0.1948
14634TIP3    H165393   0.346   2.136   3.587  1.3566 -1.9729  2.9575
14634TIP3    H265394   0.455   2.211   3.661  3.0891 -1.2715 -0.1216
14635TIP3   OH265395   5.739   1.713  14.804  0.7533  0.5952  0.5098
14635TIP3    H165396   5.826   1.748  14.786  0.4744  0.9888 -0.1403
14635TIP3    H265397   5.684   1.791  14.813  0.4237  0.3438  0.6956
14636TIP3   OH265398   5.379   6.253   1.603  0.0163  0.8480 -0.2252
14636TIP3    H165399   5.446   6.260   1.535  1.0758  0.3098  0.7184
14636TIP3    H265400   5.410   6.312   1.673 -2.3774  3.4581 -1.1822
14637TIP3   OH265401   1.002   1.677   0.073 -0.2647  0.0410  0.2502
14637TIP3    H165402   1.084   1.660   0.027  0.0705  1.7908  0.1267
14637TIP3    H265403   0.966   1.590   0.092  1.3768 -0.7473 -0.1065
14638TIP3   OH265404   3.754   2.822  12.892  0.0879  0.0518  0.6541
14638TIP3    H165405   3.748   2.737  12.847  0.3432 -0.4491  1.5434
14638TIP3    H265406   3.778   2.884  12.823 -2.3932 -0.1459 -0.4952
14639TIP3   OH265407   2.776   1.071   3.645  0.2265 -0.9273 -0.4413
14639TIP3    H165408   2.867   1.102   3.646  0.1829 -0.7975  0.7135
14639TIP3    H265409   2.724   1.147   3.671 -0.0830 -1.3637  0.2406
14640TIP3   OH265410   3.151   6.766  10.900 -0.2445  0.0382  0.3750
14640TIP3    H165411   3.180   6.678  10.876 -1.0953  0.2626 -1.6979
14640TIP3    H265412   3.057   6.766  10.885 -0.0074  1.8170 -1.6174
14641TIP3   OH265413   0.543   6.267   4.155 -0.5731  0.1105 -0.5307
14641TIP3    H165414   0.469   6.270   4.216  0.6924 -0.7455  1.1434
14641TIP3    H265415   0.562   6.174   4.145  0.5579  0.3279 -0.5321
14642TIP3   OH265416   6.415   0.276   1.966  0.3989 -0.4295 -0.1089
14642TIP3    H165417   6.332   0.299   2.006  0.5698 -0.0012  0.0017
14642TIP3    H265418   6.459   0.221   2.031  0.1827 -0.7090 -0.1934
14643TIP3   OH265419   5.032   4.128   4.391 -0.6445  0.5373 -0.0812
14643TIP3    H165420   5.003   4.165   4.474 -0.6013  0.6162 -0.1015
14643TIP3    H265421   5.057   4.038   4.412 -1.6822  0.2074 -0.2184
14644TIP3   OH265422   1.818   5.351   3.148  1.0521 -0.3762  0.0910
14644TIP3    H165423   1.805   5.256   3.148  1.1727 -0.4077  1.1380
14644TIP3    H265424   1.910   5.362   3.124  0.8339 -0.4759 -0.8186
14645TIP3   OH265425   1.563   2.908   0.058 -0.0281  0.0066  0.0464
14645TIP3    H165426   1.551   2.958   0.139 -1.2620 -0.2556  0.0500
14645TIP3    H265427   1.567   2.816   0.087 -1.7211 -0.1981 -0.2507
14646TIP3   OH265428   2.177   4.996   5.581  0.4928  0.3840  0.1248
14646TIP3    H165429   2.241   5.044   5.528 -0.4551  0.6648 -0.7863
14646TIP3    H265430   2.095   5.044   5.570 -0.1249 -0.5824  0.3976
14647TIP3   OH265431   2.492   1.400   4.266 -0.1834  0.4737 -0.1602
14647TIP3    H165432   2.547   1.425   4.193 -2.1434 -0.1770 -1.9507
14647TIP3    H265433   2.545   1.337   4.315  1.5419  1.6794 -0.3903
14648TIP3   OH265434   3.255   1.491   5.735 -0.2758 -0.1795 -0.0775
14648TIP3    H165435   3.181   1.529   5.688 -0.4540 -0.3613  0.0600
14648TIP3    H265436   3.257   1.400   5.706 -1.0976 -0.6034  1.1587
14649TIP3   OH265437   6.732   5.559   4.408  0.3102  0.5220  0.6684
14649TIP3    H165438   6.728   5.465   4.389 -1.4033  0.9030 -1.2671
14649TIP3    H265439   6.668   5.573   4.477  0.5508  0.2944  0.9433
14650TIP3   OH265440   4.241   4.437   3.368 -0.1114 -0.5107  0.4968
14650TIP3    H165441   4.211   4.527   3.361 -1.0596 -0.9039 -0.9748
14650TIP3    H265442   4.335   4.443   3.381  0.0593  0.6920 -1.0530
14651TIP3   OH265443   4.417   2.656  11.091  0.4600 -0.1781  0.3335
14651TIP3    H165444   4.490   2.704  11.130 -0.0850  0.3670  0.6984
14651TIP3    H265445   4.393   2.591  11.157  0.5717 -0.3158  0.2390
14652TIP3   OH265446   1.929   2.660   3.168 -0.3883 -0.1262  0.1733
14652TIP3    H165447   1.893   2.737   3.123 -1.7101 -0.0491  1.2608
14652TIP3    H265448   2.009   2.692   3.210  0.1836  0.1074 -1.0642
14653TIP3   OH265449   5.761   4.629   0.917  0.1120  0.5162 -0.0155
14653TIP3    H165450   5.786   4.582   0.996 -0.8928  0.5725  0.3462
14653TIP3    H265451   5.836   4.617   0.858  0.9263  0.5717  0.9686
14654TIP3   OH265452   1.417   4.409   5.262  0.4990  0.0705  0.1545
14654TIP3    H165453   1.375   4.491   5.286 -0.0158 -0.4023  0.8873
14654TIP3    H265454   1.394   4.397   5.170  2.3198  1.7932 -0.6010
14655TIP3   OH265455   2.207   0.841   2.982  0.2809 -0.3436  0.4400
14655TIP3    H165456   2.121   0.801   2.967 -0.0791  0.7798 -0.5806
14655TIP3    H265457   2.236   0.803   3.065  0.0380 -2.8397 -0.5409
14656TIP3   OH265458   5.355   6.215  15.710 -0.2964  0.2416  0.7265
14656TIP3    H165459   5.299   6.240  15.784  1.5086  1.6506  1.7129
14656TIP3    H265460   5.311   6.250  15.633 -0.6691  1.5353  1.5001
14657TIP3   OH265461   0.262   3.463  12.824  0.2568  0.0466  0.3034
14657TIP3    H165462   0.272   3.415  12.742 -0.4798  0.0064  0.2327
14657TIP3    H265463   0.285   3.399  12.892 -0.5412 -0.3654  0.1989
14658TIP3   OH265464   5.611   5.396  15.118  0.0134  0.2380  0.0048
14658TIP3    H165465   5.640   5.464  15.058  1.3670 -0.4111 -0.1337
14658TIP3    H265466   5.649   5.421  15.203  2.6013 -1.4965 -0.5219
14659TIP3   OH265467   0.573   5.561   3.325  0.4809  0.0086  0.1572
14659TIP3    H165468   0.553   5.639   3.376 -1.9743  0.3318 -1.1389
14659TIP3    H265469   0.668   5.563   3.315  0.7014  1.6140  2.0102
14660TIP3   OH265470   1.839   1.506   1.779 -0.6295  0.0484  0.1738
14660TIP3    H165471   1.790   1.562   1.720  0.8364  3.3925  1.8371
14660TIP3    H265472   1.812   1.533   1.867  0.8860 -1.1747  1.0862
14661TIP3   OH265473   2.603   4.135   2.068 -0.1370  0.3222  0.2827
14661TIP3    H165474   2.682   4.085   2.091 -0.7655 -1.9506 -2.0444
14661TIP3    H265475   2.635   4.207   2.013  0.4703  0.6622  1.0573
14662TIP3   OH265476   6.589   3.615  10.453  0.4150  0.2099 -0.0664
14662TIP3    H165477   6.660   3.555  10.477  1.5476  1.5850  0.1843
14662TIP3    H265478   6.513   3.582  10.500  1.6064  0.4213  2.1606
14663TIP3   OH265479   4.996   3.131  11.142 -0.6623  0.0898  0.0134
14663TIP3    H165480   4.950   3.179  11.211 -0.6778  1.2847 -0.7985
14663TIP3    H265481   4.936   3.132  11.068  0.5850  1.6328 -1.0530
14664TIP3   OH265482   2.421   2.755  15.221 -0.1405  0.1529  0.5725
14664TIP3    H165483   2.405   2.794  15.306  0.3675 -0.7841  1.1172
14664TIP3    H265484   2.393   2.821  15.158 -0.2955  0.9476  1.4604
14665TIP3   OH265485   6.524   2.672   2.042  0.6120  0.0168 -0.2117
14665TIP3    H165486   6.442   2.679   2.090 -0.3153 -1.0085 -1.5342
14665TIP3    H265487   6.547   2.579   2.048  0.5513 -0.1086 -1.5461
14666TIP3   OH265488   3.094   5.017   1.215 -0.4735 -0.4718 -0.0743
14666TIP3    H165489   3.028   5.084   1.228 -0.7616 -0.4400 -1.4988
14666TIP3    H265490   3.176   5.059   1.240 -0.9241 -0.3680  1.2718
14667TIP3   OH265491   3.158   1.616  13.472 -0.6305  0.0645 -0.3642
14667TIP3    H165492   3.198   1.690  13.425 -2.4603  0.3106 -1.6611
14667TIP3    H265493   3.212   1.541  13.448 -0.1778  0.5875 -1.0375
14668TIP3   OH265494   4.282   6.506  16.528 -0.0192  0.6238 -0.3337
14668TIP3    H165495   4.292   6.452  16.606  0.2589  1.0941 -0.0392
14668TIP3    H265496   4.283   6.443  16.455 -2.7431 -0.0870  0.1353
14669TIP3   OH265497   4.536   5.670  11.319  0.1944 -0.1621 -0.3093
14669TIP3    H165498   4.537   5.765  11.305  1.4987 -0.2193 -0.7584
14669TIP3    H265499   4.512   5.634  11.233 -1.5733 -0.2146  0.1810
14670TIP3   OH265500   3.166   4.697  12.121 -0.4118 -0.1725 -0.7032
14670TIP3    H165501   3.228   4.631  12.153  0.2728 -0.2186 -2.0538
14670TIP3    H265502   3.210   4.737  12.046 -0.6976  2.0049  0.1856
14671TIP3   OH265503   0.927   5.000  13.495 -0.2399 -0.1991  0.0624
14671TIP3    H165504   1.004   5.037  13.451 -0.8577 -3.0343 -3.9756
14671TIP3    H265505   0.960   4.924  13.542 -0.3307 -0.3309 -0.0876
14672TIP3   OH265506   0.826   2.590  12.866  0.2707 -0.3383 -0.5176
14672TIP3    H165507   0.846   2.497  12.874 -0.9432 -0.6225 -0.6552
14672TIP3    H265508   0.750   2.594  12.807  0.3755  0.7440 -0.6039
14673TIP3   OH265509   2.777   2.683  11.382  0.1334  0.1454 -0.1175
14673TIP3    H165510   2.797   2.650  11.294 -0.1779 -0.2017 -0.0582
14673TIP3    H265511   2.856   2.665  11.433  0.0439 -0.3225 -0.1387
14674TIP3   OH265512   2.996   3.147  16.970 -0.0819 -0.2837  0.5303
14674TIP3    H165513   2.973   3.114  16.883  0.3817 -0.9270  0.6452
14674TIP3    H265514   2.945   3.227  16.980 -1.0772 -0.8608  0.1590
14675TIP3   OH265515   1.977   1.590   0.333 -0.6860  0.1697 -0.0197
14675TIP3    H165516   1.993   1.499   0.308 -1.9236  0.3604 -1.7277
14675TIP3    H265517   2.002   1.595   0.425 -1.4034 -2.1178  0.3629
14676TIP3   OH265518   4.742   4.082  11.922 -0.2464 -0.0046 -0.8293
14676TIP3    H165519   4.818   4.099  11.977 -0.1701 -1.4259 -0.4401
14676TIP3    H265520   4.757   3.994  11.888 -0.6673  0.5532 -2.5371
14677TIP3   OH265521   3.635   3.273  14.382  0.2368 -0.6160 -0.1540
14677TIP3    H165522   3.643   3.332  14.457  0.4321 -0.4882 -0.2732
14677TIP3    H265523   3.682   3.318  14.312 -0.1150 -0.6448 -0.4051
14678TIP3   OH265524   1.584   3.749   3.498 -0.5006 -0.4389  0.3809
14678TIP3    H165525   1.492   3.778   3.500 -0.6608 -0.8910 -0.3748
14678TIP3    H265526   1.631   3.823   3.461 -0.9418 -1.1681 -1.7580
14679TIP3   OH265527   2.763   5.826  16.397  0.4447 -0.4736 -0.0699
14679TIP3    H165528   2.685   5.827  16.453  0.4187  0.6031 -0.1088
14679TIP3    H265529   2.766   5.737  16.362 -2.1390  0.0804 -1.9698
14680TIP3   OH265530   1.307   4.620   6.323 -0.0997  0.4513  0.3427
14680TIP3    H165531   1.241   4.560   6.290 -1.0340 -0.0205  2.8423
14680TIP3    H265532   1.391   4.577   6.304 -0.6115 -0.1284 -0.6478
14681TIP3   OH265533   5.984   1.375  17.099 -0.0915  0.0994  0.2317
14681TIP3    H165534   6.007   1.460  17.137  0.0147 -0.8598  2.4629
14681TIP3    H265535   5.916   1.341  17.157  0.0119 -1.4381 -0.5199
14682TIP3   OH265536   3.716   2.633   2.551  0.3896  0.7297  0.2563
14682TIP3    H165537   3.773   2.581   2.607 -1.5632 -0.2103  1.5100
14682TIP3    H265538   3.755   2.627   2.464  1.4969 -0.9143  0.8106
14683TIP3   OH265539   3.628   1.175  13.170  0.6426 -0.3296  0.3993
14683TIP3    H165540   3.585   1.260  13.158  1.1896 -0.3014 -1.5715
14683TIP3    H265541   3.689   1.189  13.243  0.2528  0.7630  0.5307
14684TIP3   OH265542   6.807   6.474  14.650 -0.2213  0.2189 -0.3765
14684TIP3    H165543   6.799   6.380  14.633 -0.2394  0.0922  0.3143
14684TIP3    H265544   6.847   6.480  14.736 -1.7448  0.8251  0.3333
14685TIP3   OH265545   4.036   2.181   1.313  0.1286 -0.6291  0.4079
14685TIP3    H165546   4.067   2.114   1.373 -0.5567 -2.0945 -0.8106
14685TIP3    H265547   3.960   2.219   1.356  1.0092  0.0028  1.4807
14686TIP3   OH265548   3.656   0.572  15.775 -0.2577 -0.2759 -0.6535
14686TIP3    H165549   3.690   0.511  15.840  1.0329 -1.2503 -2.1556
14686TIP3    H265550   3.682   0.659  15.807 -0.9147 -0.6006  0.8164
14687TIP3   OH265551   6.007   4.619   5.448 -0.6076 -0.0730 -0.3191
14687TIP3    H165552   5.987   4.692   5.507 -1.2739 -1.3276  1.0613
14687TIP3    H265553   6.031   4.662   5.366 -2.1767  1.7039  0.0542
14688TIP3   OH265554   6.064   4.183   5.952 -0.0006 -0.0969 -0.1754
14688TIP3    H165555   6.141   4.197   5.897 -0.3839 -1.6347 -1.1409
14688TIP3    H265556   5.991   4.220   5.902 -0.1299 -0.0735  0.0253
14689TIP3   OH265557   6.261   5.373  15.865  0.5605 -0.2967 -0.0742
14689TIP3    H165558   6.214   5.349  15.945 -0.7666  0.8413 -0.4751
14689TIP3    H265559   6.330   5.306  15.857  0.8806 -0.3177  2.1203
14690TIP3   OH265560   6.235   0.813   0.368  0.5967  0.1961 -0.4001
14690TIP3    H165561   6.245   0.855   0.453  0.0865  0.7968 -0.6330
14690TIP3    H265562   6.272   0.876   0.306 -0.5986  0.5325 -0.8037
14691TIP3   OH265563   3.664   3.955   2.439 -0.4112  0.4074 -0.2460
14691TIP3    H165564   3.727   3.939   2.369  0.4638 -2.0382  1.0090
14691TIP3    H265565   3.700   4.029   2.487  1.5123 -0.8752  0.3886
14692TIP3   OH265566   5.946   0.098   3.663  0.9165  0.4053  0.3514
14692TIP3    H165567   5.922   0.189   3.684 -1.6646 -0.5628  2.1216
14692TIP3    H265568   6.028   0.106   3.614  0.1684  3.7449 -0.6330
14693TIP3   OH265569   4.179   2.143  15.946  0.6013 -0.6030 -0.6530
14693TIP3    H165570   4.155   2.235  15.948  1.1865 -0.4388  1.0976
14693TIP3    H265571   4.101   2.098  15.915 -0.0619  0.3858 -0.4692
14694TIP3   OH265572   4.018   5.192  12.544 -0.1687 -0.0524  0.1144
14694TIP3    H165573   3.968   5.264  12.507 -1.1964 -0.8425 -0.0862
14694TIP3    H265574   4.070   5.159  12.471  1.7539  1.6160  0.6268
14695TIP3   OH265575   4.088   5.619  14.655  0.1013  0.0920 -0.0398
14695TIP3    H165576   4.043   5.703  14.665 -0.8234 -0.3966 -0.0197
14695TIP3    H265577   4.105   5.612  14.561  0.1073  0.2611 -0.0529
14696TIP3   OH265578   5.133   4.316   4.896 -0.0376  0.0273  0.2223
14696TIP3    H165579   5.152   4.228   4.864  0.2728  0.1093  0.1781
14696TIP3    H265580   5.039   4.314   4.916  0.0753 -0.4710  0.7314
14697TIP3   OH265581   0.666   5.470  16.340  0.1160 -0.4391  0.7804
14697TIP3    H165582   0.665   5.433  16.251  1.3109 -0.8508  0.9246
14697TIP3    H265583   0.579   5.450  16.375 -1.2829  1.8320 -1.1226
14698TIP3   OH265584   6.534   2.865  12.834  0.3615 -0.7360 -0.3943
14698TIP3    H165585   6.607   2.833  12.888  0.7422 -0.8572 -0.9688
14698TIP3    H265586   6.528   2.802  12.762  0.1889 -0.3034 -0.7665
14699TIP3   OH265587   4.449   6.728  15.850 -0.3423 -0.0318  0.8350
14699TIP3    H165588   4.525   6.747  15.904  1.8602 -0.8055 -1.7744
14699TIP3    H265589   4.400   6.810  15.847  1.0145  0.8424  1.6069
14700TIP3   OH265590   3.921   6.511  13.133 -0.5035  0.4311  0.1852
14700TIP3    H165591   3.996   6.561  13.165 -0.0237 -0.3980  0.3626
14700TIP3    H265592   3.845   6.554  13.173 -0.0488  0.5739  0.9108
14701TIP3   OH265593   5.114   5.797   4.468 -0.3289  0.4739 -0.1719
14701TIP3    H165594   5.052   5.729   4.494 -1.1687  0.5765 -1.8252
14701TIP3    H265595   5.106   5.803   4.373  0.6140  2.0407 -0.1916
14702TIP3   OH265596   6.005   1.434  11.586 -0.0526  0.2076 -0.2164
14702TIP3    H165597   6.070   1.440  11.656 -0.5318  1.6554  0.1458
14702TIP3    H265598   6.033   1.501  11.523  0.3117 -1.0050 -1.3839
14703TIP3   OH265599   3.422   3.972   1.423  0.2472 -0.0862  0.0470
14703TIP3    H165600   3.376   3.888   1.426  0.0667 -0.0512 -1.2079
14703TIP3    H265601   3.423   4.001   1.514 -0.3001 -1.1154  0.4090
14704TIP3   OH265602   3.378   5.155  14.299  0.6293  0.3260  0.0820
14704TIP3    H165603   3.396   5.172  14.207  1.5468 -0.0365  0.1858
14704TIP3    H265604   3.388   5.241  14.341 -1.3433  0.8332 -0.3516
14705TIP3   OH265605   0.106   4.807  11.556 -0.0659 -0.5065 -0.5356
14705TIP3    H165606   0.191   4.835  11.525  1.3343 -1.3322  2.2425
14705TIP3    H265607   0.085   4.867  11.628 -0.9659 -1.3872 -0.0320
14706TIP3   OH265608   6.752   1.235   4.429 -0.0982  0.9173 -0.2373
14706TIP3    H165609   6.699   1.282   4.365 -0.4694 -3.1718 -3.3678
14706TIP3    H265610   6.842   1.246   4.398  0.1459  1.7470  0.6975
14707TIP3   OH265611   5.021   3.491  11.032 -0.0210  0.4267  0.3778
14707TIP3    H165612   4.984   3.572  10.997 -0.7635 -0.1442 -0.1977
14707TIP3    H265613   4.946   3.432  11.041  0.1918  0.4300  2.6766
14708TIP3   OH265614   3.729   1.115  16.550  0.5044 -0.7292  0.0264
14708TIP3    H165615   3.727   1.210  16.540  0.9685 -0.5706  1.2620
14708TIP3    H265616   3.775   1.101  16.633 -0.0802 -2.0137  0.1491
14709TIP3   OH265617   3.008   6.299   5.194  0.3471  0.3951 -0.3309
14709TIP3    H165618   2.947   6.337   5.257  1.4702  2.3609 -0.3442
14709TIP3    H265619   3.076   6.365   5.183  1.8332 -1.1855 -1.2720
14710TIP3   OH265620   6.065   5.091   3.805  0.6116  0.4268 -0.8489
14710TIP3    H165621   6.091   5.154   3.872  1.0184 -0.1701 -0.4370
14710TIP3    H265622   6.120   5.113   3.730  3.1215 -1.3995  0.2909
14711TIP3   OH265623   1.465   0.077   6.139  0.3283 -0.1224  0.1077
14711TIP3    H165624   1.489   0.092   6.231 -2.1386  0.1964  0.7802
14711TIP3    H265625   1.407   0.150   6.118  1.5704  0.3096 -2.0471
14712TIP3   OH265626   4.052   3.412   1.080  0.4112 -0.1356  0.2867
14712TIP3    H165627   4.126   3.472   1.091  0.9867 -0.9117  0.7649
14712TIP3    H265628   4.046   3.398   0.985  0.8481 -0.0278  0.2416
14713TIP3   OH265629   1.201   2.546  16.164  0.1661 -0.0155  0.4396
14713TIP3    H165630   1.196   2.499  16.081 -0.7115 -1.0504  1.0540
14713TIP3    H265631   1.229   2.635  16.140 -3.9768  1.0377 -1.5376
14714TIP3   OH265632   5.414   6.751   4.658 -0.7388 -0.3919  0.1230
14714TIP3    H165633   5.411   6.725   4.750 -1.0200 -2.7679 -0.4876
14714TIP3    H265634   5.476   6.689   4.617  2.2120  2.8013 -0.7121
14715TIP3   OH265635   4.026   3.307   2.430  0.0074  0.3413  0.3173
14715TIP3    H165636   4.076   3.388   2.428  0.1193  0.2589 -1.1764
14715TIP3    H265637   4.092   3.238   2.423 -0.1393  0.1358  0.9056
14716TIP3   OH265638   4.944   5.078  10.903  0.6439 -0.2144 -0.1250
14716TIP3    H165639   5.018   5.037  10.948 -0.2530 -1.7780 -0.0348
14716TIP3    H265640   4.869   5.022  10.923 -0.1653  0.1744 -1.9235
14717TIP3   OH265641   1.741   0.316   2.681  0.3467  0.3017  0.3903
14717TIP3    H165642   1.738   0.339   2.774  1.7076  1.8047  0.0989
14717TIP3    H265643   1.715   0.396   2.635 -0.3706 -0.4373 -0.5452
14718TIP3   OH265644   1.923   2.834   5.412 -0.5227  0.2022  0.4207
14718TIP3    H165645   2.005   2.863   5.372 -0.2339 -1.1097  0.0035
14718TIP3    H265646   1.944   2.824   5.505 -1.2696  3.5286  1.0584
14719TIP3   OH265647   6.693   6.566   3.197 -0.2701 -0.8557  0.0993
14719TIP3    H165648   6.655   6.635   3.142 -0.0406 -1.0935 -0.3559
14719TIP3    H265649   6.633   6.492   3.187 -0.3561 -0.8252  0.3601
14720TIP3   OH265650   5.796   0.298   2.879  0.4072  0.1704 -0.0306
14720TIP3    H165651   5.778   0.307   2.973 -1.1521 -0.7668 -0.1905
14720TIP3    H265652   5.715   0.327   2.837  0.3412 -1.2992 -0.9915
14721TIP3   OH265653   4.047   2.793   1.148 -0.5583  0.7670  0.1537
14721TIP3    H165654   4.102   2.731   1.196 -0.1444 -0.0995 -1.3739
14721TIP3    H265655   3.976   2.814   1.209  0.9071  1.1468  1.8099
14722TIP3   OH265656   6.780   1.439  14.458  0.6477  0.3546  0.5072
14722TIP3    H165657   6.873   1.458  14.443  0.4062  1.6466  0.4693
14722TIP3    H265658   6.776   1.344  14.467  1.8192  0.1784 -0.5114
14723TIP3   OH265659   6.183   1.868  10.963 -0.1717 -0.3738  0.1909
14723TIP3    H165660   6.151   1.794  10.911  1.1489 -2.0226  1.6077
14723TIP3    H265661   6.225   1.925  10.900  0.7168 -1.9426 -0.7088
14724TIP3   OH265662   1.625   5.718   3.544  0.4785 -0.4141 -0.0212
14724TIP3    H165663   1.573   5.653   3.496 -1.5326  0.5108  0.7815
14724TIP3    H265664   1.583   5.801   3.525  0.7126  0.1887  1.9073
14725TIP3   OH265665   0.971   2.230  12.599  0.1922 -0.1455  0.0679
14725TIP3    H165666   1.035   2.173  12.641  0.5793  1.1011  1.2449
14725TIP3    H265667   0.950   2.296  12.665  1.7782  2.6892 -2.0353
14726TIP3   OH265668   0.705   6.135  15.817  0.1369 -0.6018  0.2630
14726TIP3    H165669   0.634   6.181  15.863  1.1457  2.4051 -0.9269
14726TIP3    H265670   0.701   6.169  15.728  2.2369 -1.3920 -0.1741
14727TIP3   OH265671   4.632   2.133  15.840 -0.3326  0.4753 -0.7666
14727TIP3    H165672   4.608   2.150  15.749 -0.3580  0.5496 -0.7466
14727TIP3    H265673   4.597   2.208  15.888 -0.6466  0.2543 -0.6449
14728TIP3   OH265674   6.397   3.478   3.923 -0.0522 -0.4037 -0.0874
14728TIP3    H165675   6.450   3.474   3.843  1.4257 -1.2474  0.8918
14728TIP3    H265676   6.422   3.561   3.964 -0.2225 -0.3480 -0.0944
14729TIP3   OH265677   5.457   4.833  11.866 -0.8349 -0.1476  0.1395
14729TIP3    H165678   5.496   4.878  11.942 -0.4953 -0.1821 -0.0143
14729TIP3    H265679   5.373   4.878  11.853  0.3528  1.8510 -1.2665
14730TIP3   OH265680   0.984   6.266  15.910  0.0114  0.0451  0.8232
14730TIP3    H165681   0.898   6.260  15.869 -1.0094  1.0280  2.6744
14730TIP3    H265682   1.008   6.358  15.903  1.0645 -0.2650  0.0858
14731TIP3   OH265683   4.193   1.684  14.740 -0.2621 -0.1362  0.0653
14731TIP3    H165684   4.175   1.778  14.730  1.2133  0.0027 -2.0867
14731TIP3    H265685   4.257   1.679  14.811 -0.3885  0.4844  0.2318
14732TIP3   OH265686   5.608   0.302  12.709  0.3583  0.2814  0.1943
14732TIP3    H165687   5.643   0.345  12.631  0.2117  0.6609  0.3347
14732TIP3    H265688   5.523   0.344  12.724  0.6958  0.7046  0.9668
14733TIP3   OH265689   4.547   3.731  10.893  0.0487  0.3893 -0.2708
14733TIP3    H165690   4.544   3.636  10.904  2.0826  0.2827 -0.2920
14733TIP3    H265691   4.541   3.766  10.982  0.4210  0.1873 -0.1653
14734TIP3   OH265692   3.920   0.364  15.968 -0.1592 -0.3529 -0.2543
14734TIP3    H165693   3.975   0.415  15.909 -2.4469 -0.1933 -2.4419
14734TIP3    H265694   3.914   0.278  15.927 -1.6378 -0.3031 -0.2141
14735TIP3   OH265695   0.303   2.988   0.596 -0.2621  0.3155 -0.7377
14735TIP3    H165696   0.224   2.973   0.647 -1.6528  1.3266 -2.4708
14735TIP3    H265697   0.291   2.935   0.517  2.3835 -2.1958  0.3706
14736TIP3   OH265698   2.187   4.794   2.055 -0.1172 -0.3690 -0.2782
14736TIP3    H165699   2.094   4.811   2.072  0.0557  0.3834 -0.0626
14736TIP3    H265700   2.191   4.770   1.963 -0.7020 -1.7607  0.0323
14737TIP3   OH265701   3.946   4.444   3.230  0.0169  0.0109 -0.7345
14737TIP3    H165702   3.940   4.539   3.229 -0.5042  0.0017  0.2938
14737TIP3    H265703   3.985   4.423   3.315 -2.4489 -0.7864  0.3091
14738TIP3   OH265704   5.681   1.651  15.871 -0.0797  0.4127 -0.2041
14738TIP3    H165705   5.586   1.647  15.879 -0.0422 -0.4681 -0.1104
14738TIP3    H265706   5.697   1.678  15.780 -0.4223  2.2597  0.2436
14739TIP3   OH265707   6.537   3.295   3.233  0.1921 -0.2313 -0.0837
14739TIP3    H165708   6.577   3.213   3.204 -0.5738 -0.6709  0.0832
14739TIP3    H265709   6.586   3.319   3.312  0.1314 -0.7636  0.1172
14740TIP3   OH265710   4.144   0.868  14.430  0.0569  0.2186 -0.7150
14740TIP3    H165711   4.077   0.808  14.395 -0.6872  0.4177  0.3211
14740TIP3    H265712   4.214   0.865  14.365 -0.7559 -0.3537 -1.6084
14741TIP3   OH265713   3.904   2.524  14.687 -0.0642 -0.3527 -0.0642
14741TIP3    H165714   3.941   2.594  14.740  0.2961  0.0882 -0.8778
14741TIP3    H265715   3.854   2.471  14.749  0.5161  0.0252  0.7464
14742TIP3   OH265716   3.356   2.809  11.755 -0.2545  0.3469  0.4533
14742TIP3    H165717   3.365   2.763  11.839  0.9419  0.3386  0.3400
14742TIP3    H265718   3.370   2.742  11.689  3.2919  1.0355  0.2738
14743TIP3   OH265719   4.463   4.932  14.993 -0.0208 -0.0352 -0.0770
14743TIP3    H165720   4.440   4.966  15.080  1.0325  0.7640 -0.0919
14743TIP3    H265721   4.546   4.885  15.007  0.1838  0.1465 -0.6521
14744TIP3   OH265722   5.408   4.986   0.209 -1.0101  0.4612  0.4844
14744TIP3    H165723   5.406   5.081   0.220 -3.8481  0.5635 -0.2199
14744TIP3    H265724   5.394   4.973   0.115  0.4190 -0.6933  0.3920
14745TIP3   OH265725   2.984   0.894   6.078 -0.0270  0.5428  0.0803
14745TIP3    H165726   3.032   0.862   6.154  0.2249  1.0574  0.1408
14745TIP3    H265727   3.051   0.911   6.012 -0.1397  1.0631  0.0948
14746TIP3   OH265728   4.300   2.761   5.852  0.1803  0.1586  0.6610
14746TIP3    H165729   4.257   2.677   5.833 -1.1717  0.6140  1.5385
14746TIP3    H265730   4.372   2.766   5.789 -0.0510 -1.4030  0.2288
14747TIP3   OH265731   6.122   3.793   1.203  0.1860  0.2587  0.2661
14747TIP3    H165732   6.041   3.843   1.216 -1.4606 -2.5993  2.3409
14747TIP3    H265733   6.118   3.764   1.112  0.2349  2.2426 -0.4098
14748TIP3   OH265734   4.761   5.063  12.647  0.2198  0.0087 -0.4209
14748TIP3    H165735   4.782   5.090  12.558  0.6463  1.1591  0.0128
14748TIP3    H265736   4.785   5.138  12.701  0.3115 -0.8068  0.7052
14749TIP3   OH265737   1.653   1.931   3.713  0.6490 -0.3782  0.1005
14749TIP3    H165738   1.563   1.957   3.693  0.6995 -1.2616 -1.4750
14749TIP3    H265739   1.706   2.006   3.687  0.5025 -0.6167 -0.9479
14750TIP3   OH265740   6.300   4.437  16.242  1.0754  0.0760  0.2084
14750TIP3    H165741   6.216   4.431  16.288  0.9949 -0.8872 -0.0469
14750TIP3    H265742   6.352   4.497  16.296  0.9648 -0.9817  1.5840
14751TIP3   OH265743   3.213   6.015   1.172  0.1802 -0.5227 -0.0179
14751TIP3    H165744   3.254   6.039   1.088  0.6316 -1.3290 -0.0419
14751TIP3    H265745   3.279   5.962   1.216 -1.0014 -2.3296 -0.2932
14752TIP3   OH265746   1.116   1.901   5.977  0.2906 -0.4885  0.3854
14752TIP3    H165747   1.065   1.965   5.928  1.3700  0.6869  0.7495
14752TIP3    H265748   1.125   1.939   6.064  0.0300 -1.6660  0.9596
14753TIP3   OH265749   6.324   5.522  13.929  0.2475  0.0107  0.5434
14753TIP3    H165750   6.242   5.565  13.951  0.1773 -0.0764  0.4519
14753TIP3    H265751   6.308   5.481  13.844 -0.1549 -1.4471  1.2972
14754TIP3   OH265752   3.634   3.508  10.684  0.6780 -0.2261  0.4906
14754TIP3    H165753   3.660   3.433  10.739  3.0284  0.1618  0.0282
14754TIP3    H265754   3.626   3.471  10.596  0.4476 -0.1884  0.4958
14755TIP3   OH265755   6.459   6.808  15.410 -0.3643 -0.0574  0.0833
14755TIP3    H165756   6.505   6.793  15.328 -0.1916 -2.5117  0.5502
14755TIP3    H265757   6.405   6.885  15.394  0.5945  0.2635 -1.8990
14756TIP3   OH265758   3.544   0.339   2.515  0.0197  0.3424  0.0739
14756TIP3    H165759   3.495   0.357   2.435  0.7366  2.8874  0.1017
14756TIP3    H265760   3.477   0.319   2.580 -0.7168  0.2917 -0.6787
14757TIP3   OH265761   1.352   4.354  11.249 -0.3043  0.1285  0.4574
14757TIP3    H165762   1.374   4.447  11.241  1.5870 -0.4496 -2.3744
14757TIP3    H265763   1.294   4.337  11.174 -0.4527 -1.0150  0.8172
14758TIP3   OH265764   2.218   3.272   1.745 -0.3197  0.2768 -0.1166
14758TIP3    H165765   2.124   3.288   1.748 -0.4411 -0.5832  2.2387
14758TIP3    H265766   2.258   3.354   1.775 -0.3644  0.1875  0.1796
14759TIP3   OH265767   4.063   3.429  12.392 -0.7474 -0.0566  0.3135
14759TIP3    H165768   4.057   3.429  12.297 -0.3965 -0.4877  0.2925
14759TIP3    H265769   4.045   3.520  12.417 -0.6857  0.0885 -0.1719
14760TIP3   OH265770   6.153   5.678  13.509  0.2445 -0.2578  0.3991
14760TIP3    H165771   6.086   5.696  13.443  1.3311 -1.2192 -1.0449
14760TIP3    H265772   6.197   5.762  13.521 -0.3373  0.0652  0.3397
14761TIP3   OH265773   5.008   6.724  16.429 -0.0857 -0.1419  0.7566
14761TIP3    H165774   4.966   6.810  16.427  0.1534 -0.0419 -0.8044
14761TIP3    H265775   5.072   6.732  16.500 -0.0144  1.0009  0.5952
14762TIP3   OH265776   4.765   5.397   3.998  0.7456 -0.2599  0.2805
14762TIP3    H165777   4.843   5.395   4.053  1.3706 -1.5626 -0.5889
14762TIP3    H265778   4.717   5.318   4.022  2.3309 -2.3239 -2.7321
14763TIP3   OH265779   0.431   5.977  16.497 -0.0024  0.3967 -0.0437
14763TIP3    H165780   0.428   5.881  16.503 -0.2112  0.4819  2.6578
14763TIP3    H265781   0.357   6.006  16.550  3.2476  1.9625  4.2901
14764TIP3   OH265782   2.996   1.141  11.092 -0.3453  0.3316  0.0069
14764TIP3    H165783   3.024   1.088  11.017  0.4110  1.0695 -0.2393
14764TIP3    H265784   2.976   1.227  11.055  1.3766  1.1302  0.8190
14765TIP3   OH265785   4.673   5.420   5.742 -0.0811  0.3049  0.0099
14765TIP3    H165786   4.763   5.448   5.758 -0.6186  1.5938  0.9647
14765TIP3    H265787   4.628   5.437   5.825 -1.1176 -0.7071 -0.3214
14766TIP3   OH265788   6.687   1.993   5.754 -0.2215 -0.3062  0.3150
14766TIP3    H165789   6.721   2.002   5.665  2.0199 -1.6552  0.9272
14766TIP3    H265790   6.680   2.082   5.786  0.2923  0.1420 -0.7674
14767TIP3   OH265791   2.249   2.398   3.030 -0.1896 -0.4796 -0.4807
14767TIP3    H165792   2.217   2.355   3.110 -0.1625 -1.5097 -1.0121
14767TIP3    H265793   2.331   2.439   3.057 -0.5217 -0.2266  0.1869
14768TIP3   OH265794   2.903   2.681   5.346  0.0175  0.1634 -0.0962
14768TIP3    H165795   2.818   2.705   5.308 -1.1967 -0.8181  1.8245
14768TIP3    H265796   2.885   2.601   5.396  1.9471  0.2759  0.8668
14769TIP3   OH265797   2.445   1.462   2.609  0.2517  0.0253  0.8287
14769TIP3    H165798   2.493   1.530   2.562  2.0102 -1.4458  0.4382
14769TIP3    H265799   2.422   1.398   2.542 -1.7900  0.3894  1.1155
14770TIP3   OH265800   2.335   1.480   3.666  0.2789  0.8033  0.0891
14770TIP3    H165801   2.318   1.574   3.661 -1.4279  0.5188 -0.1543
14770TIP3    H265802   2.269   1.441   3.608  0.9798 -0.5476  0.1575
14771TIP3   OH265803   0.143   6.338   2.146  0.6666 -0.0732  0.4581
14771TIP3    H165804   0.105   6.316   2.062 -0.6705 -1.1433  1.3073
14771TIP3    H265805   0.202   6.266   2.167 -0.5995 -0.8806  1.3676
14772TIP3   OH265806   6.286   3.310   4.910 -0.6803  0.3509 -0.1394
14772TIP3    H165807   6.274   3.401   4.936 -0.0424  0.8137 -1.3790
14772TIP3    H265808   6.264   3.309   4.817  0.2398 -0.5700 -0.3598
14773TIP3   OH265809   4.993   2.702  13.594 -0.3331  0.2553  0.7087
14773TIP3    H165810   5.035   2.776  13.550  0.0829 -2.5872 -4.5602
14773TIP3    H265811   5.065   2.646  13.622 -0.4598 -0.9610 -1.1870
14774TIP3   OH265812   6.668   3.439   4.748  0.6233  0.3738 -0.2262
14774TIP3    H165813   6.656   3.382   4.673  0.7081  2.0920 -1.6063
14774TIP3    H265814   6.737   3.397   4.800  0.7213 -0.7278 -1.2129
14775TIP3   OH265815   0.871   6.119  10.956  0.0272  0.5401 -0.2698
14775TIP3    H165816   0.955   6.110  11.001 -0.0823 -0.8746 -0.3032
14775TIP3    H265817   0.808   6.135  11.025  0.0178 -0.5761  0.0012
14776TIP3   OH265818   6.268   0.257   0.580 -0.5546 -0.0736  0.3962
14776TIP3    H165819   6.204   0.256   0.509 -0.3487  0.6991  0.1846
14776TIP3    H265820   6.340   0.311   0.546 -0.2307 -0.1218  0.9999
14777TIP3   OH265821   3.012   5.392  14.442 -0.2775  0.0857 -0.4834
14777TIP3    H165822   3.044   5.469  14.395 -0.8023  0.1770 -0.6921
14777TIP3    H265823   2.945   5.426  14.502 -0.7491 -0.2520 -0.8155
14778TIP3   OH265824   3.453   4.420   3.726  0.4266  0.4458  0.1096
14778TIP3    H165825   3.534   4.440   3.678  0.1529 -1.3485 -1.2167
14778TIP3    H265826   3.384   4.457   3.671  0.3094  2.6410  1.6111
14779TIP3   OH265827   5.925   5.253   5.931  0.2191  0.0755  0.3072
14779TIP3    H165828   5.983   5.265   6.006  1.3314  0.8103 -0.6225
14779TIP3    H265829   5.848   5.209   5.966  0.9235 -0.0420  1.7733
14780TIP3   OH265830   6.759   1.674   1.084 -0.9010  0.6499 -0.1458
14780TIP3    H165831   6.851   1.652   1.075 -0.7982  0.5897  0.8999
14780TIP3    H265832   6.755   1.769   1.077 -0.6854  0.6950  0.3125
14781TIP3   OH265833   3.015   3.478  12.115 -0.1206 -0.5360 -0.0346
14781TIP3    H165834   3.064   3.409  12.161 -0.1803 -0.0724  0.7538
14781TIP3    H265835   2.939   3.434  12.078 -0.5071 -0.7945  1.0226
14782TIP3   OH265836   5.818   3.964  13.344 -0.0338 -0.3689 -0.6528
14782TIP3    H165837   5.820   3.927  13.256 -0.7943 -0.2167 -0.7415
14782TIP3    H265838   5.849   4.054  13.333 -0.7089 -0.1552 -0.8737
14783TIP3   OH265839   2.171   4.513  13.400  0.1584  0.1437  0.2321
14783TIP3    H165840   2.079   4.535  13.382  0.0453 -0.1941  0.3899
14783TIP3    H265841   2.174   4.495  13.494  0.8966  2.6106  0.7543
14784TIP3   OH265842   4.946   3.579  11.604  0.4275 -0.1971 -0.4997
14784TIP3    H165843   4.964   3.491  11.572  0.5660 -0.0241 -0.9032
14784TIP3    H265844   4.886   3.616  11.539  0.6609  0.1379 -0.5253
14785TIP3   OH265845   4.012   2.132  10.208 -0.0696 -0.2738  0.7056
14785TIP3    H165846   3.929   2.178  10.190  0.7023  0.8948  0.0093
14785TIP3    H265847   4.014   2.061  10.143  0.9725  1.7086 -1.5733
14786TIP3   OH265848   1.076   5.139  16.797  0.6638  0.2935  0.0960
14786TIP3    H165849   1.095   5.186  16.878 -0.8684 -1.8509  1.8367
14786TIP3    H265850   1.125   5.058  16.804 -0.4950 -0.4886 -0.4672
14787TIP3   OH265851   4.882   5.648   1.170  0.1319 -0.1862 -0.2667
14787TIP3    H165852   4.928   5.611   1.245 -1.3984  0.8242  1.2390
14787TIP3    H265853   4.881   5.743   1.186 -2.1308 -0.1439 -0.4000
14788TIP3   OH265854   4.422   5.800   0.212 -0.4431 -0.7307  0.6101
14788TIP3    H165855   4.417   5.865   0.282  1.1243 -0.6258  0.6576
14788TIP3    H265856   4.516   5.786   0.198 -0.5897  0.3759 -2.4649
14789TIP3   OH265857   3.274   3.939   4.250 -0.0404  0.0465  0.0884
14789TIP3    H165858   3.243   4.001   4.185  0.8231 -1.5606 -1.9599
14789TIP3    H265859   3.205   3.872   4.253  0.9886 -1.1114 -1.0099
14790TIP3   OH265860   4.706   5.576  11.618 -0.1574 -0.8504  0.0747
14790TIP3    H165861   4.752   5.530  11.688  0.5902  0.1191  0.2394
14790TIP3    H265862   4.638   5.627  11.664  0.0686 -0.5306  0.0530
14791TIP3   OH265863   5.806   1.099  16.495  0.0875 -0.1374 -0.4053
14791TIP3    H165864   5.816   1.187  16.457  0.2839 -0.6427 -1.5716
14791TIP3    H265865   5.764   1.114  16.579 -0.0850  1.0637 -0.6882
14792TIP3   OH265866   2.101   4.652   1.499  0.0647 -0.0050 -0.0923
14792TIP3    H165867   2.122   4.566   1.535 -1.2983 -0.6862 -0.8602
14792TIP3    H265868   2.129   4.713   1.567  0.9688 -1.0434  0.5079
14793TIP3   OH265869   4.130   0.923   1.683 -0.1761  0.0291  0.5832
14793TIP3    H165870   4.090   0.972   1.754  1.7362 -0.0968  1.8029
14793TIP3    H265871   4.132   0.832   1.714  1.3434  0.0879  0.7346
14794TIP3   OH265872   1.032   3.529  16.365  0.6964  0.2520 -0.1006
14794TIP3    H165873   1.107   3.567  16.320  0.1190  1.2341 -0.2619
14794TIP3    H265874   0.996   3.465  16.304 -1.1442  2.8042 -1.8811
14795TIP3   OH265875   5.570   3.617   2.544  0.3485  0.3518  0.2101
14795TIP3    H165876   5.479   3.587   2.549  0.8481 -1.3334 -0.2134
14795TIP3    H265877   5.605   3.601   2.632  0.3900  0.4980  0.2200
14796TIP3   OH265878   3.210   1.056   1.706  0.0592  0.4306 -0.2440
14796TIP3    H165879   3.297   1.043   1.671 -0.0720 -1.9485  0.1224
14796TIP3    H265880   3.151   1.016   1.641 -0.7574  1.8066 -0.3875
14797TIP3   OH265881   5.619   1.906  13.147  0.2536  0.4851  0.0077
14797TIP3    H165882   5.582   1.993  13.130 -1.6008 -0.1129  0.6903
14797TIP3    H265883   5.617   1.897  13.243 -0.8580 -0.7948 -0.0982
14798TIP3   OH265884   1.234   1.803   3.690  0.0777  0.6149  0.2141
14798TIP3    H165885   1.267   1.821   3.778 -2.4350  0.0579  1.3498
14798TIP3    H265886   1.199   1.887   3.660  0.1097  0.5921  0.1107
14799TIP3   OH265887   5.064   2.083   2.159  0.1931  0.1071 -0.1925
14799TIP3    H165888   5.062   2.054   2.067  2.3021  1.3960 -0.7315
14799TIP3    H265889   5.043   2.176   2.155  0.5680  0.2306  0.5893
14800TIP3   OH265890   4.888   4.220  13.428  0.1687 -0.5029  0.3237
14800TIP3    H165891   4.982   4.236  13.415 -0.0210  0.9058  0.5366
14800TIP3    H265892   4.879   4.205  13.522  0.0904  0.1552  0.4282
14801TIP3   OH265893   4.679   5.965   0.512 -0.4949  0.1883 -0.3489
14801TIP3    H165894   4.585   5.971   0.493 -0.2512  0.9608 -1.4012
14801TIP3    H265895   4.715   6.048   0.481  0.9017 -1.0648 -2.3185
14802TIP3   OH265896   4.596   0.901  13.430  0.4635  0.2316  0.5321
14802TIP3    H165897   4.589   0.944  13.345  2.3782 -2.5984 -1.2507
14802TIP3    H265898   4.688   0.875  13.435  0.3525  0.1291  3.4281
14803TIP3   OH265899   3.239   5.203  16.493 -0.6493  0.2220  0.1532
14803TIP3    H165900   3.294   5.125  16.495  1.8921  1.9330  0.3116
14803TIP3    H265901   3.193   5.202  16.578  0.9435 -0.0361  1.0410
14804TIP3   OH265902   2.582   2.897   3.962 -0.9449  0.4250 -0.8404
14804TIP3    H165903   2.499   2.944   3.949 -2.6652 -2.0189  0.4708
14804TIP3    H265904   2.592   2.893   4.057  1.2903  1.5500 -0.9721
14805TIP3   OH265905   0.777   2.598   3.419  0.4749 -0.1552 -0.3977
14805TIP3    H165906   0.783   2.631   3.329  1.3076 -1.6604 -0.9364
14805TIP3    H265907   0.683   2.597   3.438  0.3462  0.9772 -0.9369
14806TIP3   OH265908   6.689   0.693   4.284 -0.5822  0.1024 -0.0290
14806TIP3    H165909   6.756   0.758   4.263 -0.1217 -0.8782 -1.8265
14806TIP3    H265910   6.610   0.745   4.300  0.0494  1.1530 -0.1847
14807TIP3   OH265911   3.841   4.458   2.155  0.0194 -0.6086 -0.2102
14807TIP3    H165912   3.813   4.514   2.228 -1.1542 -1.6363  0.1558
14807TIP3    H265913   3.917   4.411   2.189 -0.1828 -0.6699  0.1638
14808TIP3   OH265914   0.132   4.740   1.449 -0.2370 -0.1210  0.5218
14808TIP3    H165915   0.059   4.738   1.387 -0.6542 -2.6222  0.9887
14808TIP3    H265916   0.110   4.674   1.514  1.2539  0.8783  2.1319
14809TIP3   OH265917   1.562   4.899  14.125 -0.1813 -0.5923 -0.1973
14809TIP3    H165918   1.567   4.876  14.032 -0.3985 -0.8440 -0.1463
14809TIP3    H265919   1.622   4.974  14.134  1.8208 -2.1445 -0.0249
14810TIP3   OH265920   3.942   2.679  16.621  0.1632 -0.0766 -0.1219
14810TIP3    H165921   3.883   2.662  16.548  1.1016 -0.7451 -0.7594
14810TIP3    H265922   3.922   2.768  16.648 -2.6196 -0.9923  1.1217
14811TIP3   OH265923   1.802   4.089   4.784 -0.0789 -0.0279  0.0227
14811TIP3    H165924   1.738   4.124   4.723  0.0340 -0.3360 -0.2769
14811TIP3    H265925   1.770   4.001   4.805 -0.4472  0.3025  0.8949
14812TIP3   OH265926   2.036   1.143  12.827 -0.3516  0.1350  0.0108
14812TIP3    H165927   1.941   1.156  12.837 -0.3808 -1.2183  1.8401
14812TIP3    H265928   2.071   1.152  12.915  1.2164  0.3349 -0.6055
14813TIP3   OH265929   2.383   2.207  11.636 -0.5155 -0.1996 -0.2718
14813TIP3    H165930   2.295   2.223  11.669  0.4375  1.5815  1.6267
14813TIP3    H265931   2.433   2.284  11.661  1.7196 -1.3360 -0.9091
14814TIP3   OH265932   1.201   0.122   0.722  0.2281 -0.1172  0.1418
14814TIP3    H165933   1.183   0.050   0.661 -0.1110 -0.0443  0.1555
14814TIP3    H265934   1.163   0.093   0.805  0.3405 -0.0452  0.2176
14815TIP3   OH265935   5.037   3.839  13.599 -0.4299 -0.2074 -0.7323
14815TIP3    H165936   5.071   3.809  13.683 -1.3552 -2.4582 -1.1035
14815TIP3    H265937   5.089   3.917  13.579  1.0738 -0.6886  1.0234
14816TIP3   OH265938   3.604   3.373  15.862  0.8527  0.1372  0.5731
14816TIP3    H165939   3.675   3.429  15.832  0.4463  1.6860  2.3191
14816TIP3    H265940   3.635   3.337  15.945  0.4210 -0.9192  0.3023
14817TIP3   OH265941   2.701   4.057   4.546 -0.4071 -0.0609 -0.6770
14817TIP3    H165942   2.699   4.145   4.509  0.9086 -0.3394 -1.4351
14817TIP3    H265943   2.679   4.070   4.639  3.6853  1.6684  0.2734
14818TIP3   OH265944   4.532   5.032  12.773 -0.3543 -0.4071  0.2012
14818TIP3    H165945   4.620   5.045  12.738 -0.2634 -1.4944 -0.0029
14818TIP3    H265946   4.492   5.120  12.771  0.7297  0.0965  0.3434
14819TIP3   OH265947   6.538   3.746   5.410 -0.2397 -0.2472  0.3136
14819TIP3    H165948   6.446   3.718   5.407  0.1330 -1.6207  1.0519
14819TIP3    H265949   6.583   3.675   5.455  1.1240  0.6180  0.3559
14820TIP3   OH265950   3.966   1.516  10.563 -0.1282 -0.2699 -0.5611
14820TIP3    H165951   3.922   1.432  10.573 -1.0218  0.2249 -0.1055
14820TIP3    H265952   3.897   1.581  10.582  0.9707  0.5306  0.9567
14821TIP3   OH265953   6.647   1.142   5.519 -0.5334 -0.5171  0.1730
14821TIP3    H165954   6.575   1.103   5.470  1.2536 -0.8103 -2.4664
14821TIP3    H265955   6.704   1.068   5.541  0.6007  0.0102 -0.8249
14822TIP3   OH265956   0.509   4.720  13.226 -0.3140  0.0550 -0.0201
14822TIP3    H165957   0.441   4.707  13.292 -1.4187  1.9148 -0.7176
14822TIP3    H265958   0.574   4.776  13.269 -0.3693  0.1667 -0.0814
14823TIP3   OH265959   0.902   3.880   5.022 -0.4765 -0.1844 -0.1802
14823TIP3    H165960   0.930   3.968   5.048  0.2471 -0.7418  0.9814
14823TIP3    H265961   0.963   3.821   5.066 -1.7001 -1.3269  0.0531
14824TIP3   OH265962   4.673   0.007  15.605 -0.4547  0.1578  0.2350
14824TIP3    H165963   4.741  -0.036  15.553 -1.2470 -0.3894 -0.3596
14824TIP3    H265964   4.680  -0.034  15.691  0.8753  1.0801  0.6001
14825TIP3   OH265965   4.265   1.618  15.959  0.4671  0.3130 -0.0641
14825TIP3    H165966   4.175   1.584  15.962  0.7299 -0.3484  1.3121
14825TIP3    H265967   4.290   1.611  15.867 -0.8007  0.2867 -0.4354
14826TIP3   OH265968   3.030   1.246  12.459 -0.1444 -0.1208 -0.5296
14826TIP3    H165969   3.110   1.260  12.510 -0.9191 -0.9428  0.9884
14826TIP3    H265970   3.026   1.151  12.447 -0.3770 -0.0010 -1.5006
14827TIP3   OH265971   3.993   5.871  13.671  0.2107 -0.0313  0.1858
14827TIP3    H165972   3.916   5.868  13.728  0.9408 -2.0116  1.1633
14827TIP3    H265973   3.971   5.814  13.598  0.7763 -0.7639  0.5670
14828TIP3   OH265974   0.058   0.128   1.320 -0.7486 -0.5523  0.0745
14828TIP3    H165975   0.130   0.191   1.313  0.2108 -1.6826 -0.4540
14828TIP3    H265976   0.090   0.062   1.381 -1.5416 -0.8090  0.2225
14829TIP3   OH265977   3.893   4.560   0.624  0.0737 -0.2196  0.1500
14829TIP3    H165978   3.841   4.483   0.601  0.1119  0.1428 -1.2798
14829TIP3    H265979   3.983   4.528   0.629  0.1740 -0.1862 -1.0544
14830TIP3   OH265980   2.842   3.754  12.627  0.1819 -0.2445 -0.2186
14830TIP3    H165981   2.892   3.703  12.691  0.2373 -0.0167 -0.0776
14830TIP3    H265982   2.841   3.700  12.549 -1.0549 -1.1279  0.3904
14831TIP3   OH265983   5.590   1.259  12.077 -0.1945 -0.3336  0.0102
14831TIP3    H165984   5.511   1.213  12.107 -0.3073  0.3463  0.7908
14831TIP3    H265985   5.657   1.235  12.140 -0.1044  0.0904  0.0797
14832TIP3   OH265986   2.099   2.390   2.785 -0.2729  0.1193  0.2250
14832TIP3    H165987   2.170   2.381   2.848  0.2957 -0.1111 -0.4238
14832TIP3    H265988   2.022   2.411   2.837  0.1236 -0.3401  1.0157
14833TIP3   OH265989   6.414   5.870  15.132  0.1424  0.1476 -0.9965
14833TIP3    H165990   6.348   5.842  15.195  2.2528 -1.4737  0.6397
14833TIP3    H265991   6.396   5.817  15.054 -0.4555 -0.3427 -0.5402
14834TIP3   OH265992   6.749   2.644  15.050  0.2887 -0.8934  0.3823
14834TIP3    H165993   6.698   2.717  15.016  0.6191 -1.1731 -0.7704
14834TIP3    H265994   6.684   2.584  15.087 -0.0295 -0.3005  0.7914
14835TIP3   OH265995   5.832   0.978   3.369  0.5187  0.1407 -0.1920
14835TIP3    H165996   5.787   0.928   3.301 -1.1928  1.4970 -0.1310
14835TIP3    H265997   5.924   0.978   3.342  0.4430 -2.1936 -0.6624
14836TIP3   OH265998   5.193   5.691   3.204 -0.2412 -0.2117 -0.1821
14836TIP3    H165999   5.252   5.631   3.249 -0.1807  1.7030  2.5467
14836TIP3    H266000   5.249   5.739   3.143  0.0738 -1.5054 -0.9472
14837TIP3   OH266001   6.447   2.874  14.382  0.5690  0.0183 -0.1659
14837TIP3    H166002   6.397   2.949  14.414  1.8254  1.1573 -0.7557
14837TIP3    H266003   6.397   2.797  14.411 -2.5647  1.0307 -2.3535
14838TIP3   OH266004   6.036   6.318   6.088 -0.3055  0.3504  0.2703
14838TIP3    H166005   6.046   6.316   6.183 -0.9051  1.6476  0.3823
14838TIP3    H266006   5.941   6.318   6.074 -0.2190  0.2897 -0.3226
14839TIP3   OH266007   1.529   3.344   1.649  0.3845 -0.1004  0.0139
14839TIP3    H166008   1.612   3.346   1.602 -0.6525 -0.4072 -1.9299
14839TIP3    H266009   1.527   3.258   1.690  0.2569 -0.8298 -1.4568
14840TIP3   OH266010   3.925   0.638  13.348 -0.0752  0.6166  0.5433
14840TIP3    H166011   3.870   0.711  13.377 -1.9284 -0.5092  0.0128
14840TIP3    H266012   3.910   0.634  13.253 -1.2546 -1.3811  0.7608
14841TIP3   OH266013   1.684   4.186   2.346 -0.7833 -0.3705 -0.3477
14841TIP3    H166014   1.712   4.171   2.255  0.1901 -0.9432  0.0310
14841TIP3    H266015   1.618   4.118   2.362 -2.9617  1.3489 -1.4339
14842TIP3   OH266016   6.569   4.344  10.718  0.6907  0.0112 -0.0459
14842TIP3    H166017   6.651   4.303  10.690 -1.0432 -3.5818 -0.4019
14842TIP3    H266018   6.537   4.389  10.640  1.6071  0.2087 -0.3217
14843TIP3   OH266019   0.648   3.053  16.053  0.5153 -0.3124  0.3955
14843TIP3    H166020   0.712   3.098  15.998  0.9562  1.0231  1.9250
14843TIP3    H266021   0.689   2.969  16.072  1.6457  0.3458  0.9914
14844TIP3   OH266022   4.225   6.472   4.016 -0.1723 -0.1278  0.2796
14844TIP3    H166023   4.291   6.474   4.086  0.4043 -1.2863 -0.1993
14844TIP3    H266024   4.244   6.549   3.963  0.3476 -0.0623  0.5488
14845TIP3   OH266025   3.252   3.896  12.768 -0.2173 -0.9631 -0.0587
14845TIP3    H166026   3.337   3.900  12.813 -0.4471  0.9529  0.2992
14845TIP3    H266027   3.240   3.984  12.733 -3.2209 -0.3792  2.1047
14846TIP3   OH266028   6.764   2.388  16.837 -0.3708 -0.0415  1.0234
14846TIP3    H166029   6.738   2.458  16.896 -0.6922  0.3552  0.4200
14846TIP3    H266030   6.805   2.432  16.763  0.4625 -0.5583  1.1606
14847TIP3   OH266031   4.624   5.292  13.532  0.2544  0.7285 -0.5119
14847TIP3    H166032   4.719   5.278  13.530  0.2389  0.5596 -0.1053
14847TIP3    H266033   4.612   5.365  13.593  0.0424  0.0620  0.2609
14848TIP3   OH266034   5.128   0.799   4.414 -0.0467  0.7979 -0.1463
14848TIP3    H166035   5.062   0.846   4.466  1.1259  1.6033  0.6421
14848TIP3    H266036   5.206   0.797   4.469  0.4571 -0.5934 -0.8640
14849TIP3   OH266037   2.202   6.204  17.195  0.3899 -0.1754  0.1403
14849TIP3    H166038   2.215   6.120  17.151  2.1757  0.9869 -1.7102
14849TIP3    H266039   2.107   6.218  17.192  0.3144 -0.7995 -2.1414
14850TIP3   OH266040   1.955   1.414  14.542 -0.2667 -0.1450 -0.0339
14850TIP3    H166041   1.891   1.485  14.530 -0.1048  0.0414  0.1972
14850TIP3    H266042   1.954   1.396  14.636  0.4246  0.2362  0.0514
14851TIP3   OH266043   3.468   4.137  13.916 -0.1249  0.2090  0.4154
14851TIP3    H166044   3.517   4.187  13.982 -1.4459  0.9519  0.8823
14851TIP3    H266045   3.441   4.057  13.961 -0.3085  0.3341  0.5336
14852TIP3   OH266046   5.623   6.506  16.208  0.6376 -0.0420 -0.0617
14852TIP3    H166047   5.571   6.454  16.269  1.4135  1.3207  1.8670
14852TIP3    H266048   5.672   6.441  16.158 -0.1124 -1.2275  0.6812
14853TIP3   OH266049   4.183   0.593   3.311 -0.1668  0.0083  0.1340
14853TIP3    H166050   4.216   0.505   3.330  0.3755  0.2116  0.1585
14853TIP3    H266051   4.155   0.627   3.395 -1.2184 -0.4738 -0.0104
14854TIP3   OH266052   1.106   3.483  11.040  0.0652 -0.2325 -0.0528
14854TIP3    H166053   1.076   3.458  10.952  1.0147  0.6216 -0.6487
14854TIP3    H266054   1.128   3.575  11.032 -0.7768  0.1124  1.3733
14855TIP3   OH266055   6.096   0.284   0.350 -0.3249  0.8723 -0.2413
14855TIP3    H166056   6.105   0.379   0.345  2.6421  0.6488 -0.4215
14855TIP3    H266057   6.094   0.256   0.258 -0.7701  0.7102 -0.1846
14856TIP3   OH266058   5.925   2.691   5.968 -0.4533  0.2714  0.1881
14856TIP3    H166059   6.007   2.685   6.015  0.5814 -0.2437 -1.5832
14856TIP3    H266060   5.904   2.785   5.968  0.0424  0.3830  0.7719
14857TIP3   OH266061   3.917   1.523  11.349  0.3061 -0.2986 -0.8328
14857TIP3    H166062   3.981   1.462  11.311  0.5330 -2.2099  2.2364
14857TIP3    H266063   3.968   1.599  11.375  0.7910 -0.5913 -0.9223
14858TIP3   OH266064   2.673   2.458  13.155 -0.0303  0.1298 -0.3311
14858TIP3    H166065   2.626   2.395  13.101 -1.5826  1.5452 -0.7151
14858TIP3    H266066   2.765   2.435  13.144 -0.4571 -1.0404 -1.7401
14859TIP3   OH266067   5.913   4.491   1.459  0.0886 -0.9320  0.3762
14859TIP3    H166068   5.957   4.426   1.404 -0.1979 -0.3246 -0.5894
14859TIP3    H266069   5.883   4.441   1.536  0.4297 -1.8075 -0.0487
14860TIP3   OH266070   2.394   4.245   3.485 -0.1154 -0.4370 -0.2619
14860TIP3    H166071   2.414   4.332   3.451  0.7653 -0.4815  0.1063
14860TIP3    H266072   2.343   4.203   3.416 -0.4277  0.3164 -0.4995
14861TIP3   OH266073   1.618   5.496  16.713  0.0226  1.1720 -0.3105
14861TIP3    H166074   1.710   5.469  16.707 -0.6015 -0.7564 -2.6370
14861TIP3    H266075   1.619   5.569  16.775  2.7913 -0.1633  1.4272
14862TIP3   OH266076   2.573   6.156  12.692  0.0585 -0.0151  0.0561
14862TIP3    H166077   2.508   6.155  12.622 -0.2698 -1.3908  0.3601
14862TIP3    H266078   2.534   6.105  12.763  0.9658  0.1674  0.7150
14863TIP3   OH266079   1.510   2.864   4.795 -0.1630  0.0811 -0.1555
14863TIP3    H166080   1.537   2.777   4.766  0.6088 -0.2500  1.4403
14863TIP3    H266081   1.492   2.912   4.714  3.5644 -0.2065 -1.3344
14864TIP3   OH266082   6.718   6.051   5.527 -0.4736 -0.6483 -0.1089
14864TIP3    H166083   6.804   6.032   5.489 -0.8260 -0.7849 -0.8619
14864TIP3    H266084   6.711   5.993   5.602  1.7207  2.0441  2.4300
14865TIP3   OH266085   2.092   3.341  14.893  0.0356 -0.8971  0.6221
14865TIP3    H166086   2.081   3.302  14.806  1.9592 -0.2870  0.0608
14865TIP3    H266087   2.004   3.340  14.930 -0.7987 -1.4102 -1.2172
14866TIP3   OH266088   3.450   3.837   5.170  0.3573 -0.7355  0.1506
14866TIP3    H166089   3.519   3.900   5.151 -0.7406  0.3801 -0.2779
14866TIP3    H266090   3.371   3.875   5.132 -0.2598 -2.6392 -0.5841
14867TIP3   OH266091   6.360   0.689   1.933 -0.2401  1.1729  0.2700
14867TIP3    H166092   6.419   0.649   1.997 -2.6646 -1.1374  1.2188
14867TIP3    H266093   6.411   0.689   1.851  1.0024 -1.0310  0.9491
14868TIP3   OH266094   5.465   2.087   3.040  0.0021 -0.1244 -0.4652
14868TIP3    H166095   5.543   2.137   3.061 -0.0755 -0.1762 -0.0456
14868TIP3    H266096   5.403   2.107   3.110  0.0132 -0.8936 -0.2198
14869TIP3   OH266097   4.299   5.099  14.232  0.2240  0.4609  0.4658
14869TIP3    H166098   4.374   5.138  14.277  1.2737 -0.9707  0.0634
14869TIP3    H266099   4.226   5.108  14.293  1.0915  0.4992  1.5232
14870TIP3   OH266100   2.249   4.046  13.634 -0.3993 -0.4307  0.5693
14870TIP3    H166101   2.197   4.039  13.714 -1.1291  1.4372  0.3079
14870TIP3    H266102   2.256   4.140  13.618 -0.0481 -0.7513 -1.4267
14871TIP3   OH266103   3.988   4.341  16.724  0.2746 -0.3040  0.4641
14871TIP3    H166104   4.017   4.303  16.807 -0.2380  0.2059  0.8844
14871TIP3    H266105   3.900   4.373  16.742  0.8662  1.5300  0.2723
14872TIP3   OH266106   6.318   6.580  15.942  0.2723  0.0203  0.4350
14872TIP3    H166107   6.300   6.487  15.947  2.1173 -0.4075 -0.2778
14872TIP3    H266108   6.239   6.622  15.977 -1.2301 -1.7296 -0.7131
14873TIP3   OH266109   0.817   1.128   2.768 -0.0105 -0.1529 -0.1397
14873TIP3    H166110   0.812   1.187   2.844  1.7650  0.3091 -0.3400
14873TIP3    H266111   0.899   1.081   2.779  1.3098  1.3294 -2.7192
14874TIP3   OH266112   3.709   4.350   0.617  0.4092  0.1470  0.0618
14874TIP3    H166113   3.627   4.343   0.569  0.0314 -0.7047  0.7961
14874TIP3    H266114   3.729   4.260   0.643  1.6619  0.3238 -0.2345
14875TIP3   OH266115   4.225   0.233  12.605 -0.3363  1.0752  0.3675
14875TIP3    H166116   4.226   0.322  12.639  0.3235  1.5823 -0.9163
14875TIP3    H266117   4.259   0.240  12.516  0.1653 -0.5312  0.3904
14876TIP3   OH266118   6.634   5.137  13.991  0.0534  0.0139 -0.0735
14876TIP3    H166119   6.617   5.191  13.914 -0.2920 -0.8222 -0.5986
14876TIP3    H266120   6.663   5.053  13.956  0.0858 -0.3175  0.7175
14877TIP3   OH266121   2.619   0.497   0.458 -0.0011 -0.2367  0.0690
14877TIP3    H166122   2.614   0.413   0.504  0.5695 -0.2706  0.0866
14877TIP3    H266123   2.529   0.529   0.455  0.0929  0.6045  2.7657
14878TIP3   OH266124   1.610   6.487  15.094 -0.5470  0.0257  0.2632
14878TIP3    H166125   1.521   6.511  15.068 -1.0414 -1.0582  0.8902
14878TIP3    H266126   1.659   6.569  15.091 -1.2780  0.4442 -1.2071
14879TIP3   OH266127   2.423   5.244   2.920  0.0291 -0.1824 -0.8288
14879TIP3    H166128   2.398   5.281   3.005  1.4511  0.0106 -0.4759
14879TIP3    H266129   2.428   5.150   2.935  0.9967 -0.0902 -0.4797
14880TIP3   OH266130   2.868   0.619   2.516 -0.4183 -0.0009  0.3355
14880TIP3    H166131   2.855   0.631   2.610  0.5803  0.7436  0.3934
14880TIP3    H266132   2.843   0.528   2.499  0.0377 -0.3381  1.4267
14881TIP3   OH266133   6.285   5.583   4.131 -0.4516  0.1539  0.3830
14881TIP3    H166134   6.259   5.607   4.042 -2.3013 -2.1440  0.2114
14881TIP3    H266135   6.255   5.656   4.185  1.2176  1.8616 -0.8694
14882TIP3   OH266136   5.739   1.799  12.155  0.3514  0.3385 -0.5920
14882TIP3    H166137   5.752   1.881  12.204  2.7252 -0.6857  0.6525
14882TIP3    H266138   5.823   1.784  12.112 -0.9365 -0.0597 -3.1208
14883TIP3   OH266139   5.507   0.975   2.423 -0.2243  0.0448  0.2518
14883TIP3    H166140   5.543   0.904   2.370 -0.7426  0.4977 -0.7368
14883TIP3    H266141   5.546   0.963   2.509 -0.1689 -1.3289  0.0573
14884TIP3   OH266142   1.248   1.422   3.505  0.1431  0.1195  0.0731
14884TIP3    H166143   1.212   1.484   3.442  0.7233 -1.0242 -1.4375
14884TIP3    H266144   1.343   1.431   3.496  0.2322 -0.2225  0.6090
14885TIP3   OH266145   1.704   6.210  13.785 -0.2431 -0.7941  0.0507
14885TIP3    H166146   1.729   6.118  13.773  3.3991  0.3030 -1.9888
14885TIP3    H266147   1.682   6.240  13.697 -0.4032  0.5829  0.5469
14886TIP3   OH266148   5.296   2.091   6.421  0.4770 -0.3194  0.2822
14886TIP3    H166149   5.354   2.167   6.429  1.4679 -1.0322  0.1036
14886TIP3    H266150   5.269   2.072   6.511  1.2624 -0.5239  0.4887
14887TIP3   OH266151   1.854   4.349  13.053  0.1208  0.2774  0.4200
14887TIP3    H166152   1.832   4.363  13.145  0.5492  0.2601  0.5299
14887TIP3    H266153   1.775   4.372  13.005 -0.6842 -1.3993  0.8916
14888TIP3   OH266154   3.115   1.226   4.580  0.5730 -0.4121 -0.0121
14888TIP3    H166155   3.099   1.275   4.499  2.1758 -0.5059 -0.4338
14888TIP3    H266156   3.032   1.229   4.627 -1.0635 -2.0246 -2.5346
14889TIP3   OH266157   5.171   2.432  16.244 -0.3627 -0.4508 -0.4998
14889TIP3    H166158   5.105   2.386  16.296 -0.6518 -0.4861 -0.8950
14889TIP3    H266159   5.229   2.471  16.309 -0.8401 -0.3193 -0.1455
14890TIP3   OH266160   0.909   6.042  17.130  0.0213 -0.1972 -0.2270
14890TIP3    H166161   0.954   5.960  17.149  0.0379 -0.9385 -3.0629
14890TIP3    H266162   0.961   6.083  17.061 -0.1092  2.1521  0.9517
14891TIP3   OH266163   2.017   5.814   4.406 -0.3593  0.3858 -0.0748
14891TIP3    H166164   2.104   5.801   4.442  0.5005  1.6029 -1.5755
14891TIP3    H266165   1.959   5.760   4.460  1.6278 -2.3759 -0.5315
14892TIP3   OH266166   4.877   0.987   0.342  0.3957  0.2088  1.0296
14892TIP3    H166167   4.844   0.929   0.411  1.4426 -1.5266  0.1431
14892TIP3    H266168   4.972   0.975   0.343  0.3652 -1.5932 -2.0208
14893TIP3   OH266169   5.527   3.377   5.816 -0.0211 -0.1284  0.0839
14893TIP3    H166170   5.542   3.421   5.900  0.3659  1.6260 -0.8600
14893TIP3    H266171   5.608   3.329   5.798  0.0600 -0.1501  0.5039
14894TIP3   OH266172   3.796   1.709  10.640 -0.3523  0.7699 -0.5194
14894TIP3    H166173   3.782   1.799  10.611  0.6005  0.9121 -0.5697
14894TIP3    H266174   3.717   1.686  10.688 -1.3261  1.0587 -1.9132
14895TIP3   OH266175   2.502   1.481  16.417 -0.1342  0.0237 -0.1109
14895TIP3    H166176   2.567   1.431  16.368  0.8995  0.7047  0.5232
14895TIP3    H266177   2.494   1.434  16.500  0.6958  0.7732  0.4091
14896TIP3   OH266178   6.154   3.832  14.773 -0.2477  0.3085 -0.2733
14896TIP3    H166179   6.193   3.776  14.840  0.1176  0.5060 -0.3148
14896TIP3    H266180   6.124   3.909  14.820 -0.6186  0.1419 -0.2372
14897TIP3   OH266181   1.014   0.205  16.152  0.4541  0.0075 -0.1882
14897TIP3    H166182   1.054   0.172  16.072 -1.1864 -0.7934 -0.7307
14897TIP3    H266183   0.932   0.246  16.123 -1.1879 -2.0427  1.1830
14898TIP3   OH266184   6.547   5.196   0.256 -0.9887 -0.0259  0.1373
14898TIP3    H166185   6.535   5.231   0.168 -0.3592  0.0722  0.0843
14898TIP3    H266186   6.556   5.101   0.244  0.6540  0.1301 -0.0852
14899TIP3   OH266187   4.425   3.833  11.637  0.1060  0.2952  0.7930
14899TIP3    H166188   4.457   3.923  11.627  1.4084 -0.1136  1.0162
14899TIP3    H266189   4.398   3.828  11.729  2.9812 -0.3640  1.7186
14900TIP3   OH266190   2.016   6.604   2.723  0.1835 -0.1089  0.2031
14900TIP3    H166191   2.065   6.671   2.676  0.6151 -0.2621  0.4306
14900TIP3    H266192   1.927   6.611   2.688 -0.2006  1.7361  1.4491
14901TIP3   OH266193   4.230   6.136   5.806 -1.2784 -0.2878  0.0199
14901TIP3    H166194   4.272   6.217   5.779 -0.0396 -1.1674 -0.8164
14901TIP3    H266195   4.281   6.107   5.882 -0.4884 -1.2134 -0.8231
14902TIP3   OH266196   0.150   3.708   1.779  0.6102 -0.0603  0.1940
14902TIP3    H166197   0.218   3.776   1.787  1.0472 -0.5368  0.6679
14902TIP3    H266198   0.179   3.655   1.705 -0.2074  0.7790 -0.7564
14903TIP3   OH266199   1.189   2.481   1.257 -0.3590  0.1176  0.2131
14903TIP3    H166200   1.251   2.552   1.272 -0.7190  0.6770 -0.8751
14903TIP3    H266201   1.239   2.401   1.274  0.2882  0.5950  0.5967
14904TIP3   OH266202   4.623   0.756   1.398 -0.3294  0.2653 -0.2645
14904TIP3    H166203   4.550   0.777   1.341 -0.4410  2.6034  0.6224
14904TIP3    H266204   4.697   0.803   1.361  0.4553 -1.0248 -0.4104
14905TIP3   OH266205   0.312   3.709  11.951  0.0406  0.0300 -0.0608
14905TIP3    H166206   0.324   3.782  12.012  3.0224  0.0248 -0.5215
14905TIP3    H266207   0.337   3.744  11.866  1.3928 -1.4378 -0.3183
14906TIP3   OH266208   6.756   3.343   1.538  0.3055  0.4833 -0.0848
14906TIP3    H166209   6.778   3.323   1.629 -1.2528  0.2893  0.2798
14906TIP3    H266210   6.717   3.430   1.541  1.5609  1.0880 -0.7953
14907TIP3   OH266211   1.465   3.666  13.400 -0.3145 -0.0716 -0.1755
14907TIP3    H166212   1.370   3.653  13.399 -0.3641  0.1613  0.5390
14907TIP3    H266213   1.501   3.578  13.414 -0.2949 -0.5546 -2.7783
14908TIP3   OH266214   5.140   3.751   4.143  0.2493 -0.8377  0.2486
14908TIP3    H166215   5.233   3.770   4.157  0.2189 -0.4892 -0.0257
14908TIP3    H266216   5.101   3.758   4.230  0.4925 -1.0590  0.3776
14909TIP3   OH266217   1.475   1.812  13.635 -0.9355  0.1364  0.1629
14909TIP3    H166218   1.462   1.901  13.605 -0.1944  0.0223 -0.5404
14909TIP3    H266219   1.467   1.817  13.731 -1.9867  0.7463  0.0508
14910TIP3   OH266220   5.572   1.811  14.465 -0.3788 -0.1146 -0.3205
14910TIP3    H166221   5.549   1.843  14.378 -1.5293  1.0321  0.3773
14910TIP3    H266222   5.546   1.881  14.525  0.9563 -0.6054  0.9152
14911TIP3   OH266223   3.039   0.056   5.524  0.2807 -0.2661 -0.5639
14911TIP3    H166224   3.115   0.104   5.492 -0.4251  0.1851 -1.6437
14911TIP3    H266225   2.975   0.062   5.453 -0.6865 -0.8143  0.2227
14912TIP3   OH266226   0.839   1.951  13.345  0.0708 -0.0020  0.4376
14912TIP3    H166227   0.862   1.870  13.300 -0.3282  0.1745 -0.0966
14912TIP3    H266228   0.917   2.005  13.338 -0.7195  0.9547 -2.1760
14913TIP3   OH266229   1.334   1.538  11.917 -0.6846  0.6714 -0.0559
14913TIP3    H166230   1.293   1.452  11.904 -0.7369  0.8797 -1.2966
14913TIP3    H266231   1.273   1.584  11.975  0.5103 -0.9517  2.6978
14914TIP3   OH266232   2.914   4.044  11.353 -0.5785 -0.1021  0.0747
14914TIP3    H166233   2.992   4.000  11.320 -0.9414 -1.9923  1.5494
14914TIP3    H266234   2.911   4.127  11.305  0.7880 -1.1758 -2.0243
14915TIP3   OH266235   3.406   5.087  13.726  0.2791 -0.0862 -1.0797
14915TIP3    H166236   3.381   5.166  13.774  1.8536 -0.3446  0.2499
14915TIP3    H266237   3.465   5.118  13.657  0.4285 -0.0296 -0.9275
14916TIP3   OH266238   4.345   5.386  15.682  0.5398 -0.3465 -0.3539
14916TIP3    H166239   4.438   5.388  15.663  0.9051  0.5593  1.3578
14916TIP3    H266240   4.338   5.347  15.769 -0.8617 -2.2004 -1.2365
14917TIP3   OH266241   5.298   5.635   5.608  0.4149  0.4210  0.5336
14917TIP3    H166242   5.379   5.629   5.660  0.0517  1.0567  1.1886
14917TIP3    H266243   5.273   5.544   5.592  1.2516  0.2132  0.3298
14918TIP3   OH266244   3.946   0.323  11.274 -0.2354 -0.3011  0.6117
14918TIP3    H166245   3.991   0.238  11.274  0.6807  0.0726 -2.2849
14918TIP3    H266246   3.991   0.374  11.206 -2.0222  1.8156  0.9113
14919TIP3   OH266247   0.779   1.799   0.379  0.4258  0.0249 -0.0608
14919TIP3    H166248   0.739   1.840   0.302  0.7028  2.4186  0.9798
14919TIP3    H266249   0.705   1.784   0.438  0.4515 -0.0495 -0.0480
14920TIP3   OH266250   6.128   1.871   0.421  0.4904  0.2944 -0.3080
14920TIP3    H166251   6.154   1.942   0.362  0.1289  0.9786  0.3346
14920TIP3    H266252   6.151   1.903   0.508  0.3745 -0.4102 -0.0120
14921TIP3   OH266253   0.796   0.904  15.916 -0.6501 -0.1050  0.4441
14921TIP3    H166254   0.713   0.951  15.903 -0.0038  0.9673  0.0176
14921TIP3    H266255   0.782   0.819  15.874 -1.0694  0.5893 -0.9117
14922TIP3   OH266256   2.132   5.127   3.921  0.1834  0.4586  0.2591
14922TIP3    H166257   2.093   5.213   3.938 -0.0589  0.3913  0.0511
14922TIP3    H266258   2.226   5.143   3.922  0.1332  1.0678 -1.4590
14923TIP3   OH266259   3.658   4.810  16.497  0.0540  0.0429  0.4350
14923TIP3    H166260   3.693   4.865  16.427 -0.8092  0.9622  0.6986
14923TIP3    H266261   3.563   4.820  16.490 -0.0454  0.7851  2.1954
14924TIP3   OH266262   1.420   1.539  12.252  0.2939 -0.1931 -0.4499
14924TIP3    H166263   1.330   1.569  12.242 -0.1783  0.1485  3.2115
14924TIP3    H266264   1.460   1.551  12.166 -3.0690 -0.2197 -2.1810
14925TIP3   OH266265   1.706   6.271   2.204  0.4800 -0.3360 -0.6324
14925TIP3    H166266   1.668   6.357   2.187 -1.2011 -0.9957 -0.4019
14925TIP3    H266267   1.714   6.231   2.118  0.5257 -0.2467 -0.6698
14926TIP3   OH266268   0.003   3.749  13.701  0.1857  0.2246 -0.4839
14926TIP3    H166269   0.077   3.723  13.646  1.3261  0.6021  0.8016
14926TIP3    H266270   0.030   3.726  13.790 -0.4609  2.0055  0.2325
14927TIP3   OH266271   0.746   6.143  16.953  0.5675 -0.0631 -0.6813
14927TIP3    H166272   0.804   6.191  17.012  0.8637  0.1721 -1.1555
14927TIP3    H266273   0.716   6.068  17.004  0.0666  0.6414  0.0872
14928TIP3   OH266274   6.790   2.813  13.578  0.3176  0.4136 -0.0832
14928TIP3    H166275   6.732   2.759  13.631 -0.0807  1.6459  0.7746
14928TIP3    H266276   6.877   2.777  13.595  0.0631  0.0543  0.5008
14929TIP3   OH266277   5.466   4.311   2.234  0.1803 -0.1109  0.3308
14929TIP3    H166278   5.425   4.324   2.320 -3.1823 -1.8967 -0.8219
14929TIP3    H266279   5.459   4.397   2.191  0.9054  0.5083  1.3905
14930TIP3   OH266280   2.417   2.579   4.803 -0.3319 -0.2072  0.3497
14930TIP3    H166281   2.355   2.510   4.826 -0.7470 -0.2671 -0.9123
14930TIP3    H266282   2.476   2.538   4.739  0.5547  0.0749  0.9652
14931TIP3   OH266283   4.267   1.175   3.712  0.3220 -0.3648 -0.4057
14931TIP3    H166284   4.266   1.262   3.672 -0.3488 -0.2497 -0.1521
14931TIP3    H266285   4.249   1.191   3.805 -0.5660 -0.8375 -0.4898
14932TIP3   OH266286   3.144   0.166   5.929 -0.4347  0.2778 -0.1017
14932TIP3    H166287   3.146   0.239   5.991 -0.9550 -0.8852  1.3447
14932TIP3    H266288   3.218   0.182   5.871  1.2930  0.4474  1.9981
14933TIP3   OH266289   3.190   2.948   2.541  0.4934 -0.2775  0.0237
14933TIP3    H166290   3.114   2.994   2.576 -0.9973 -0.2965 -2.8738
14933TIP3    H266291   3.158   2.861   2.519  1.2521 -0.2131 -1.4710
14934TIP3   OH266292   1.293   1.148   2.589  0.2344  0.4209 -0.7632
14934TIP3    H166293   1.359   1.210   2.623  0.3133 -0.3195  0.4969
14934TIP3    H266294   1.338   1.064   2.589 -1.1801 -0.4635  1.8735
14935TIP3   OH266295   5.089   3.823  11.361  0.0627 -0.1129 -0.1937
14935TIP3    H166296   5.075   3.842  11.454  0.4101  1.4515 -0.4373
14935TIP3    H266297   5.173   3.863  11.340  0.5395 -1.4357 -0.9350
14936TIP3   OH266298   3.230   3.605   1.616 -0.1367  0.6965 -0.4315
14936TIP3    H166299   3.211   3.698   1.608  0.1759  0.6193 -2.7673
14936TIP3    H266300   3.326   3.600   1.614  0.0088  0.4479  2.4381
14937TIP3   OH266301   4.400   6.353   3.067  0.2760  0.6110 -0.5866
14937TIP3    H166302   4.361   6.439   3.080  1.4604  1.1507 -0.4247
14937TIP3    H266303   4.480   6.370   3.016  0.4305 -0.4088 -0.7118
14938TIP3   OH266304   2.085   4.547  16.718 -0.5921 -0.1723 -0.3396
14938TIP3    H166305   2.168   4.516  16.682  0.2017 -0.8343  1.8901
14938TIP3    H266306   2.108   4.583  16.803 -2.2273  2.2253 -0.8131
14939TIP3   OH266307   1.918   2.315   2.472 -0.0959 -0.0617  0.0239
14939TIP3    H166308   1.899   2.292   2.563  1.4979 -2.6855 -0.2238
14939TIP3    H266309   1.840   2.291   2.424  0.0760 -1.2942  0.3415
14940TIP3   OH266310   0.519   3.286  15.264  0.4633 -0.2228 -0.6520
14940TIP3    H166311   0.582   3.307  15.332 -0.2999  1.4341 -0.3917
14940TIP3    H266312   0.516   3.365  15.210 -1.1141 -0.3920 -0.8563
14941TIP3   OH266313   3.409   0.603   1.972 -0.1288 -0.1752 -0.4051
14941TIP3    H166314   3.320   0.613   2.004  0.2049 -0.7904  0.7817
14941TIP3    H266315   3.404   0.534   1.906 -0.4921 -0.3552 -0.1875
14942TIP3   OH266316   0.654   4.506  15.508 -0.1376 -0.2089 -0.2138
14942TIP3    H166317   0.724   4.464  15.558 -0.6436  1.2984  1.8433
14942TIP3    H266318   0.699   4.549  15.436  1.2469  1.5694  1.6169
14943TIP3   OH266319   4.580   4.307  16.772  0.3290  0.2040 -0.1060
14943TIP3    H166320   4.655   4.366  16.776 -0.0009  0.5703  1.2070
14943TIP3    H266321   4.588   4.252  16.850 -1.9403  1.7680  1.3689
14944TIP3   OH266322   2.649   6.407  13.742 -0.4126 -0.0080 -0.3309
14944TIP3    H166323   2.700   6.326  13.730 -1.5764 -0.5005 -2.8493
14944TIP3    H266324   2.705   6.476  13.705 -0.9191 -0.3260 -1.7728
14945TIP3   OH266325   4.173   0.493  15.035  0.8599 -0.9077 -0.6131
14945TIP3    H166326   4.262   0.514  15.063  0.5823  0.6485 -0.7974
14945TIP3    H266327   4.131   0.457  15.114  1.3236 -0.5926 -0.2181
14946TIP3   OH266328   1.896   2.998  14.494 -0.0745  0.4455 -0.4401
14946TIP3    H166329   1.839   2.921  14.488  1.1635 -0.5950  0.6625
14946TIP3    H266330   1.870   3.041  14.575  0.2561  0.3275 -0.2685
14947TIP3   OH266331   5.456   5.887   3.264  0.4277 -0.5109  0.1732
14947TIP3    H166332   5.453   5.791   3.260  0.3870 -0.4919 -0.4741
14947TIP3    H266333   5.476   5.913   3.174 -0.1383  0.1091  0.2202
14948TIP3   OH266334   3.720   3.974  11.483  0.3407 -0.2439  0.2902
14948TIP3    H166335   3.737   3.994  11.575  2.4702 -0.7375  0.0428
14948TIP3    H266336   3.682   4.054  11.448  1.3995  0.6494  1.1259
14949TIP3   OH266337   0.728   5.368   4.192  0.2100  0.2493  0.2664
14949TIP3    H166338   0.778   5.318   4.127 -0.0075 -1.8999  1.6487
14949TIP3    H266339   0.637   5.342   4.177 -0.1111  1.4923 -0.0081
14950TIP3   OH266340   3.751   5.063  15.014 -0.3359 -0.2021 -0.2641
14950TIP3    H166341   3.684   5.123  14.980  0.0965 -0.6370 -2.0287
14950TIP3    H266342   3.810   5.050  14.940  2.6007  1.3464  1.6322
14951TIP3   OH266343   0.910   4.584  10.813  0.3091  0.4730  0.1683
14951TIP3    H166344   0.897   4.630  10.729 -0.3964  0.0441  0.0326
14951TIP3    H266345   0.852   4.629  10.874  1.5424  1.4132  0.6863
14952TIP3   OH266346   2.558   2.239   3.418 -0.2787  0.1852  0.5670
14952TIP3    H166347   2.615   2.247   3.495 -0.5115 -0.1086  0.7698
14952TIP3    H266348   2.535   2.146   3.414 -0.3355  0.2129  0.1891
14953TIP3   OH266349   6.391   2.084   0.370 -0.2502  0.0155 -0.2176
14953TIP3    H166350   6.410   2.178   0.366 -1.7707  0.4104  0.7750
14953TIP3    H266351   6.367   2.069   0.461 -1.7332 -0.9637 -0.7308
14954TIP3   OH266352   3.405   0.808  16.619  0.0449 -0.0863 -0.2800
14954TIP3    H166353   3.408   0.903  16.623  2.1808 -0.1420  1.3468
14954TIP3    H266354   3.312   0.787  16.609 -0.7061  2.0997  1.3525
14955TIP3   OH266355   2.131   1.129  16.594 -0.0951  0.1279  0.0894
14955TIP3    H166356   2.052   1.175  16.621  0.1848  0.2227  0.7677
14955TIP3    H266357   2.160   1.082  16.672 -0.2001 -0.9522 -0.5047
14956TIP3   OH266358   1.163   1.149   0.132  0.4060  0.0478  0.1932
14956TIP3    H166359   1.152   1.146   0.227  0.1137  0.5510  0.1781
14956TIP3    H266360   1.137   1.062   0.102 -0.2043  0.1248  0.4980
14957TIP3   OH266361   2.222   1.391   0.425 -0.5527  0.2812  0.0265
14957TIP3    H166362   2.288   1.444   0.381  1.0608  0.1271  2.1559
14957TIP3    H266363   2.249   1.301   0.409 -0.4535  0.2080  0.5996
14958TIP3   OH266364   2.245   2.427   2.399 -0.3112 -0.3860 -0.1878
14958TIP3    H166365   2.262   2.341   2.359  1.3809 -0.0943 -0.1860
14958TIP3    H266366   2.304   2.430   2.474 -0.4995  0.7065 -0.0707
14959TIP3   OH266367   5.239   2.312  14.800 -0.2107 -0.1441  0.2418
14959TIP3    H166368   5.204   2.389  14.756 -0.2849  0.3931  1.2178
14959TIP3    H266369   5.230   2.331  14.893 -0.9314 -1.6474  0.5107
14960TIP3   OH266370   0.748   1.080   3.932  0.7545 -0.6508  0.6742
14960TIP3    H166371   0.821   1.031   3.969  0.8651 -1.4799 -0.5954
14960TIP3    H266372   0.675   1.019   3.933  0.8342 -0.7843 -0.7098
14961TIP3   OH266373   2.838   1.251  12.869  0.1481  0.2645 -0.7826
14961TIP3    H166374   2.777   1.226  12.939 -0.9096  0.6224 -1.5470
14961TIP3    H266375   2.878   1.332  12.900  1.2443 -0.6714  0.3154
14962TIP3   OH266376   4.933   1.240  15.704  0.3092  0.4230  0.6766
14962TIP3    H166377   4.861   1.178  15.715  1.0998 -0.1645  3.2876
14962TIP3    H266378   4.890   1.323  15.685 -0.7985 -0.7009 -2.1274
14963TIP3   OH266379   6.345   4.779   3.740 -0.4736  0.1022 -0.4228
14963TIP3    H166380   6.325   4.828   3.819  0.4252 -0.5502  0.2218
14963TIP3    H266381   6.345   4.688   3.767  1.7874 -0.0242 -0.7148
14964TIP3   OH266382   0.362   2.189   5.821  0.3977  0.2494 -0.1966
14964TIP3    H166383   0.318   2.188   5.906  0.2376  2.5012 -0.1941
14964TIP3    H266384   0.301   2.145   5.762 -1.0074  1.5689  0.2150
14965TIP3   OH266385   0.576   3.252   1.439  0.0470 -0.0418 -0.0035
14965TIP3    H166386   0.651   3.205   1.404  0.3509  0.2396  0.2578
14965TIP3    H266387   0.606   3.343   1.447 -0.0281 -0.0865  0.9269
14966TIP3   OH266388   6.020   3.178  14.255 -0.2454  0.5556  0.1269
14966TIP3    H166389   5.990   3.187  14.165  0.9839 -0.7644 -0.4611
14966TIP3    H266390   6.015   3.084  14.273 -1.6673  0.9014  1.9015
14967TIP3   OH266391   4.080   0.421   4.063  0.3589  0.3499 -0.3919
14967TIP3    H166392   4.128   0.382   3.990  1.4662  0.7734  0.0945
14967TIP3    H266393   4.147   0.439   4.129 -0.4238  1.2595  0.1746
14968TIP3   OH266394   2.721   4.004   6.190  0.0448 -0.4701 -0.2567
14968TIP3    H166395   2.660   3.976   6.122 -0.7409  0.1969  0.1593
14968TIP3    H266396   2.690   3.959   6.269  0.3540 -0.4692 -0.1338
14969TIP3   OH266397   3.090   1.852  13.089 -0.2826  0.4617 -0.6717
14969TIP3    H166398   3.050   1.805  13.163  0.4570 -0.5527 -0.9005
14969TIP3    H266399   3.102   1.785  13.022  0.4942  1.0503 -1.1350
14970TIP3   OH266400   4.242   2.885   0.648  0.6840  0.2436 -0.3667
14970TIP3    H166401   4.250   2.888   0.553 -0.8708 -0.3525 -0.5405
14970TIP3    H266402   4.208   2.971   0.673 -0.9243 -0.2915 -0.6008
14971TIP3   OH266403   2.277   0.731   0.872 -0.7110 -0.1555 -0.4347
14971TIP3    H166404   2.336   0.761   0.803 -0.9798 -1.3537 -1.2336
14971TIP3    H266405   2.234   0.810   0.904  0.0234  0.5177 -1.0842
14972TIP3   OH266406   5.138   6.553   2.145  0.0963  0.0632 -0.0834
14972TIP3    H166407   5.167   6.488   2.208 -1.4973 -0.6765 -0.0510
14972TIP3    H266408   5.151   6.637   2.188  0.1054 -0.3752  0.7731
14973TIP3   OH266409   5.023   5.802  15.043  0.1973  0.1207 -0.1961
14973TIP3    H166410   4.956   5.858  15.003 -0.0503 -0.6888 -0.9645
14973TIP3    H266411   4.980   5.717  15.052  0.2765  0.2477  1.7752
14974TIP3   OH266412   4.277   2.191  11.672 -0.0869 -0.5067 -0.1923
14974TIP3    H166413   4.222   2.129  11.720  0.7356 -1.2127 -0.1395
14974TIP3    H266414   4.305   2.254  11.738 -1.0207  0.0018 -0.2679
14975TIP3   OH266415   2.274   2.507  13.008 -0.5305 -0.7884  0.1941
14975TIP3    H166416   2.197   2.527  12.954 -0.3823 -0.3649  0.1344
14975TIP3    H266417   2.293   2.589  13.054  0.7775 -0.4110 -0.9258
14976TIP3   OH266418   0.226   5.169   5.812  0.6052  0.0964  0.3798
14976TIP3    H166419   0.203   5.085   5.851  2.8207 -0.7680 -0.0115
14976TIP3    H266420   0.272   5.216   5.881  0.9545  0.2350  0.0582
14977TIP3   OH266421   5.116   0.369  11.944  0.2550 -0.2337  0.4498
14977TIP3    H166422   5.190   0.339  11.996  0.6988  1.2063  0.7118
14977TIP3    H266423   5.042   0.368  12.005  1.2026  3.6536  2.0165
14978TIP3   OH266424   4.612   1.483  11.912  0.1818  0.4334  0.5689
14978TIP3    H166425   4.578   1.482  12.002 -0.4179 -0.9992  0.3464
14978TIP3    H266426   4.555   1.424  11.864  1.3183  0.1261 -0.4548
14979TIP3   OH266427   0.120   2.226   5.400  0.4146  0.1105 -0.2643
14979TIP3    H166428   0.168   2.303   5.430 -0.0437  0.4255 -0.3238
14979TIP3    H266429   0.187   2.165   5.372  0.9511 -0.6264  2.3493
14980TIP3   OH266430   3.802   1.349   6.446 -0.3022 -0.0934 -0.7909
14980TIP3    H166431   3.716   1.375   6.479  0.7714  1.1634  1.2045
14980TIP3    H266432   3.818   1.406   6.372 -0.6620  0.5681 -0.3639
14981TIP3   OH266433   0.672   5.024   4.630 -0.1373 -0.1915  0.0225
14981TIP3    H166434   0.629   5.109   4.619 -2.0693 -1.2477 -1.1791
14981TIP3    H266435   0.762   5.046   4.652 -1.0261  2.1798  1.8735
14982TIP3   OH266436   5.347   0.187   5.448  0.2065 -0.0804 -0.0863
14982TIP3    H166437   5.398   0.129   5.505  2.0177  1.6975  0.2332
14982TIP3    H266438   5.410   0.253   5.418 -1.2586  0.4980 -2.1694
14983TIP3   OH266439   2.423   2.023  16.706 -0.1388 -0.2174 -0.1035
14983TIP3    H166440   2.517   2.016  16.697 -0.3035 -1.2847 -1.1081
14983TIP3    H266441   2.391   1.933  16.700 -1.4261  0.3198 -2.3515
14984TIP3   OH266442   4.737   2.087  13.663 -0.3568  0.1487  0.7591
14984TIP3    H166443   4.719   2.172  13.624  1.3240  0.6625  1.0268
14984TIP3    H266444   4.668   2.076  13.728 -1.2450  0.7851 -0.0408
14985TIP3   OH266445   0.115   5.658  10.769 -0.1011  0.0365 -0.3664
14985TIP3    H166446   0.110   5.714  10.692  1.6008  0.6979 -0.0303
14985TIP3    H266447   0.200   5.677  10.808 -1.4772  0.7892  2.5199
14986TIP3   OH266448   6.637   4.229   3.762  0.6744 -0.1308 -0.0871
14986TIP3    H166449   6.588   4.296   3.809  0.0748  0.6505 -1.7412
14986TIP3    H266450   6.715   4.214   3.815  0.2918  1.0993  0.8594
14987TIP3   OH266451   5.367   1.005  14.988 -0.1201 -0.1957  0.0731
14987TIP3    H166452   5.424   1.073  14.952 -0.1238  0.1728  0.7524
14987TIP3    H266453   5.278   1.034  14.968 -0.0871 -0.8469 -1.1234
14988TIP3   OH266454   0.385   3.177  16.796 -0.3143 -0.3564 -0.0056
14988TIP3    H166455   0.469   3.190  16.841  0.0439 -0.7651 -0.5457
14988TIP3    H266456   0.350   3.266  16.786  1.2456  0.1043 -2.0190
14989TIP3   OH266457   4.023   3.164   4.423 -0.3358 -0.2257  0.0160
14989TIP3    H166458   3.998   3.189   4.512 -3.7396  0.0932 -0.8816
14989TIP3    H266459   4.032   3.247   4.376 -1.8623 -0.4124 -0.6619
14990TIP3   OH266460   5.528   3.488   2.282  0.2573 -0.0427 -0.2683
14990TIP3    H166461   5.539   3.483   2.377 -0.6050 -1.5577 -0.2222
14990TIP3    H266462   5.615   3.512   2.250  0.5723  0.4683  0.8773
14991TIP3   OH266463   5.033   3.570  13.469 -0.1323  0.8060 -0.1719
14991TIP3    H166464   5.025   3.635  13.540 -1.7168  0.6606 -0.1924
14991TIP3    H266465   5.010   3.487  13.510  1.6393  0.2370 -0.2130
14992TIP3   OH266466   1.112   5.288  17.058  0.4668 -0.3028  0.0638
14992TIP3    H166467   1.022   5.259  17.050 -0.1902  1.8154 -1.0776
14992TIP3    H266468   1.106   5.382  17.074  2.4583 -0.4056  1.8367
14993TIP3   OH266469   3.015   2.333  12.363 -0.3509 -0.6687 -0.1848
14993TIP3    H166470   3.057   2.375  12.287  0.5346 -2.3333 -0.6593
14993TIP3    H266471   2.947   2.395  12.389 -0.9535 -0.2064 -2.5795
14994TIP3   OH266472   2.689   6.816   1.097  0.0864 -0.0518  0.1162
14994TIP3    H166473   2.742   6.808   1.018  1.3839  2.7820  0.5885
14994TIP3    H266474   2.741   6.775   1.165  0.4613  0.3860  0.0944
14995TIP3   OH266475   6.064   4.556   4.501  0.0421 -0.1889  0.2731
14995TIP3    H166476   6.055   4.508   4.418  3.3652  0.8845 -0.8724
14995TIP3    H266477   6.057   4.648   4.476 -0.0806  0.1183  1.3938
14996TIP3   OH266478   0.007   3.415  16.838  0.3251 -0.3811 -0.0926
14996TIP3    H166479  -0.059   3.349  16.818  0.4693 -0.5025 -0.1751
14996TIP3    H266480   0.082   3.364  16.869  0.9287 -0.3647 -1.4656
14997TIP3   OH266481   3.261   6.274  12.466  0.2948  0.1115 -0.1751
14997TIP3    H166482   3.186   6.303  12.518  0.0269 -0.2425 -0.3656
14997TIP3    H266483   3.300   6.356  12.433  0.4637  0.3408  0.5717
14998TIP3   OH266484   2.517   5.813   5.973  0.4738 -0.3198  0.3592
14998TIP3    H166485   2.595   5.857   6.005  0.1662 -0.0572  0.7615
14998TIP3    H266486   2.458   5.812   6.048  0.0588 -0.4415  0.0358
14999TIP3   OH266487   2.706   0.604  11.513 -0.5578  0.2084 -0.2369
14999TIP3    H166488   2.667   0.519  11.491 -1.5011  0.8247 -1.0763
14999TIP3    H266489   2.646   0.641  11.577  0.8656 -0.5227  1.6080
15000TIP3   OH266490   4.572   1.221   1.909  0.1211  0.8917 -0.6500
15000TIP3    H166491   4.646   1.167   1.937 -0.1012  1.1698  0.5371
15000TIP3    H266492   4.557   1.281   1.982 -2.8266 -0.7644  0.2631
15001TIP3   OH266493   4.122   2.456  14.222  0.1446  0.2132  0.6114
15001TIP3    H166494   4.131   2.490  14.133 -0.7641 -0.0619  0.4037
15001TIP3    H266495   4.034   2.419  14.225 -1.1631  3.0909  2.5787
15002TIP3   OH266496   0.342   1.684  14.481  0.2682  0.1430  0.0994
15002TIP3    H166497   0.382   1.758  14.435 -1.3646  0.2408 -1.2400
15002TIP3    H266498   0.417   1.630  14.507  1.3597  1.0241 -1.0516
15003TIP3   OH266499   0.845   4.335  17.078  0.4002 -0.3613 -0.1001
15003TIP3    H166500   0.930   4.376  17.062 -0.0019  0.3975 -0.3256
15003TIP3    H266501   0.809   4.383  17.153  1.0407 -2.0211  1.3349
15004TIP3   OH266502   6.015   0.140  11.511  0.7310  0.7100 -0.2758
15004TIP3    H166503   5.934   0.128  11.560  2.1172  0.6464  2.1075
15004TIP3    H266504   6.013   0.071  11.444 -1.1195  0.6881 -0.2596
15005TIP3   OH266505   3.959   0.157  12.542  0.6085  0.3808 -0.7441
15005TIP3    H166506   4.040   0.164  12.592 -0.0334 -0.7040  0.5032
15005TIP3    H266507   3.983   0.109  12.463  1.2345  0.3361 -0.5283
15006TIP3   OH266508   2.181   6.121  12.738 -0.6375  0.0199 -0.2842
15006TIP3    H166509   2.143   6.139  12.652 -1.6545  1.1155  0.3580
15006TIP3    H266510   2.105   6.106  12.794  0.0172 -0.7015  0.4238
15007TIP3   OH266511   1.471   0.630  12.731 -0.0227  0.1956 -0.2372
15007TIP3    H166512   1.460   0.704  12.671 -0.0880  0.5513  0.2094
15007TIP3    H266513   1.382   0.599  12.747 -0.3227  1.9424  1.9604
15008TIP3   OH266514   6.074   2.176  11.322  0.2956  0.6752  0.0219
15008TIP3    H166515   6.153   2.225  11.297  0.6589  0.0801 -0.0197
15008TIP3    H266516   6.026   2.164  11.240  0.8907 -0.2295 -0.2069
15009TIP3   OH266517   4.463   3.293   0.215 -0.2024  0.1394  0.0175
15009TIP3    H166518   4.508   3.376   0.231 -1.1718  1.0383 -1.6583
15009TIP3    H266519   4.376   3.305   0.254 -0.6872  0.3239 -1.0750
15010TIP3   OH266520   1.554   0.215  13.153  0.3498 -0.0005 -0.2004
15010TIP3    H166521   1.473   0.200  13.105 -0.9360  0.1910  1.7790
15010TIP3    H266522   1.530   0.278  13.221  1.9276 -0.6582  1.0294
15011TIP3   OH266523   3.893   3.354   5.433 -0.0018 -0.0944 -0.3307
15011TIP3    H166524   3.800   3.333   5.419  0.1176 -0.5860 -0.4068
15011TIP3    H266525   3.924   3.285   5.491  0.0836  0.6164  0.4802
15012TIP3   OH266526   6.253   4.184   5.144  0.2413  0.2709  0.4116
15012TIP3    H166527   6.212   4.103   5.113 -0.8056  0.4520  1.2803
15012TIP3    H266528   6.199   4.211   5.218 -0.1075  2.3661 -0.5476
15013TIP3   OH266529   1.160   0.247   3.852  0.6535 -0.3488 -0.5350
15013TIP3    H166530   1.078   0.210   3.886 -0.3410 -0.5863 -2.9439
15013TIP3    H266531   1.139   0.338   3.835  0.8146 -0.4532 -1.3244
15014TIP3   OH266532   4.816   5.352   2.675 -0.4328 -0.0901  0.5164
15014TIP3    H166533   4.823   5.418   2.607 -0.1143 -1.0730 -0.4222
15014TIP3    H266534   4.741   5.298   2.649  1.0986 -1.8905 -0.3435
15015TIP3   OH266535   6.158   0.422   5.266 -0.1033 -0.4689  0.1643
15015TIP3    H166536   6.155   0.378   5.350  0.7706 -1.3963 -0.2595
15015TIP3    H266537   6.075   0.401   5.224  0.1574 -1.4419  0.1148
15016TIP3   OH266538   4.186   6.271  12.310  0.2839 -0.3880 -0.3287
15016TIP3    H166539   4.259   6.211  12.329 -0.0666 -0.4966  0.6784
15016TIP3    H266540   4.229   6.354  12.291  0.6884 -0.5489 -0.1388
15017TIP3   OH266541   2.297   0.178  12.745 -0.6756  0.6052  0.1062
15017TIP3    H166542   2.217   0.222  12.774 -1.0446  0.1900 -0.2449
15017TIP3    H266543   2.360   0.248  12.733 -1.0379  0.9596  0.2326
15018TIP3   OH266544   0.547   1.791  13.169  0.2490  0.4647 -0.2848
15018TIP3    H166545   0.567   1.790  13.262  1.2682  0.6729 -0.4891
15018TIP3    H266546   0.535   1.699  13.145  0.8400  0.3458 -0.1222
15019TIP3   OH266547   3.261   0.768   0.805 -1.0530  0.0717  0.2379
15019TIP3    H166548   3.235   0.676   0.810  1.0515 -0.6931 -1.3866
15019TIP3    H266549   3.350   0.766   0.771 -0.5964  2.7071  1.0357
15020TIP3   OH266550   4.538   1.121  16.996 -0.5391  0.1088 -0.0368
15020TIP3    H166551   4.446   1.096  17.008 -1.1166  1.6083 -1.1147
15020TIP3    H266552   4.576   1.115  17.084 -1.8052  0.0413  0.5243
15021TIP3   OH266553   0.032   5.030   2.659 -0.2537  0.0911  0.7053
15021TIP3    H166554   0.039   5.022   2.755  0.0365  1.9382  0.8663
15021TIP3    H266555  -0.061   5.034   2.642 -0.2832  0.7500  1.0100
15022TIP3   OH266556   4.322   5.572   0.040 -0.1137  0.0103 -0.0105
15022TIP3    H166557   4.391   5.515   0.073  0.2404  0.5006  0.1045
15022TIP3    H266558   4.321   5.646   0.100 -1.1841 -0.2904  0.3728
15023TIP3   OH266559   5.871   4.600  15.920 -0.6051 -0.1784 -0.4926
15023TIP3    H166560   5.913   4.518  15.946 -1.0937  0.0769  1.2269
15023TIP3    H266561   5.930   4.668  15.952 -2.5398  0.2182  2.7190
15024TIP3   OH266562   1.020   5.189   3.284 -0.1529 -0.1627 -0.0364
15024TIP3    H166563   1.003   5.099   3.258 -0.6995  0.2592 -1.2492
15024TIP3    H266564   1.027   5.237   3.201 -0.6279  1.0397  0.5866
15025TIP3   OH266565   5.682   3.517  16.715 -0.6637 -0.0168 -0.4480
15025TIP3    H166566   5.762   3.569  16.719 -1.6258  1.6082 -1.0719
15025TIP3    H266567   5.707   3.436  16.672  0.6708  0.3893 -0.4807
15026TIP3   OH266568   5.749   2.013   5.472 -0.7018 -0.4043  0.1324
15026TIP3    H166569   5.738   2.022   5.567 -1.4872  0.5442 -0.0351
15026TIP3    H266570   5.843   2.005   5.460 -0.6451 -1.4250  1.0600
15027TIP3   OH266571   5.269   2.622  14.402  0.1047  0.3961  0.2217
15027TIP3    H166572   5.332   2.550  14.414 -1.4839 -1.3783 -1.5510
15027TIP3    H266573   5.324   2.701  14.398  2.1508 -0.9881 -0.4894
15028TIP3   OH266574   5.205   2.059   5.790 -0.5008  0.3075  0.6680
15028TIP3    H166575   5.130   2.115   5.807 -0.2798  0.7347  0.2441
15028TIP3    H266576   5.267   2.114   5.743 -0.2046 -0.2391  0.4027
15029TIP3   OH266577   3.464   3.174  15.473 -0.7063  0.3557  0.7351
15029TIP3    H166578   3.501   3.154  15.558 -0.5473  1.3788  0.9228
15029TIP3    H266579   3.377   3.210  15.492 -0.6317  0.6797  0.4742
15030TIP3   OH266580   5.951   4.867   3.850  0.8724  0.1112  0.9000
15030TIP3    H166581   6.009   4.941   3.833 -2.0367  2.1281 -1.3183
15030TIP3    H266582   5.879   4.904   3.902 -2.4640  0.0494 -3.1309
15031TIP3   OH266583   4.823   1.152   2.133  0.1531 -0.4050  0.9461
15031TIP3    H166584   4.894   1.109   2.182 -0.6927 -0.8085  1.8444
15031TIP3    H266585   4.867   1.190   2.057  1.1688 -1.6197  0.8827
15032TIP3   OH266586   0.876   6.110   4.340 -0.5062 -0.0410 -0.0254
15032TIP3    H166587   0.859   6.203   4.359 -1.7440 -0.6294  2.1253
15032TIP3    H266588   0.958   6.092   4.385 -0.2773  0.0055 -0.4252
15033TIP3   OH266589   6.352   4.237  10.514 -0.2247  0.2037  0.2098
15033TIP3    H166590   6.286   4.208  10.451  1.0456 -2.2688 -0.0898
15033TIP3    H266591   6.369   4.328  10.490 -1.4351  0.0095 -1.5556
15034TIP3   OH266592   2.349   4.169   4.253 -0.3809 -0.1151 -0.2830
15034TIP3    H166593   2.298   4.156   4.173  0.6231  0.9433 -1.1206
15034TIP3    H266594   2.415   4.100   4.251  1.7657  1.8189 -2.1544
15035TIP3   OH266595   4.957   2.795   5.434 -0.0340  0.3508 -0.2183
15035TIP3    H166596   4.892   2.764   5.497  0.4995 -3.3596 -1.2510
15035TIP3    H266597   4.908   2.802   5.351  0.4324 -0.4623 -0.5709
15036TIP3   OH266598   0.255   2.915  14.445 -0.3278 -0.2270  0.8582
15036TIP3    H166599   0.239   2.822  14.461  0.3446 -0.6638 -0.8259
15036TIP3    H266600   0.314   2.942  14.515 -0.4878 -1.0810  1.3346
15037TIP3   OH266601   4.863   3.598   3.792 -0.2271  0.4201 -0.1237
15037TIP3    H166602   4.799   3.668   3.802 -0.5851  0.1746 -0.6871
15037TIP3    H266603   4.885   3.572   3.881  1.5492  2.7303  0.2175
15038TIP3   OH266604   6.588   2.535  13.572  0.0685 -0.2163 -0.1822
15038TIP3    H166605   6.602   2.444  13.544  0.3212 -0.1012 -0.4325
15038TIP3    H266606   6.497   2.553  13.548 -0.7850 -1.1668  2.0143
15039TIP3   OH266607   5.026   2.475   3.667  0.5953  0.2379  0.1715
15039TIP3    H166608   4.971   2.410   3.623 -0.8149  0.7336  1.1360
15039TIP3    H266609   4.998   2.473   3.759  0.2228  2.4369  0.1809
15040TIP3   OH266610   6.126   4.141   0.071 -0.2182 -0.4146 -0.1084
15040TIP3    H166611   6.144   4.233   0.051  1.3215 -0.6215  0.2216
15040TIP3    H266612   6.133   4.096  -0.013  0.5883 -0.4458 -0.0341
15041TIP3   OH266613   1.650   2.633   4.043  0.1651 -0.0185 -0.3203
15041TIP3    H166614   1.654   2.728   4.057  2.2909  0.0841 -1.2376
15041TIP3    H266615   1.704   2.596   4.113 -1.0817 -0.6125  0.3479
15042TIP3   OH266616   2.377   2.657  16.654  0.5333  0.3568  0.0994
15042TIP3    H166617   2.366   2.667  16.749  0.4015  0.2468  0.0962
15042TIP3    H266618   2.439   2.726  16.630 -1.8100  2.5138 -0.2400
15043TIP3   OH266619   3.307   0.769   0.375  0.1641  0.4327 -0.3871
15043TIP3    H166620   3.318   0.740   0.284  0.9350  3.2859 -1.3279
15043TIP3    H266621   3.347   0.700   0.427 -1.2676 -1.8348 -2.0703
15044TIP3   OH266622   2.222   2.807   0.569 -0.0624  0.5236  0.3010
15044TIP3    H166623   2.193   2.816   0.478  1.4259  0.5528 -0.2036
15044TIP3    H266624   2.310   2.770   0.562  0.2897  1.0468  1.7105
15045TIP3   OH266625   2.492   2.667  12.829  0.1227 -0.8330  0.6114
15045TIP3    H166626   2.585   2.677  12.850  0.6465 -2.1630 -0.9346
15045TIP3    H266627   2.456   2.755  12.839  1.4566 -0.3576  1.5619
15046TIP3   OH266628   2.584   4.138  11.755 -0.1806 -0.2752 -0.2651
15046TIP3    H166629   2.619   4.222  11.786 -0.1318  0.2667 -1.6655
15046TIP3    H266630   2.657   4.098  11.707 -0.5781 -0.5227 -0.6757
15047TIP3   OH266631   4.873   4.502  16.533  0.0019  0.5100 -0.0909
15047TIP3    H166632   4.799   4.558  16.507 -0.2916 -0.0713 -0.5403
15047TIP3    H266633   4.860   4.422  16.483  1.5917  0.8324 -1.1024
15048TIP3   OH266634   6.247   3.728   2.729  0.1222 -0.4347  0.1343
15048TIP3    H166635   6.325   3.774   2.699  1.3248 -1.4476  1.6015
15048TIP3    H266636   6.236   3.757   2.820 -0.3345 -1.4243  0.4049
15049TIP3   OH266637   2.774   0.840  12.820 -0.5027  0.4164 -0.2318
15049TIP3    H166638   2.688   0.807  12.848  0.3499 -1.3333  0.5014
15049TIP3    H266639   2.793   0.792  12.739 -0.1242  0.6147 -0.2614
15050TIP3   OH266640   1.936   6.346  11.947 -0.3173 -0.0337 -0.6568
15050TIP3    H166641   1.867   6.303  11.897 -1.0467  0.3886 -0.0348
15050TIP3    H266642   1.890   6.409  12.003  0.4271 -0.7122  0.7864
15051TIP3   OH266643   4.375   3.142  17.072 -0.0772 -0.2244  0.4057
15051TIP3    H166644   4.332   3.076  17.127 -0.4322  0.1063  0.5268
15051TIP3    H266645   4.426   3.195  17.133 -0.5708  0.2210  0.4427
15052TIP3   OH266646   3.146   2.054   4.033  0.0387  0.7019  0.0581
15052TIP3    H166647   3.200   1.975   4.036 -2.1739 -0.9128  0.5515
15052TIP3    H266648   3.137   2.081   4.124 -0.7979  0.3183  0.1011
15053TIP3   OH266649   1.181   3.441   1.711  0.5066 -0.6723 -0.1884
15053TIP3    H166650   1.205   3.388   1.787  0.8464 -0.5459 -0.2043
15053TIP3    H266651   1.125   3.385   1.658 -2.7827  0.3622  1.8985
15054TIP3   OH266652   6.693   5.149  12.656  0.1333 -0.1138 -0.1588
15054TIP3    H166653   6.753   5.221  12.637 -1.4071  0.5538 -2.9673
15054TIP3    H266654   6.738   5.071  12.621  1.3429 -0.4528  1.9707
15055TIP3   OH266655   6.794   0.805   6.582  0.0600 -0.3887 -0.0215
15055TIP3    H166656   6.805   0.875   6.646  0.9028 -0.8678  0.3846
15055TIP3    H266657   6.880   0.797   6.541  0.5908 -2.4362  1.2887
15056TIP3   OH266658   2.499   5.705  12.159  0.1306 -0.3134  0.4100
15056TIP3    H166659   2.521   5.616  12.188 -0.4581 -0.7954 -0.5584
15056TIP3    H266660   2.414   5.722  12.198 -0.1401 -0.5132 -0.0847
15057TIP3   OH266661   1.113   4.850  11.544 -0.7992 -0.3390 -0.3773
15057TIP3    H166662   1.157   4.878  11.463 -3.3284  3.5728 -0.6429
15057TIP3    H266663   1.167   4.887  11.614 -1.5398  1.1360 -0.5553
15058TIP3   OH266664   4.546   4.861   0.940  0.2587  0.2649  0.1076
15058TIP3    H166665   4.626   4.913   0.954  0.4246 -0.1328  0.6575
15058TIP3    H266666   4.575   4.770   0.945 -0.1100  0.1135 -0.4176
15059TIP3   OH266667   1.804   4.258   2.053 -0.4216  0.3104 -0.3847
15059TIP3    H166668   1.806   4.220   1.965  0.0701  1.0858 -0.7159
15059TIP3    H266669   1.890   4.299   2.064  0.0090 -0.8657  0.9560
15060TIP3   OH266670   5.415   6.402   1.890  0.4790  0.0029  0.0749
15060TIP3    H166671   5.362   6.476   1.861 -0.0433 -0.5887 -0.5288
15060TIP3    H266672   5.371   6.371   1.969 -0.6846 -1.0733 -0.9398
15061TIP3   OH266673   0.926   0.395   2.433  0.8928  0.3684  0.3044
15061TIP3    H166674   0.942   0.476   2.385  0.9812 -0.8859 -1.9344
15061TIP3    H266675   0.911   0.423   2.523  2.2635  2.7418 -0.1149
15062TIP3   OH266676   1.228   0.265   6.157  0.1754  0.3154 -0.1105
15062TIP3    H166677   1.221   0.204   6.231 -0.2175  0.4949 -0.0004
15062TIP3    H266678   1.151   0.321   6.164  0.2103  0.4257 -0.5766
15063TIP3   OH266679   1.242   2.598   0.619 -0.5607 -0.1825  0.7580
15063TIP3    H166680   1.154   2.582   0.584 -0.7787  0.9787  0.7224
15063TIP3    H266681   1.227   2.624   0.710 -0.3765  1.0716  0.4610
15064TIP3   OH266682   3.839   1.289  12.376 -0.3456 -0.1945  0.6582
15064TIP3    H166683   3.891   1.252  12.448  1.3144 -0.4339 -0.5973
15064TIP3    H266684   3.850   1.383  12.385  0.5013 -0.2454  0.3082
15065TIP3   OH266685   2.611   1.855   1.030  0.3695  0.3525 -0.2777
15065TIP3    H166686   2.613   1.780   1.089 -0.3687 -0.6829 -1.5336
15065TIP3    H266687   2.632   1.819   0.944 -1.1812  1.3605 -1.1213
15066TIP3   OH266688   5.482   6.800   6.652  0.0409 -0.1764  0.2625
15066TIP3    H166689   5.566   6.764   6.677 -0.4248 -1.7886 -0.3880
15066TIP3    H266690   5.459   6.756   6.570 -0.5015  1.7405 -0.6922
15067TIP3   OH266691   3.929   1.492  14.455  0.4554 -0.4836 -0.3656
15067TIP3    H166692   3.857   1.463  14.399  0.8463 -0.9819 -0.6166
15067TIP3    H266693   4.004   1.440  14.426  0.9784  0.2185 -0.2842
15068TIP3   OH266694   4.105   5.704   2.206 -0.0917  0.0397  0.3933
15068TIP3    H166695   4.067   5.617   2.213 -2.5133  0.9498 -0.4734
15068TIP3    H266696   4.151   5.702   2.122 -0.3555 -0.3300  0.2516
15069TIP3   OH266697   1.270   6.376  16.084 -0.6505 -0.1911  0.0589
15069TIP3    H166698   1.188   6.398  16.128  0.3128 -1.0969  2.5060
15069TIP3    H266699   1.276   6.281  16.091 -0.1290 -0.3020 -1.5591
15070TIP3   OH266700   3.007   1.189  15.253 -0.0090 -0.5587 -0.2347
15070TIP3    H166701   3.065   1.212  15.181 -0.2182  1.2005  0.1088
15070TIP3    H266702   2.943   1.261  15.257  0.2473 -0.3667  1.9388
15071TIP3   OH266703   4.214   6.737   3.565 -0.4447  0.4745 -0.4278
15071TIP3    H166704   4.188   6.770   3.478 -0.7860  0.9407 -0.1574
15071TIP3    H266705   4.146   6.674   3.587 -0.7346  0.8565 -0.2116
15072TIP3   OH266706   6.687   1.356  16.097 -0.0900  0.1323  0.3431
15072TIP3    H166707   6.739   1.302  16.038  0.8298  1.0324  0.2930
15072TIP3    H266708   6.618   1.394  16.041 -1.6076 -2.0104  0.6523
15073TIP3   OH266709   2.847   6.801   0.873 -0.2068 -0.3665  0.4487
15073TIP3    H166710   2.939   6.780   0.860 -0.1923 -1.2020  1.7155
15073TIP3    H266711   2.834   6.883   0.825  0.9162 -0.7909 -0.6415
15074TIP3   OH266712   1.734   2.768  13.435  0.7132 -0.7117 -0.1209
15074TIP3    H166713   1.733   2.825  13.357 -0.4925 -0.0454  0.3449
15074TIP3    H266714   1.789   2.814  13.498 -0.6386  0.2404  0.4253
15075TIP3   OH266715   1.769   0.669   0.754 -0.5947 -0.2547  0.0751
15075TIP3    H166716   1.769   0.764   0.743 -1.0182 -0.0282  1.7400
15075TIP3    H266717   1.859   0.648   0.780 -0.2218 -0.4724 -1.3168
15076TIP3   OH266718   0.749   0.833   5.855  0.8947 -0.5776 -0.7054
15076TIP3    H166719   0.839   0.816   5.826  1.2395 -1.8566  0.9764
15076TIP3    H266720   0.759   0.880   5.937  0.0301 -0.9788 -0.3595
15077TIP3   OH266721   5.982   3.343   2.148 -0.2896  0.8265  0.4994
15077TIP3    H166722   5.913   3.378   2.203 -1.5176  1.7452 -1.5222
15077TIP3    H266723   5.937   3.285   2.086  1.0670 -0.3842  0.5883
15078TIP3   OH266724   5.284   5.979  13.714 -0.2018 -0.3767 -0.4830
15078TIP3    H166725   5.372   6.014  13.698  0.2036 -0.8864  0.5565
15078TIP3    H266726   5.288   5.888  13.685  0.1470 -0.9109  1.1222
15079TIP3   OH266727   6.686   0.896  14.133  0.1023 -0.0339  0.1364
15079TIP3    H166728   6.752   0.962  14.113  0.4793 -0.3113  0.4571
15079TIP3    H266729   6.653   0.920  14.220  2.2031 -1.7978  1.5466
15080TIP3   OH266730   1.976   1.684   3.325 -0.2907  0.4088  0.5024
15080TIP3    H166731   1.941   1.757   3.375 -1.2856 -0.6367  1.3791
15080TIP3    H266732   1.910   1.667   3.257  0.3769  0.9019 -0.2900
15081TIP3   OH266733   4.989   5.663  15.764  0.2127 -0.7920 -0.4313
15081TIP3    H166734   4.916   5.692  15.819  1.5042  0.2648  0.8167
15081TIP3    H266735   4.969   5.697  15.677  0.7233  2.3093  0.5618
15082TIP3   OH266736   0.722   5.897  14.830  0.3694 -0.2847  0.0794
15082TIP3    H166737   0.777   5.819  14.840  1.4946  0.4187 -0.3173
15082TIP3    H266738   0.757   5.959  14.894 -1.4219 -0.5627  1.3826
15083TIP3   OH266739   6.583   2.679  16.708 -0.4287  0.4778  0.0277
15083TIP3    H166740   6.564   2.639  16.793 -1.4505  0.4076 -0.2281
15083TIP3    H266741   6.598   2.604  16.650  0.6271  0.5283  0.2055
15084TIP3   OH266742   1.117   3.874  13.897  0.2451 -0.1306 -0.0934
15084TIP3    H166743   1.144   3.881  13.806 -2.0147 -1.7364 -0.9820
15084TIP3    H266744   1.195   3.841  13.942  1.4175  0.7539 -1.3886
15085TIP3   OH266745   0.519   0.204  16.764  0.1124  0.0997 -0.0384
15085TIP3    H166746   0.604   0.246  16.748 -0.0170  0.7084  0.7697
15085TIP3    H266747   0.535   0.111  16.748  0.0393  0.5526 -3.3439
15086TIP3   OH266748   6.682   1.941  12.537 -0.1738  0.0316  0.1429
15086TIP3    H166749   6.625   2.015  12.518 -0.4253  0.1468  1.2792
15086TIP3    H266750   6.757   1.979  12.584 -0.4900 -0.4637  1.0860
15087TIP3   OH266751   5.255   2.978  15.435 -0.2947  0.1976 -0.1000
15087TIP3    H166752   5.248   2.989  15.530 -1.9891 -1.8466  0.0910
15087TIP3    H266753   5.340   2.937  15.422 -0.5180 -0.5497  0.6875
15088TIP3   OH266754   5.593   4.270   1.909  0.2161 -0.5401 -0.4277
15088TIP3    H166755   5.521   4.208   1.895 -1.4049  1.1383  0.0518
15088TIP3    H266756   5.549   4.353   1.929  2.2808  1.0318 -2.0707
15089TIP3   OH266757   0.532   2.091   0.520 -0.1441 -0.0267 -0.2165
15089TIP3    H166758   0.527   2.123   0.610 -1.1226 -1.5388  0.3030
15089TIP3    H266759   0.461   2.028   0.513  0.1367 -0.1894 -1.9580
15090TIP3   OH266760   3.083   5.381  11.644  0.0876 -0.2003 -0.0434
15090TIP3    H166761   3.140   5.458  11.653 -2.7039  1.8547  1.5246
15090TIP3    H266762   3.060   5.380  11.551 -0.8355  1.7086  0.1200
15091TIP3   OH266763   6.732   3.035  15.991 -0.0200  0.1859  0.0204
15091TIP3    H166764   6.819   3.056  16.027  0.7654  0.7413 -2.0620
15091TIP3    H266765   6.751   2.986  15.911 -1.6715 -0.2820 -0.1159
15092TIP3   OH266766   2.939   0.285   1.822 -0.6017 -0.0657 -0.0206
15092TIP3    H166767   2.977   0.261   1.737 -1.3406 -0.3014 -0.2938
15092TIP3    H266768   2.939   0.381   1.823  2.3679  0.0287  1.0716
15093TIP3   OH266769   2.977   6.217  10.354  0.5079  0.2963 -0.4563
15093TIP3    H166770   3.009   6.303  10.382  0.3587 -0.2954  1.7113
15093TIP3    H266771   2.887   6.214  10.388  0.5727 -0.7647 -0.3721
15094TIP3   OH266772   3.255   5.918  11.634  0.7235 -0.1147 -0.5484
15094TIP3    H166773   3.246   5.975  11.710  0.0483 -0.2966 -0.4917
15094TIP3    H266774   3.346   5.932  11.604  1.0937 -0.2893  0.4665
15095TIP3   OH266775   2.487   5.988  13.405 -0.3498  0.0824  0.0903
15095TIP3    H166776   2.560   6.047  13.423 -0.5793  0.3763  0.0685
15095TIP3    H266777   2.526   5.916  13.356 -0.0946  0.2975 -0.0283
15096TIP3   OH266778   6.338   3.471   3.257 -0.0587  0.0818  0.0348
15096TIP3    H166779   6.408   3.408   3.238  1.2459  0.7608  2.2070
15096TIP3    H266780   6.383   3.556   3.260 -1.2760  0.7486 -0.0799
15097TIP3   OH266781   0.298   2.440   2.096 -0.5763  0.0184  0.4722
15097TIP3    H166782   0.365   2.458   2.030  0.9147 -1.1406  1.6052
15097TIP3    H266783   0.224   2.404   2.047  0.5944 -1.0639 -0.5666
15098TIP3   OH266784   5.151   1.476  15.789  0.7345 -0.2081  0.1653
15098TIP3    H166785   5.061   1.491  15.816 -0.4637 -1.1934 -2.8856
15098TIP3    H266786   5.154   1.384  15.763  2.5016 -0.0692 -0.2871
15099TIP3   OH266787   1.780   5.032  11.481  0.6194  0.5881  0.4689
15099TIP3    H166788   1.717   4.983  11.428 -0.3229  0.3527  1.7702
15099TIP3    H266789   1.863   5.025  11.433 -0.0550 -0.1745 -0.6147
15100TIP3   OH266790   0.643   0.265  14.634 -0.2171 -0.3935  0.0311
15100TIP3    H166791   0.721   0.317  14.654 -0.5906  0.7590 -1.3185
15100TIP3    H266792   0.676   0.185  14.594  0.3012 -0.2146  0.0990
15101TIP3   OH266793   1.363   1.296   0.466  0.4759 -0.2098 -0.5547
15101TIP3    H166794   1.361   1.217   0.520 -0.6207 -0.0019 -0.2726
15101TIP3    H266795   1.359   1.264   0.376  1.5405 -0.5242 -0.5118
15102TIP3   OH266796   0.025   5.500  15.167 -0.0448  0.2357 -0.1266
15102TIP3    H166797   0.110   5.459  15.184  1.5302  2.5697 -1.7909
15102TIP3    H266798   0.034   5.590  15.199 -1.8081  0.6129 -0.5654
15103TIP3   OH266799   0.002   5.416   4.023 -0.0063 -0.4327  0.3482
15103TIP3    H166800   0.026   5.371   4.103 -0.0855 -1.6750 -0.3084
15103TIP3    H266801   0.038   5.363   3.953 -0.9196  0.0055 -0.4859
15104TIP3   OH266802   0.055   2.827  13.150 -0.4089  0.1717 -0.1377
15104TIP3    H166803  -0.033   2.813  13.184 -0.5777  0.4072 -0.4735
15104TIP3    H266804   0.102   2.868  13.222 -0.9688  1.3387 -0.4153
15105TIP3   OH266805   6.230   2.501   2.081  0.9057 -0.0127  0.2083
15105TIP3    H166806   6.223   2.492   2.176 -1.0027 -0.5509  0.0545
15105TIP3    H266807   6.251   2.413   2.050  0.6829 -0.0212  0.0785
15106TIP3   OH266808   1.880   6.087   2.729 -0.3025  0.3839  0.1862
15106TIP3    H166809   1.883   6.018   2.796 -0.4027  0.0714 -0.1235
15106TIP3    H266810   1.787   6.093   2.706 -0.3809  1.0602  0.6482
15107TIP3   OH266811   2.196   5.109   6.309  0.4290  0.4908  0.2363
15107TIP3    H166812   2.230   5.023   6.336  0.0534 -0.2561 -1.4998
15107TIP3    H266813   2.167   5.150   6.390  1.8894 -0.4355  1.2960
15108TIP3   OH266814   6.528   6.501  11.463 -0.6401 -0.1770 -0.1721
15108TIP3    H166815   6.490   6.557  11.531 -1.7052 -0.2604 -0.6730
15108TIP3    H266816   6.601   6.457  11.506 -0.3897  0.8600  0.5048
15109TIP3   OH266817   5.964   2.697  11.924 -0.4022 -0.0454 -0.4575
15109TIP3    H166818   6.041   2.662  11.968  0.0217  1.4270  0.0113
15109TIP3    H266819   5.994   2.716  11.835 -0.2460  0.4763 -0.2912
15110TIP3   OH266820   2.472   6.762   5.202 -0.0671 -0.7249  0.0971
15110TIP3    H166821   2.535   6.773   5.131  0.0628 -1.2762  0.1222
15110TIP3    H266822   2.416   6.690   5.174 -2.3580  1.3623 -1.1160
15111TIP3   OH266823   1.433   1.620   3.617  0.1692 -0.0992 -0.4698
15111TIP3    H166824   1.515   1.635   3.665  0.2284  1.1157 -0.8949
15111TIP3    H266825   1.379   1.697   3.638 -0.6506 -0.6276 -0.6153
15112TIP3   OH266826   6.418   5.535  15.420  0.3697 -0.7685 -0.0231
15112TIP3    H166827   6.356   5.520  15.348 -0.0742 -0.3691  0.2666
15112TIP3    H266828   6.395   5.622  15.453  0.9825 -0.6835  0.1966
15113TIP3   OH266829   0.562   0.097   2.194  0.1498 -0.2552 -0.2647
15113TIP3    H166830   0.501   0.132   2.129 -0.3605  0.3711  0.5226
15113TIP3    H266831   0.568   0.166   2.260  1.5480 -0.4060 -0.2125
15114TIP3   OH266832   1.237   4.548   3.723 -0.2079  0.3823 -0.5619
15114TIP3    H166833   1.297   4.583   3.658  0.8750 -0.4252 -0.0200
15114TIP3    H266834   1.224   4.457   3.698  0.9234 -0.2037  0.8008
15115TIP3   OH266835   2.758   6.775  11.846  0.4912 -0.6110  0.1066
15115TIP3    H166836   2.699   6.815  11.782  1.0524  0.9094  0.4919
15115TIP3    H266837   2.842   6.770  11.801  0.5984 -0.6968  0.3153
15116TIP3   OH266838   5.352   0.923   4.609 -0.1541  0.5088 -0.2806
15116TIP3    H166839   5.351   0.961   4.697 -0.5713 -1.8306  0.7854
15116TIP3    H266840   5.445   0.920   4.585  0.0320  0.3690  0.4397
15117TIP3   OH266841   2.637   4.349   4.828  0.3482  0.4236 -0.5801
15117TIP3    H166842   2.562   4.365   4.771  0.5419 -0.4519 -1.1026
15117TIP3    H266843   2.599   4.335   4.915  0.0303  1.4693 -0.5420
15118TIP3   OH266844   0.111   1.403   5.693 -0.4038  0.4363 -0.1531
15118TIP3    H166845   0.113   1.487   5.646  0.1377  0.3666 -0.2682
15118TIP3    H266846   0.184   1.409   5.754  0.9750 -0.7525 -1.5917
15119TIP3   OH266847   2.822   0.002   2.647 -0.0936 -0.2324 -0.0637
15119TIP3    H166848   2.735   0.038   2.661  0.2155  0.2374  0.6813
15119TIP3    H266849   2.874   0.075   2.614  0.9774  0.5700  3.0402
15120TIP3   OH266850   2.799   2.880  14.064  0.1381  0.3018 -0.4536
15120TIP3    H166851   2.719   2.929  14.045  0.1882  0.1863 -0.9647
15120TIP3    H266852   2.818   2.832  13.984 -1.1854 -2.4057  0.7071
15121TIP3   OH266853   2.696   2.948   1.402 -0.2677 -0.8670 -0.1583
15121TIP3    H166854   2.629   2.968   1.468  0.5940  0.0457  0.4739
15121TIP3    H266855   2.646   2.935   1.321 -1.2174 -0.2430  0.3016
15122TIP3   OH266856   4.131   6.750  15.572 -0.2250  0.2573  0.4730
15122TIP3    H166857   4.124   6.657  15.591  1.4135  0.3837  1.9289
15122TIP3    H266858   4.181   6.787  15.645  1.7257  1.7483 -1.4627
15123TIP3   OH266859   4.292   3.062   4.530 -0.2047 -0.2812  0.2491
15123TIP3    H166860   4.268   3.015   4.610  1.3375  0.8123  1.4160
15123TIP3    H266861   4.345   3.135   4.561 -0.2308  0.6296 -1.7369
15124TIP3   OH266862   5.445   0.587  13.251  0.2250  0.3358  1.0697
15124TIP3    H166863   5.352   0.590  13.226  1.2401  0.1737 -3.6077
15124TIP3    H266864   5.487   0.648  13.191  3.6164 -2.5570  0.2321
15125TIP3   OH266865   4.671   1.241   6.358 -0.1791  0.1273 -0.5504
15125TIP3    H166866   4.672   1.207   6.268  0.3992 -0.3604 -0.3693
15125TIP3    H266867   4.763   1.253   6.380  0.0325 -3.3127  1.2599
15126TIP3   OH266868   0.032   0.449  13.270  0.5501 -0.3154 -0.2722
15126TIP3    H166869   0.025   0.510  13.196  1.7971 -0.7993 -0.8202
15126TIP3    H266870   0.125   0.430  13.276  0.0860 -3.5379 -1.2566
15127TIP3   OH266871   2.103   4.259  16.530  0.3184  0.2819  0.0413
15127TIP3    H166872   2.092   4.237  16.623  0.9551 -0.8388 -0.1256
15127TIP3    H266873   2.015   4.250  16.493  0.4116 -1.4745  0.1221
15128TIP3   OH266874   3.613   0.155   0.904  0.4040 -0.2591  0.4802
15128TIP3    H166875   3.615   0.251   0.900 -0.7496 -0.2637 -2.3068
15128TIP3    H266876   3.520   0.134   0.914  0.6553 -1.1254  1.0916
15129TIP3   OH266877   3.989   5.250   1.979  0.1026 -0.6233  0.0872
15129TIP3    H166878   3.955   5.217   1.896 -2.4392  0.0443  0.7911
15129TIP3    H266879   3.920   5.305   2.014  0.7059 -1.5428  3.0773
15130TIP3   OH266880   4.268   6.142   4.469  0.6222 -0.2002  0.0762
15130TIP3    H166881   4.180   6.136   4.507  0.9322  0.8889  1.0353
15130TIP3    H266882   4.310   6.059   4.492  0.5914  0.1812  1.6487
15131TIP3   OH266883   5.592   1.920   0.844 -0.3922  0.0467  0.5514
15131TIP3    H166884   5.526   1.850   0.849 -0.3060  0.0470  2.5669
15131TIP3    H266885   5.628   1.926   0.933 -1.7938  3.9671  1.0677
15132TIP3   OH266886   0.752   1.714  12.659  0.0399 -0.7997 -0.1899
15132TIP3    H166887   0.801   1.684  12.582  1.5687 -0.2912  0.5477
15132TIP3    H266888   0.812   1.772  12.705 -0.5434 -1.6779  1.8044
15133TIP3   OH266889   5.332   4.875   4.022  0.5249  0.2237  0.2781
15133TIP3    H166890   5.406   4.850   3.966  0.9472 -0.6949  1.2129
15133TIP3    H266891   5.279   4.795   4.028 -0.7587  0.9545 -0.6503
15134TIP3   OH266892   2.119   4.059   2.652 -0.0914 -0.2802 -0.9920
15134TIP3    H166893   2.210   4.037   2.634 -0.1088 -0.1030 -1.3066
15134TIP3    H266894   2.070   3.981   2.624  0.1168 -1.1995  1.0581
15135TIP3   OH266895   3.943   6.393  13.616 -0.2677 -0.7759  0.0293
15135TIP3    H166896   3.902   6.364  13.535 -0.5387 -2.8259  0.8350
15135TIP3    H266897   4.033   6.361  13.611  0.6703  1.7070 -0.7147
15136TIP3   OH266898   5.105   5.055  10.450 -0.0789 -0.0925  0.5433
15136TIP3    H166899   5.163   5.129  10.430 -1.5774  1.5954  2.0818
15136TIP3    H266900   5.053   5.085  10.524 -1.8689 -2.1098  0.1896
15137TIP3   OH266901   3.964   3.954   2.064  0.1361 -0.0894  0.4379
15137TIP3    H166902   3.988   3.871   2.106 -0.1460  0.2311  1.2448
15137TIP3    H266903   3.910   4.000   2.128 -0.6798  0.2307 -0.4465
15138TIP3   OH266904   4.183   0.185  14.024 -0.0752  0.4930  0.2617
15138TIP3    H166905   4.148   0.256  13.970 -0.5643 -1.2600 -1.8766
15138TIP3    H266906   4.122   0.113  14.010  1.1714 -0.7967  1.2543
15139TIP3   OH266907   5.110   1.736   0.758  0.4309  0.5933  0.3150
15139TIP3    H166908   5.015   1.738   0.750  0.5121 -0.7054 -1.5810
15139TIP3    H266909   5.126   1.682   0.836 -0.3578  1.9990  1.5028
15140TIP3   OH266910   6.195   2.295   6.382 -0.0965  0.0865 -0.9701
15140TIP3    H166911   6.276   2.259   6.418 -0.3627 -0.8164 -1.2660
15140TIP3    H266912   6.161   2.352   6.451 -1.1378 -2.3967  0.6745
15141TIP3   OH266913   4.497   4.241   3.060 -0.4089  0.4556 -0.4062
15141TIP3    H166914   4.503   4.174   3.128  1.0270  0.3824 -0.5734
15141TIP3    H266915   4.418   4.290   3.080 -0.1603  0.2493  1.1507
15142TIP3   OH266916   6.443   0.381   1.034  0.2773  0.3621 -0.3930
15142TIP3    H166917   6.439   0.345   0.945 -2.1364  0.0473 -0.2135
15142TIP3    H266918   6.388   0.460   1.030 -1.0022 -0.4038  1.1198
15143TIP3   OH266919   3.283   0.695   2.691  0.0997 -0.2445 -0.2525
15143TIP3    H166920   3.198   0.720   2.726  0.3734  0.5383 -0.1366
15143TIP3    H266921   3.343   0.701   2.765  0.4543  0.2414 -0.5745
15144TIP3   OH266922   1.044   3.798   5.473  0.0238 -0.6405  0.3108
15144TIP3    H166923   0.977   3.757   5.527  0.5530 -1.6096  0.2625
15144TIP3    H266924   1.051   3.741   5.396  1.1458 -0.7626  0.4830
15145TIP3   OH266925   5.692   1.525  16.141  0.2662  0.4036  0.3432
15145TIP3    H166926   5.708   1.560  16.053  0.7701  0.0006  0.2742
15145TIP3    H266927   5.598   1.505  16.142  0.2486  0.4608 -0.0862
15146TIP3   OH266928   5.116   5.961   2.321 -0.6260  0.5887 -0.1828
15146TIP3    H166929   5.100   5.874   2.357 -0.9256  1.3377  1.5863
15146TIP3    H266930   5.032   6.006   2.329 -0.5779  0.9385 -1.4367
15147TIP3   OH266931   0.942   2.083   1.995  0.5037 -0.0551 -0.0272
15147TIP3    H166932   0.996   2.155   1.963  1.2732  0.3248  1.9666
15147TIP3    H266933   0.870   2.127   2.040  1.1948 -0.4828  1.5542
15148TIP3   OH266934   2.580   5.580   0.490 -0.5020 -0.1940  0.7099
15148TIP3    H166935   2.560   5.664   0.531 -0.8863  0.0698  0.0022
15148TIP3    H266936   2.629   5.603   0.411  0.3835 -0.7036  1.0950
15149TIP3   OH266937   3.647   6.311   2.912 -0.2260 -0.6245 -0.5955
15149TIP3    H166938   3.635   6.365   2.834  0.1873  0.8227  0.2942
15149TIP3    H266939   3.722   6.256   2.892  1.3331  1.3297 -0.4415
15150TIP3   OH266940   0.672   3.498  12.727 -1.3547  0.1675 -0.3159
15150TIP3    H166941   0.676   3.453  12.811  1.4347 -0.2949 -0.5837
15150TIP3    H266942   0.665   3.591  12.749  0.5251  0.1590  0.5504
15151TIP3   OH266943   1.829   4.254  16.303 -0.6648  0.0524 -0.3047
15151TIP3    H166944   1.780   4.328  16.266  0.0535 -0.3618 -2.2205
15151TIP3    H266945   1.904   4.244  16.245 -0.0295 -1.3571  0.6960
15152TIP3   OH266946   4.126   2.665  15.380 -0.2550  0.6103 -0.2619
15152TIP3    H166947   4.078   2.735  15.335 -2.2787 -1.6739 -1.8906
15152TIP3    H266948   4.066   2.634  15.447  0.0803 -0.4022 -0.4164
15153TIP3   OH266949   5.968   1.246  11.893 -0.7482  0.0749 -0.1964
15153TIP3    H166950   5.957   1.250  11.798 -0.0023 -0.3575 -0.3041
15153TIP3    H266951   5.904   1.309  11.927 -0.3303  0.9818 -1.0322
15154TIP3   OH266952   3.794   3.221  12.583 -0.0656  0.3255  0.6440
15154TIP3    H166953   3.851   3.260  12.516  0.0441  0.9856  1.1044
15154TIP3    H266954   3.799   3.283  12.656 -0.0633 -0.4653  1.3166
15155TIP3   OH266955   4.638   1.561  13.430  0.1627 -0.2645  0.3302
15155TIP3    H166956   4.578   1.577  13.358 -0.2117 -0.8191  0.5083
15155TIP3    H266957   4.668   1.647  13.457  2.6227 -0.0864 -2.3936
15156TIP3   OH266958   1.401   4.712   2.553  0.2757 -0.2369  0.3696
15156TIP3    H166959   1.434   4.656   2.624 -1.4478 -0.0525  1.3671
15156TIP3    H266960   1.433   4.670   2.473  0.0153 -1.9958  1.1435
15157TIP3   OH266961   3.951   5.409  13.338  0.5650 -0.5429 -0.2293
15157TIP3    H166962   3.993   5.359  13.269  1.3838  2.4053 -2.0183
15157TIP3    H266963   3.862   5.426  13.306 -0.0388 -1.5991  0.8017
15158TIP3   OH266964   6.502   5.000   5.091  0.0475 -0.0010  0.2001
15158TIP3    H166965   6.573   5.006   5.154 -0.5530 -1.7883  1.1117
15158TIP3    H266966   6.422   5.008   5.144 -0.4880 -2.2047 -0.1713
15159TIP3   OH266967   5.941   1.166  14.437  0.0536  0.5720  0.0898
15159TIP3    H166968   5.901   1.086  14.402  1.6989  0.2530 -1.1853
15159TIP3    H266969   5.869   1.228  14.445 -0.7433 -0.0006 -2.0232
15160TIP3   OH266970   1.337   4.982  14.244  0.7598 -0.2542 -0.2064
15160TIP3    H166971   1.291   5.040  14.183  0.1512 -1.0512 -0.5093
15160TIP3    H266972   1.408   4.945  14.192  1.8729  1.0567  0.2875
15161TIP3   OH266973   3.523   3.046   1.861 -0.5198  0.5854  0.4007
15161TIP3    H166974   3.511   3.099   1.940  1.1448  1.3877  0.1666
15161TIP3    H266975   3.461   3.082   1.798 -2.3600 -0.5022  1.4980
15162TIP3   OH266976   4.563   6.153   4.140  0.0404  0.0369  0.7130
15162TIP3    H166977   4.558   6.059   4.158  0.4088  0.1463  1.4201
15162TIP3    H266978   4.646   6.164   4.093  1.9058  0.4690  3.8658
15163TIP3   OH266979   4.397   0.450   0.312 -0.1361  0.2348  0.6353
15163TIP3    H166980   4.392   0.355   0.299 -2.8493  0.5550 -1.7627
15163TIP3    H266981   4.395   0.462   0.407  0.8287 -2.0777  1.0048
15164TIP3   OH266982   3.125   4.602   4.179 -0.0908  0.1499  0.3032
15164TIP3    H166983   3.088   4.594   4.266  0.2605 -0.8009  0.3781
15164TIP3    H266984   3.052   4.583   4.119 -0.6885  2.1975  0.3307
15165TIP3   OH266985   1.252   3.683  12.110 -0.7097 -0.4502 -0.6082
15165TIP3    H166986   1.158   3.701  12.115 -1.2194 -2.4813 -1.7319
15165TIP3    H266987   1.268   3.620  12.181  0.1362  0.9677  0.5120
15166TIP3   OH266988   0.897   5.099  14.085  0.0102  0.1551  0.4079
15166TIP3    H166989   0.813   5.119  14.043  2.2785  2.3732 -3.7099
15166TIP3    H266990   0.906   5.165  14.154 -0.2592  2.1263 -1.3665
15167TIP3   OH266991   4.797   3.035  15.754  0.4102 -0.2923 -0.1965
15167TIP3    H166992   4.726   3.026  15.689  1.3952  0.1784 -1.3874
15167TIP3    H266993   4.795   3.127  15.779 -0.1745 -0.5390  0.7254
15168TIP3   OH266994   2.500   3.830  13.802  0.0526  0.2880  0.3208
15168TIP3    H166995   2.413   3.801  13.774  0.6116 -0.4243 -0.7565
15168TIP3    H266996   2.516   3.909  13.751 -0.3356  0.9584  1.2169
15169TIP3   OH266997   1.578   0.465   2.244  0.4082 -0.3139  0.0995
15169TIP3    H166998   1.539   0.524   2.180  0.8321  0.3735  0.4721
15169TIP3    H266999   1.665   0.446   2.209  0.6658  0.1152  0.4969
15170TIP3   OH267000   3.886   3.037   3.155 -0.2573 -0.3213 -0.8164
15170TIP3    H167001   3.862   3.032   3.063 -1.1606  1.4652 -0.7256
15170TIP3    H267002   3.802   3.045   3.201  0.2095 -0.6224  0.1149
15171TIP3   OH267003   1.640   5.372  17.097 -0.7348  0.4610  0.2415
15171TIP3    H167004   1.560   5.395  17.145 -0.1498  1.7045  0.6702
15171TIP3    H267005   1.618   5.386  17.005 -0.8037  1.5201  0.4064
15172TIP3   OH267006   5.801   1.961  13.604 -0.2726 -0.4970 -0.2238
15172TIP3    H167007   5.739   1.978  13.533 -2.7607 -0.8623  1.7411
15172TIP3    H267008   5.825   2.048  13.636  1.1375 -0.3160 -1.6663
15173TIP3   OH267009   5.526   4.030  11.808 -0.0580 -0.1251 -0.1882
15173TIP3    H167010   5.439   4.069  11.800 -0.6374 -1.4821 -0.7430
15173TIP3    H267011   5.512   3.950  11.858  0.6450 -1.0252 -1.3773
15174TIP3   OH267012   5.867   4.518   0.004  0.6130  0.3549  0.2147
15174TIP3    H167013   5.874   4.607   0.040 -0.3421  0.8913 -0.8777
15174TIP3    H267014   5.825   4.529  -0.080  1.0756 -1.0915 -0.2382
15175TIP3   OH267015   0.875   6.802  16.276  0.3572 -0.0050  0.2819
15175TIP3    H167016   0.905   6.882  16.233  0.2997  0.1945  0.6153
15175TIP3    H267017   0.808   6.831  16.338 -1.2187 -0.5203 -1.0815
15176TIP3   OH267018   3.093   2.512  12.156  0.1976 -0.1796  0.1653
15176TIP3    H167019   3.133   2.598  12.172  0.7425  0.1992 -2.7929
15176TIP3    H267020   3.032   2.527  12.084  0.0968 -2.2114 -0.2053
15177TIP3   OH267021   1.537   3.363   0.978 -0.1208 -0.4583  0.3317
15177TIP3    H167022   1.532   3.342   0.885  0.7284  0.2784  0.1053
15177TIP3    H267023   1.454   3.409   0.996 -0.7928 -1.5978  0.2232
15178TIP3   OH267024   0.317   6.689  11.324 -0.2799  0.5272  0.1139
15178TIP3    H167025   0.410   6.713  11.326 -0.4168  1.0684  0.5718
15178TIP3    H267026   0.273   6.769  11.298 -0.6350  0.3371  0.1304
15179TIP3   OH267027   3.497   3.793  16.116  0.1092  0.1908 -0.3093
15179TIP3    H167028   3.524   3.810  16.025  3.0968  2.2510  0.7930
15179TIP3    H267029   3.417   3.845  16.127 -0.5261 -0.3959 -1.8152
15180TIP3   OH267030   3.587   2.925  11.417 -0.1504  0.1325  0.0658
15180TIP3    H167031   3.523   2.978  11.464  1.3445  0.3420  1.9645
15180TIP3    H267032   3.579   2.838  11.456  1.0531  0.2846  0.6680
15181TIP3   OH267033   3.440   4.657  13.831 -0.2182  0.4981 -0.0444
15181TIP3    H167034   3.509   4.653  13.765  0.6769  1.6038  0.7875
15181TIP3    H267035   3.398   4.742  13.817 -0.4056  0.4886  0.4274
15182TIP3   OH267036   4.458   4.967  16.832  0.6410 -0.3613 -0.6950
15182TIP3    H167037   4.520   5.017  16.886 -0.6818 -0.3581  0.9072
15182TIP3    H267038   4.372   4.986  16.870 -0.4446  0.0062 -3.1481
15183TIP3   OH267039   1.376   5.588  11.820  0.1671 -0.3049  0.2909
15183TIP3    H167040   1.364   5.662  11.879 -2.8026  0.3584 -0.9739
15183TIP3    H267041   1.463   5.555  11.841  1.2200  2.8833  1.6240
15184TIP3   OH267042   0.987   3.662  16.850  0.1840 -0.4839 -0.3867
15184TIP3    H167043   1.053   3.729  16.869  0.3040 -0.8036  0.3488
15184TIP3    H267044   0.903   3.706  16.863  0.2442 -0.1300 -1.1366
15185TIP3   OH267045   0.500   4.199   2.263  0.2912  0.0444 -0.4649
15185TIP3    H167046   0.556   4.123   2.272  2.0419  0.9792 -2.5885
15185TIP3    H267047   0.531   4.261   2.329  1.0206  0.1083 -0.8610
15186TIP3   OH267048   3.727   5.408  13.157  0.2090  0.0387 -0.4742
15186TIP3    H167049   3.786   5.457  13.100 -1.9221  0.1657 -2.7333
15186TIP3    H267050   3.713   5.325  13.112 -2.8946  0.8186 -1.1768
15187TIP3   OH267051   2.519   3.680   2.920  0.1487  0.1882 -0.2027
15187TIP3    H167052   2.577   3.613   2.954 -0.0130  0.3004  0.3085
15187TIP3    H267053   2.431   3.641   2.927  0.2260 -0.2998 -1.7361
15188TIP3   OH267054   5.955   2.048  15.153  0.4658  0.1078 -0.0489
15188TIP3    H167055   5.882   2.105  15.130  1.5320  1.5448 -0.0227
15188TIP3    H267056   5.918   1.960  15.151 -1.0989  0.7370 -0.6529
15189TIP3   OH267057   1.529   6.279   5.926 -0.2825 -0.1496 -0.2536
15189TIP3    H167058   1.601   6.289   5.863  0.1390  0.0347  0.2437
15189TIP3    H267059   1.534   6.358   5.979 -0.0844 -0.7018  0.5618
15190TIP3   OH267060   4.278   6.668   3.846 -0.1110  0.8489  0.3034
15190TIP3    H167061   4.369   6.666   3.878 -0.8485  0.2013  2.5870
15190TIP3    H267062   4.285   6.699   3.756  2.5494 -0.9973 -0.2500
15191TIP3   OH267063   2.752   0.516   1.700 -0.5628 -0.4253  0.2506
15191TIP3    H167064   2.839   0.504   1.663 -0.7843 -0.6215 -0.2148
15191TIP3    H267065   2.694   0.465   1.644 -1.3258  1.5932 -0.9253
15192TIP3   OH267066   5.483   3.721  14.570 -0.1287  0.0656  0.0206
15192TIP3    H167067   5.516   3.770  14.645  0.0252 -0.8809  0.5867
15192TIP3    H267068   5.388   3.717  14.584 -0.2881  1.1255 -0.6063
15193TIP3   OH267069   1.567   6.774  14.871  0.0366 -0.1629  0.5526
15193TIP3    H167070   1.588   6.832  14.797 -0.8338  0.3493  0.6947
15193TIP3    H267071   1.555   6.688  14.831  0.0018  0.0268  0.1508
15194TIP3   OH267072   6.797   5.660   5.420 -0.0036 -0.3400  0.6587
15194TIP3    H167073   6.759   5.673   5.506 -1.4949  3.1573 -0.3609
15194TIP3    H267074   6.868   5.724   5.414  0.5452 -1.0123 -0.4951
15195TIP3   OH267075   4.241   0.669   0.226  0.1566  0.0594  0.3082
15195TIP3    H167076   4.196   0.646   0.144  0.4076 -0.5862  0.3434
15195TIP3    H267077   4.288   0.590   0.250  0.8545  0.5477  0.5775
15196TIP3   OH267078   4.737   5.556   6.464  0.0224  0.2247 -0.3198
15196TIP3    H167079   4.780   5.502   6.398  1.9925 -1.1561  1.8996
15196TIP3    H267080   4.802   5.623   6.486  0.0942 -0.3381  1.3046
15197TIP3   OH267081   2.257   1.074   0.160  0.6932  0.1626  0.1100
15197TIP3    H167082   2.215   1.147   0.114  2.5440  1.4340  0.2989
15197TIP3    H267083   2.187   1.009   0.171 -0.7140  1.3603 -1.1871
15198TIP3   OH267084   2.303   5.940  10.887 -0.5727  0.2138 -0.3785
15198TIP3    H167085   2.317   5.992  10.966 -1.4499  0.9570 -0.7084
15198TIP3    H267086   2.384   5.889  10.878  0.2605  1.4283  0.0094
15199TIP3   OH267087   3.926   5.466  12.666  0.0778 -0.3676  0.3998
15199TIP3    H167088   4.020   5.457  12.649  0.1640  0.3043  0.5000
15199TIP3    H267089   3.889   5.493  12.582  0.3097  1.6218  0.8935
15200TIP3   OH267090   6.665   5.927   5.846  0.3849  0.1940 -0.6224
15200TIP3    H167091   6.723   6.003   5.840  1.0462 -0.2878 -0.5217
15200TIP3    H267092   6.674   5.897   5.936 -0.1749  0.2268 -0.5526
15201TIP3   OH267093   4.137   6.155  14.188 -0.1400  0.0930  0.1224
15201TIP3    H167094   4.192   6.226  14.222  0.1803 -0.1417  0.0996
15201TIP3    H267095   4.161   6.148  14.095 -0.5941  0.3461 -0.0130
15202TIP3   OH267096   2.968   3.125  14.547 -0.0174 -0.2970  0.2271
15202TIP3    H167097   2.999   3.048  14.499 -0.0626 -0.0055 -0.2768
15202TIP3    H267098   2.878   3.137  14.519  0.6192  1.2064 -1.3847
15203TIP3   OH267099   2.583   0.364   5.075 -0.6397  0.0595 -0.4042
15203TIP3    H167100   2.657   0.422   5.092  1.3416 -1.2882 -3.6254
15203TIP3    H267101   2.514   0.422   5.043  0.4715  0.9316 -1.2925
15204TIP3   OH267102   0.336   3.548   5.517  0.0115  0.0363  0.0203
15204TIP3    H167103   0.359   3.592   5.599  1.9203  0.3042 -0.6137
15204TIP3    H267104   0.378   3.462   5.523 -0.6048 -0.2924 -0.3059
15205TIP3   OH267105   0.822   1.728   3.838 -0.3405  0.5805  0.3464
15205TIP3    H167106   0.810   1.755   3.746 -2.1518 -1.8000 -0.2005
15205TIP3    H267107   0.774   1.794   3.888 -1.1031  0.7512 -0.5780
15206TIP3   OH267108   3.949   2.164  11.532  0.2700  0.2456  0.5730
15206TIP3    H167109   3.854   2.149  11.525  0.4404  0.0132 -1.9341
15206TIP3    H267110   3.956   2.257  11.555 -0.5493  0.1147  1.4531
15207TIP3   OH267111   5.624   5.433   1.573  0.4162  0.1433 -0.3222
15207TIP3    H167112   5.626   5.484   1.654 -0.2592 -1.1070  0.5173
15207TIP3    H267113   5.581   5.491   1.509  0.4433  0.9329  0.3577
15208TIP3   OH267114   3.126   3.399  16.716 -0.8927 -0.2722  0.2672
15208TIP3    H167115   3.110   3.391  16.810 -0.0533 -2.1774  0.3044
15208TIP3    H267116   3.085   3.482  16.691  0.7179  1.3948  2.6880
15209TIP3   OH267117   5.628   5.521   0.703  0.5271  0.2802  0.5989
15209TIP3    H167118   5.618   5.554   0.792 -0.2340  0.2636  0.5279
15209TIP3    H267119   5.611   5.597   0.647  0.1185  0.0833  0.4554
15210TIP3   OH267120   0.208   3.186  14.325 -0.4048  0.7758 -0.3543
15210TIP3    H167121   0.227   3.101  14.363  0.1315  1.2940  0.5647
15210TIP3    H267122   0.285   3.239  14.344 -0.5996  1.3857 -1.1865
15211TIP3   OH267123   2.742   1.761   6.084 -0.3299 -0.1524  0.0397
15211TIP3    H167124   2.827   1.771   6.127  0.2768 -1.6905 -0.7253
15211TIP3    H267125   2.683   1.734   6.154 -0.1866  0.8282  0.5566
15212TIP3   OH267126   0.076   2.026  12.649  0.5007 -0.1888  0.2531
15212TIP3    H167127   0.099   2.045  12.740 -1.0440  5.0939 -0.1531
15212TIP3    H267128   0.149   2.060  12.598  0.0040 -0.2757 -0.5391
15213TIP3   OH267129   2.943   4.572   3.650 -0.1660  0.2876  0.3059
15213TIP3    H167130   2.992   4.606   3.725  0.2215 -0.1893  0.2799
15213TIP3    H267131   2.857   4.550   3.686  0.1819 -0.4127  0.7357
15214TIP3   OH267132   3.647   5.042  14.530  0.4449  0.4652  0.3150
15214TIP3    H167133   3.685   4.978  14.470 -1.3044  0.5244 -0.9416
15214TIP3    H267134   3.679   5.126  14.497 -0.0541  0.4575 -0.2119
15215TIP3   OH267135   4.231   4.720  11.243  0.3150  0.0186  0.0598
15215TIP3    H167136   4.197   4.667  11.171  1.2508  0.1333 -0.4764
15215TIP3    H267137   4.282   4.659  11.296  0.4125  0.1319  0.0971
15216TIP3   OH267138   5.597   0.651   3.579 -0.3213  0.1643  0.7671
15216TIP3    H167139   5.530   0.691   3.635 -1.4997 -0.9064  0.1715
15216TIP3    H267140   5.572   0.675   3.490  0.3569  0.1261  0.5573
15217TIP3   OH267141   1.212   4.239   0.232 -0.7311  0.0785 -0.4228
15217TIP3    H167142   1.131   4.265   0.188 -0.5504 -0.0721 -0.8454
15217TIP3    H267143   1.188   4.161   0.282 -1.0242  0.4563  0.0363
15218TIP3   OH267144   0.366   2.785  16.420 -0.3243  0.1307 -0.4856
15218TIP3    H167145   0.453   2.817  16.445 -0.8808  2.0062 -0.7779
15218TIP3    H267146   0.329   2.753  16.502  0.6711 -0.8296 -0.3828
15219TIP3   OH267147   5.500   6.180   3.694 -0.0732  0.3480 -0.1787
15219TIP3    H167148   5.510   6.089   3.720  0.2571  0.9337  2.0099
15219TIP3    H267149   5.410   6.203   3.718 -0.0490  0.6771 -0.3897
15220TIP3   OH267150   3.635   1.703  14.378  0.0289 -0.8202 -0.8992
15220TIP3    H167151   3.550   1.675  14.344 -1.4294  0.0168  1.7799
15220TIP3    H267152   3.629   1.799  14.381  1.0872 -0.7485 -0.7238
15221TIP3   OH267153   0.120   5.294   4.634  0.2810 -0.0283 -0.2820
15221TIP3    H167154   0.159   5.255   4.713 -0.6525 -0.1217  0.1428
15221TIP3    H267155   0.089   5.219   4.583 -0.6454  0.0974  0.0775
15222TIP3   OH267156   6.164   0.050  15.163 -0.3056  0.2634 -0.1893
15222TIP3    H167157   6.103   0.019  15.229  0.5752  0.2697  0.6548
15222TIP3    H267158   6.207   0.125  15.203  0.4431  0.0944 -0.6481
15223TIP3   OH267159   0.391   3.667  13.162  0.0852  0.7384  0.1099
15223TIP3    H167160   0.391   3.580  13.202 -1.1584 -0.7593 -2.8020
15223TIP3    H267161   0.344   3.722  13.223  1.5884 -0.3824  2.4201
15224TIP3   OH267162   5.137   5.945  15.603 -0.8703  0.3444 -0.0513
15224TIP3    H167163   5.187   5.970  15.681 -1.1630  2.2440 -0.4151
15224TIP3    H267164   5.199   5.895  15.551  0.3153  1.5939  0.0742
15225TIP3   OH267165   1.543   5.044  12.230 -0.5998 -0.3450  0.9263
15225TIP3    H167166   1.481   4.987  12.185  0.5613 -1.0684  0.1931
15225TIP3    H267167   1.626   4.996  12.227  0.9916  2.2681 -1.6575
15226TIP3   OH267168   6.128   6.481  15.230 -0.1213 -0.3437  0.3373
15226TIP3    H167169   6.037   6.496  15.254 -0.5261 -0.1203 -1.2227
15226TIP3    H267170   6.176   6.482  15.313 -1.4213  0.3298  1.1023
15227TIP3   OH267171   3.369   4.130  11.297 -0.1519  0.4789  0.6127
15227TIP3    H167172   3.313   4.118  11.221  0.5531 -0.8176  0.2792
15227TIP3    H267173   3.314   4.107  11.372 -0.0751 -0.8185  0.2857
15228TIP3   OH267174   0.117   0.099  10.499 -0.0435  0.2144  0.3518
15228TIP3    H167175   0.065   0.177  10.480  0.6517  0.4305 -0.7525
15228TIP3    H267176   0.065   0.026  10.465 -0.6253  0.1969  1.2514
15229TIP3   OH267177   2.060   4.783   4.769  0.6383  0.1885  0.2288
15229TIP3    H167178   2.021   4.734   4.696 -0.0872  1.7789 -0.4951
15229TIP3    H267179   2.080   4.716   4.834  0.9393 -1.2400 -1.2493
15230TIP3   OH267180   4.181   1.978  13.737  0.1684 -0.2916  0.7721
15230TIP3    H167181   4.149   1.905  13.790 -0.1499  0.6992  1.9823
15230TIP3    H267182   4.236   1.937  13.671 -2.9432 -2.0494 -0.9759
15231TIP3   OH267183   4.391   2.524   4.616  0.2578  0.1953 -0.3517
15231TIP3    H167184   4.313   2.533   4.563 -0.4927  0.4653  0.7584
15231TIP3    H267185   4.451   2.471   4.563 -0.4783  0.4165 -1.4187
15232TIP3   OH267186   4.562   0.111   4.400  0.0682 -0.1669 -0.2826
15232TIP3    H167187   4.549   0.205   4.383 -1.2193 -0.0899  0.9552
15232TIP3    H267188   4.483   0.085   4.447  0.6072 -1.7952 -0.2511
15233TIP3   OH267189   6.689   4.074  14.860 -0.3206  0.3092 -0.2209
15233TIP3    H167190   6.631   4.094  14.786  0.1976 -1.4827 -1.1688
15233TIP3    H267191   6.663   3.986  14.887  0.8433  0.1551  0.4341
15234TIP3   OH267192   6.048   2.397   4.220 -0.5366  0.9114 -0.5563
15234TIP3    H167193   6.112   2.467   4.210 -1.5043  1.5690 -2.9589
15234TIP3    H267194   6.076   2.329   4.158  0.0747 -0.6482  1.3291
15235TIP3   OH267195   0.483   5.358  16.495  0.2258  0.2547 -0.0315
15235TIP3    H167196   0.399   5.354  16.542  0.7758 -0.1290  0.9429
15235TIP3    H267197   0.539   5.411  16.552  0.7083  0.3451 -0.5866
15236TIP3   OH267198   4.613   1.487   6.235 -0.3412  0.1992 -0.3217
15236TIP3    H167199   4.539   1.517   6.287 -0.5575 -0.3915 -0.2802
15236TIP3    H267200   4.648   1.412   6.284  0.0499  0.2440 -0.5303
15237TIP3   OH267201   0.811   0.631  13.029 -0.0870  0.6503  0.5315
15237TIP3    H167202   0.818   0.698  13.098  0.0055  1.4659 -0.2581
15237TIP3    H267203   0.883   0.571  13.046  0.0441  0.9432  1.0370
15238TIP3   OH267204   5.270   1.395   0.428 -0.4613  0.0579 -0.6363
15238TIP3    H167205   5.350   1.417   0.379 -0.7410  1.0507 -0.6530
15238TIP3    H267206   5.213   1.353   0.363  0.3327 -1.4093 -0.4442
15239TIP3   OH267207   1.503   6.464   4.471  0.1005 -0.5651  0.0735
15239TIP3    H167208   1.416   6.463   4.431 -0.0576  0.2885  0.3799
15239TIP3    H267209   1.486   6.478   4.564  0.5731 -0.0914  0.0935
15240TIP3   OH267210   5.656   6.323   2.408 -0.7502  0.4754  0.1517
15240TIP3    H167211   5.738   6.273   2.408 -0.4308  0.8396  2.6677
15240TIP3    H267212   5.683   6.412   2.431 -1.7438  0.8520 -0.1144
15241TIP3   OH267213   5.983   2.805  13.248  0.1231  0.1233  0.0451
15241TIP3    H167214   5.893   2.825  13.273 -0.1758 -0.9800 -0.0914
15241TIP3    H267215   6.017   2.887  13.214 -0.7964  0.5859  0.2135
15242TIP3   OH267216   4.002   4.361   4.954  0.6900 -0.7767  0.0646
15242TIP3    H167217   3.949   4.285   4.979  0.0143 -0.3681 -0.1084
15242TIP3    H267218   4.072   4.363   5.020 -0.3733 -0.4378  1.2135
15243TIP3   OH267219   0.685   6.821  16.002  0.5488  0.1499 -0.0989
15243TIP3    H167220   0.609   6.856  15.956 -0.7296 -0.6978  1.3137
15243TIP3    H267221   0.649   6.768  16.073  2.4226 -1.9572 -0.5983
15244TIP3   OH267222   1.379   0.991  12.947  0.1256 -0.2127 -0.1781
15244TIP3    H167223   1.434   0.920  12.979  0.7079  0.0460 -0.5874
15244TIP3    H267224   1.438   1.065  12.935 -0.6268  0.6291  1.1054
15245TIP3   OH267225   6.189   5.354  12.348  0.7866  0.7688 -0.1840
15245TIP3    H167226   6.193   5.404  12.266  1.7703  2.1974  0.7008
15245TIP3    H267227   6.095   5.343  12.364  0.5759  1.0180 -1.1704
15246TIP3   OH267228   1.538   5.922  10.927 -0.1735  0.1180 -0.6797
15246TIP3    H167229   1.593   5.846  10.913  0.7232  0.8853 -1.4674
15246TIP3    H267230   1.591   5.980  10.982 -0.6681  0.3718 -0.4639
15247TIP3   OH267231   3.777   3.038   0.756  0.2956  0.2274  0.3632
15247TIP3    H167232   3.866   3.015   0.782  0.8110  0.1566 -1.3634
15247TIP3    H267233   3.728   2.956   0.763  0.2565  0.3337  1.6264
15248TIP3   OH267234   4.542   4.889  16.083  0.1793 -0.0282 -0.1430
15248TIP3    H167235   4.541   4.983  16.100  1.4538 -0.1887  1.0527
15248TIP3    H267236   4.455   4.869  16.050 -0.5896  1.3351  0.9610
15249TIP3   OH267237   4.913   1.338  16.649 -0.1393 -0.1691 -0.1622
15249TIP3    H167238   4.852   1.298  16.712 -2.8580  2.9479 -0.5487
15249TIP3    H267239   4.866   1.334  16.566  0.5556  1.5434 -0.6650
15250TIP3   OH267240   0.172   0.381   5.324  0.6343 -0.0915 -0.3671
15250TIP3    H167241   0.113   0.449   5.289 -0.1138 -0.5667 -0.0593
15250TIP3    H267242   0.253   0.428   5.343 -1.1450  1.7624  3.9006
15251TIP3   OH267243   4.796   1.242  10.965  0.2157 -0.4498 -0.2134
15251TIP3    H167244   4.708   1.209  10.984  0.5013 -0.2431  1.6604
15251TIP3    H267245   4.789   1.337  10.979  0.7045 -0.4260 -0.1067
15252TIP3   OH267246   5.032   5.181   1.093 -0.2321 -0.4099 -0.1339
15252TIP3    H167247   5.050   5.146   1.006  2.4374 -2.2427  1.0345
15252TIP3    H267248   4.966   5.250   1.078  1.5536  0.7509 -3.8427
15253TIP3   OH267249   1.697   6.154  16.138  0.5491 -0.0374 -0.5768
15253TIP3    H167250   1.682   6.131  16.230  1.8153 -1.5036 -0.6896
15253TIP3    H267251   1.622   6.116  16.092 -1.2586  2.5340 -0.0165
15254TIP3   OH267252   5.782   4.456  16.397  0.4942  0.0180  0.6435
15254TIP3    H167253   5.782   4.363  16.420  1.0883 -0.1055  0.1698
15254TIP3    H267254   5.874   4.480  16.391  0.3565  0.3714 -0.2903
15255TIP3   OH267255   0.460   6.671   2.120  0.2311  0.1762  0.3963
15255TIP3    H167256   0.521   6.744   2.135  1.1448 -0.5573  0.3690
15255TIP3    H267257   0.491   6.602   2.179 -2.5528  0.8509  2.8990
15256TIP3   OH267258   1.161   0.665  16.938 -0.6018  0.3360  0.1479
15256TIP3    H167259   1.162   0.758  16.917  1.1820  0.2034 -0.4923
15256TIP3    H267260   1.152   0.662  17.033 -0.9696  1.1446  0.1460
15257TIP3   OH267261   6.027   0.415  15.450 -0.1807  0.1976 -0.4233
15257TIP3    H167262   5.963   0.482  15.473  0.1966  0.0301  1.2779
15257TIP3    H267263   6.015   0.347  15.517  3.0019  1.0071  1.1744
15258TIP3   OH267264   4.791   3.559  10.689  0.0289 -0.7222  0.0004
15258TIP3    H167265   4.834   3.630  10.736 -0.2216 -1.1819  0.9545
15258TIP3    H267266   4.840   3.481  10.713  1.3318 -0.6896 -2.3458
15259TIP3   OH267267   2.841   0.007  15.724 -0.3551 -0.0620 -0.0234
15259TIP3    H167268   2.836  -0.063  15.790  0.1765 -0.3890 -0.3294
15259TIP3    H267269   2.934   0.016  15.705 -0.4871  0.1998 -0.5595
15260TIP3   OH267270   3.928   6.671  11.055 -0.1370  0.4072 -0.1183
15260TIP3    H167271   3.967   6.584  11.063 -0.4236  0.3317  0.4864
15260TIP3    H267272   3.869   6.664  10.980  0.1111  0.1866 -0.2942
15261TIP3   OH267273   0.617   6.174   1.013 -0.0223  0.3865  0.4890
15261TIP3    H167274   0.638   6.259   0.973  0.5949  0.8594  1.7602
15261TIP3    H267275   0.523   6.165   1.002  0.2144  0.0147 -1.9279
15262TIP3   OH267276   5.162   0.466   1.734 -0.4512  0.0770  0.0087
15262TIP3    H167277   5.076   0.423   1.728 -0.5905  0.0772  1.5693
15262TIP3    H267278   5.222   0.397   1.762 -0.6309  0.7635  2.2892
15263TIP3   OH267279   2.201   6.749   2.525 -0.0432  0.1948 -0.4121
15263TIP3    H167280   2.237   6.707   2.446 -0.9286  2.1220 -1.9198
15263TIP3    H267281   2.265   6.816   2.548  0.5378 -0.7820  0.9699
15264TIP3   OH267282   5.366   2.740  13.480  0.5787 -0.0699 -0.1023
15264TIP3    H167283   5.328   2.828  13.478 -0.7242 -0.6155 -1.2260
15264TIP3    H267284   5.444   2.749  13.535 -0.0715  1.5585  0.6315
15265TIP3   OH267285   4.131   4.138   2.981 -0.7157 -0.4795 -0.1086
15265TIP3    H167286   4.102   4.070   3.042  1.3783 -0.2585  1.2805
15265TIP3    H267287   4.072   4.212   2.997 -1.2863 -1.0340  0.3842
15266TIP3   OH267288   3.782   0.129  10.970 -0.3824 -0.3075  0.0540
15266TIP3    H167289   3.802   0.066  10.901 -1.9128 -0.4009 -0.3365
15266TIP3    H267290   3.844   0.201  10.956  1.5159 -1.7543  0.6155
15267TIP3   OH267291   0.570   2.645  13.009  0.3722 -0.2589  0.0259
15267TIP3    H167292   0.617   2.600  12.939 -0.0734 -0.7706  0.0504
15267TIP3    H267293   0.528   2.575  13.059 -0.7721  0.2060 -0.2589
15268TIP3   OH267294   0.745   5.424   3.820 -0.2313  0.1070 -0.8494
15268TIP3    H167295   0.758   5.425   3.725 -0.5118  1.4343 -0.8860
15268TIP3    H267296   0.827   5.388   3.855 -0.3049 -0.8332 -1.6026
15269TIP3   OH267297   3.127   1.332  12.226  0.0337 -0.3484 -0.0074
15269TIP3    H167298   3.089   1.269  12.288 -1.7349  2.2355  1.7496
15269TIP3    H267299   3.113   1.293  12.140 -3.4560 -1.2145  0.8181
15270TIP3   OH267300   3.962   5.695   3.079 -0.2144 -0.2904 -0.0293
15270TIP3    H167301   4.031   5.697   3.145  0.3562  0.3943 -0.6334
15270TIP3    H267302   3.922   5.781   3.083 -2.7173 -1.4139  2.0035
15271TIP3   OH267303   6.758   1.680  12.747  0.6733 -0.2788  0.2065
15271TIP3    H167304   6.793   1.747  12.806 -1.4132  0.9324  0.1571
15271TIP3    H267305   6.720   1.615  12.806  0.7492 -0.3169  0.2146
15272TIP3   OH267306   3.227   5.951  14.040 -0.3541 -0.2467  0.6343
15272TIP3    H167307   3.307   5.994  14.072 -0.2912 -0.1399  0.3392
15272TIP3    H267308   3.156   6.001  14.079 -0.3074  1.1221 -0.9347
15273TIP3   OH267309   3.709   2.547   1.549  0.0518  0.0707  0.2497
15273TIP3    H167310   3.748   2.462   1.571 -0.8038 -0.3085  0.3853
15273TIP3    H267311   3.680   2.583   1.633 -1.9503 -0.7349 -0.0185
15274TIP3   OH267312   0.279   6.185   0.819  0.7337 -0.0709 -0.2787
15274TIP3    H167313   0.253   6.093   0.815  1.0693 -0.1947  0.2193
15274TIP3    H267314   0.224   6.229   0.754  1.0402 -0.7322 -1.0031
15275TIP3   OH267315   2.355   4.153  13.903  0.8016 -0.3886 -0.1548
15275TIP3    H167316   2.291   4.179  13.837  1.7211 -0.7275 -1.1946
15275TIP3    H267317   2.436   4.196  13.876  0.9011  0.6266  1.5356
15276TIP3   OH267318   4.122   1.765   5.656  0.3241 -0.4089  0.3929
15276TIP3    H167319   4.032   1.736   5.667  0.1725  0.7991  3.0536
15276TIP3    H267320   4.150   1.726   5.572 -1.8538 -2.7742  0.6370
15277TIP3   OH267321   3.128   5.474   1.839 -0.7679 -0.3822  0.0084
15277TIP3    H167322   3.142   5.429   1.922 -1.1896  1.3407  1.0624
15277TIP3    H267323   3.198   5.538   1.833 -1.6148  0.5517 -0.2068
15278TIP3   OH267324   6.053   4.209   0.335  0.4361 -0.1984 -0.5109
15278TIP3    H167325   6.081   4.156   0.260  0.4271  0.6546 -1.1375
15278TIP3    H267326   6.110   4.181   0.407 -0.2013 -1.7200 -0.5583
15279TIP3   OH267327   5.609   1.861   4.682  0.2715 -0.1886  0.3189
15279TIP3    H167328   5.514   1.875   4.681  0.4199  1.0072  1.0896
15279TIP3    H267329   5.639   1.895   4.598  0.3844  2.6356  1.3945
15280TIP3   OH267330   3.398   2.195   5.033  0.3113 -0.4832  0.2497
15280TIP3    H167331   3.312   2.160   5.011 -0.4050  1.4597 -0.2178
15280TIP3    H267332   3.459   2.125   5.009 -1.0152 -1.3421 -0.7479
15281TIP3   OH267333   2.395   3.456   0.327 -0.2080 -0.0158  0.5161
15281TIP3    H167334   2.384   3.550   0.333  0.1428  0.1198 -0.7391
15281TIP3    H267335   2.317   3.420   0.368 -1.8611  0.8570 -1.6862
15282TIP3   OH267336   3.563   0.926   3.621  0.4710 -0.1696  0.2852
15282TIP3    H167337   3.636   0.984   3.600  0.3200 -0.0785  0.0107
15282TIP3    H267338   3.581   0.897   3.711  1.5869 -1.2243 -0.2327
15283TIP3   OH267339   5.237   5.001  11.800  0.3715  0.0677  0.1671
15283TIP3    H167340   5.186   5.008  11.882 -0.6736 -0.5799 -0.4024
15283TIP3    H267341   5.173   4.973  11.735  1.5619 -1.1960 -0.4990
15284TIP3   OH267342   5.377   0.366   0.051  0.1953  0.2298  0.1290
15284TIP3    H167343   5.440   0.311   0.098  0.5125  1.5191  1.2881
15284TIP3    H267344   5.415   0.454   0.055 -1.2790  0.8872  0.1262
15285TIP3   OH267345   4.735   4.383  12.495  0.3298 -0.3080  0.1889
15285TIP3    H167346   4.724   4.337  12.412 -1.8349  0.9289 -0.2818
15285TIP3    H267347   4.689   4.329  12.559  1.8887 -1.1952  0.6129
15286TIP3   OH267348   3.959   2.428   1.859  0.0891 -0.1080 -0.3604
15286TIP3    H167349   3.871   2.392   1.850  0.0544 -0.3567  0.8150
15286TIP3    H267350   3.999   2.375   1.929  0.6435  0.9892  0.1688
15287TIP3   OH267351   5.337   1.107  16.289  0.2769  0.0213  0.2263
15287TIP3    H167352   5.384   1.165  16.349  0.7324  1.2389 -1.2157
15287TIP3    H267353   5.276   1.058  16.344  0.6197  1.1328  1.6434
15288TIP3   OH267354   0.551   5.408  11.299  0.3222  0.5047  0.4045
15288TIP3    H167355   0.612   5.463  11.250  0.4053  1.0179  1.0696
15288TIP3    H267356   0.547   5.448  11.386 -0.7716  0.3300  0.4462
15289TIP3   OH267357   1.084   3.087  12.804  0.6143 -0.2327 -0.0434
15289TIP3    H167358   1.038   3.136  12.872  0.2278 -0.3182 -0.2380
15289TIP3    H267359   1.016   3.033  12.764  0.5607  0.7468 -1.3385
15290TIP3   OH267360   4.632   2.834   2.161  0.6278 -0.2401  0.5102
15290TIP3    H167361   4.637   2.877   2.247 -0.2312  1.7521 -0.3561
15290TIP3    H267362   4.722   2.833   2.129  0.7225  0.5867  0.7270
15291TIP3   OH267363   0.588   0.069   2.809 -0.5570 -0.1547 -0.8589
15291TIP3    H167364   0.547   0.069   2.722 -1.3564 -1.7486 -0.5306
15291TIP3    H267365   0.580  -0.022   2.839  0.2745  0.2250  0.6241
15292TIP3   OH267366   5.002   0.081   4.262 -0.0601 -0.0478 -0.3644
15292TIP3    H167367   5.054   0.011   4.299  0.5237  0.4100 -0.2963
15292TIP3    H267368   4.947   0.113   4.334  1.1432  0.9084  0.1620
15293TIP3   OH267369   0.466   0.743   1.332 -0.3167  0.5183 -0.1863
15293TIP3    H167370   0.516   0.791   1.398  0.1916  0.8290 -0.7881
15293TIP3    H267371   0.508   0.656   1.329 -0.6826  0.3195  0.2761
15294TIP3   OH267372   4.022   2.552  12.801 -0.5442 -0.5630 -0.3234
15294TIP3    H167373   3.940   2.551  12.752 -1.2724 -0.4818  0.8606
15294TIP3    H267374   4.040   2.645  12.817  0.6917 -0.4568 -2.0049
15295TIP3   OH267375   3.744   0.126  12.172  0.7509  0.9284  0.1983
15295TIP3    H167376   3.709   0.053  12.122  1.4982  1.0386 -0.5012
15295TIP3    H267377   3.829   0.094  12.204  1.8727  2.0305 -1.5136
15296TIP3   OH267378   1.648   6.693  17.050  0.0161 -0.8148 -0.4259
15296TIP3    H167379   1.732   6.727  17.080 -0.0733 -0.9284 -0.0381
15296TIP3    H267380   1.663   6.599  17.040 -0.7575 -1.3001  2.1963
15297TIP3   OH267381   5.869   4.299   4.089  0.4542 -0.2055  0.0610
15297TIP3    H167382   5.910   4.325   4.171  1.3200 -1.6244  0.1190
15297TIP3    H267383   5.838   4.210   4.105  0.8049 -0.5753 -1.2023
15298TIP3   OH267384   5.979   4.321  14.217  0.6826  0.3789  0.3037
15298TIP3    H167385   5.995   4.238  14.262  0.5199  0.5817  0.7498
15298TIP3    H267386   6.006   4.388  14.280  0.8980  0.6609 -0.0882
15299TIP3   OH267387   0.611   6.206   1.661 -0.7334 -0.3840 -0.2876
15299TIP3    H167388   0.681   6.146   1.689 -0.5409  0.2379  0.5939
15299TIP3    H267389   0.565   6.158   1.592  0.3549 -0.9390 -0.6530
15300TIP3   OH267390   0.674   4.431   5.352  0.6932 -0.5428  0.2398
15300TIP3    H167391   0.749   4.400   5.301 -0.3272 -0.2568 -1.5209
15300TIP3    H267392   0.712   4.493   5.415  1.8778  0.1867 -1.1281
15301TIP3   OH267393   3.585   0.194  14.850  0.1450 -0.0504 -0.4652
15301TIP3    H167394   3.555   0.106  14.871 -1.6002  0.7871  0.8445
15301TIP3    H267395   3.546   0.213  14.765 -1.5818  0.3218  0.3684
15302TIP3   OH267396   1.511   4.613  13.473 -0.7897 -0.4024  0.6280
15302TIP3    H167397   1.592   4.585  13.515 -1.4198 -1.5370  1.1405
15302TIP3    H267398   1.525   4.705  13.452  1.3507 -1.0119 -1.0037
15303TIP3   OH267399   1.535   1.949  13.062  0.0933 -0.2156 -0.2703
15303TIP3    H167400   1.583   1.936  12.980  1.3511  3.1682 -0.2090
15303TIP3    H267401   1.602   1.970  13.126 -0.9941 -1.6566  1.4321
15304TIP3   OH267402   0.610   3.409   1.809  0.2119  0.4648  0.2982
15304TIP3    H167403   0.696   3.448   1.792  1.1223 -1.3486  0.4742
15304TIP3    H267404   0.610   3.329   1.757 -1.9863  1.1337 -0.8641
15305TIP3   OH267405   3.657   1.589  15.468 -0.1669  0.4139  0.5267
15305TIP3    H167406   3.644   1.510  15.519 -1.4578 -0.4027 -0.9680
15305TIP3    H267407   3.666   1.559  15.378 -1.8564  1.9719 -0.2500
15306TIP3   OH267408   1.290   6.234   1.193 -0.1446  0.2044 -0.2824
15306TIP3    H167409   1.342   6.272   1.263 -0.3749 -1.1510  0.6495
15306TIP3    H267410   1.200   6.240   1.225 -0.2534 -0.4084 -0.4739
15307TIP3   OH267411   3.655   3.405   0.088  0.5652 -0.6060 -0.1370
15307TIP3    H167412   3.619   3.438   0.006 -0.2598  0.8172  0.7350
15307TIP3    H267413   3.598   3.443   0.155  1.6269 -1.1682  1.1207
15308TIP3   OH267414   1.277   3.212   4.144 -0.3148  0.0790 -0.4465
15308TIP3    H167415   1.251   3.303   4.158 -1.2194 -0.2224 -0.0956
15308TIP3    H267416   1.210   3.160   4.189  1.0138 -0.7447  0.6522
15309TIP3   OH267417   0.534   4.082  17.071  0.3175 -0.0705 -0.2632
15309TIP3    H167418   0.478   4.022  17.021 -0.1434  1.1461 -1.2648
15309TIP3    H267419   0.616   4.084  17.022  1.0009 -1.2546  0.7800
15310TIP3   OH267420   0.488   2.152  14.771 -0.4620  0.2605 -0.2665
15310TIP3    H167421   0.444   2.229  14.807 -0.5470  0.3495 -0.5566
15310TIP3    H267422   0.500   2.094  14.846  1.1280  1.2534  0.3000
15311TIP3   OH267423   4.646   0.926  16.834 -0.5900  0.6834  0.4880
15311TIP3    H167424   4.614   1.002  16.883 -1.3974 -0.9211  2.5797
15311TIP3    H267425   4.740   0.925  16.851 -0.9834 -0.4688  3.1146
15312TIP3   OH267426   3.434   5.960   5.586  0.2576 -0.0354  0.5648
15312TIP3    H167427   3.428   6.020   5.661  0.9085  1.2169 -0.3577
15312TIP3    H267428   3.516   5.983   5.543 -0.8353  0.3554 -1.4223
15313TIP3   OH267429   1.429   5.002  16.515  0.1137  0.1352  0.3668
15313TIP3    H167430   1.449   5.011  16.608  1.4538  1.7076 -0.0349
15313TIP3    H267431   1.391   5.086  16.489 -1.4222 -0.7081 -0.2747
15314TIP3   OH267432   1.243   2.018   1.263 -0.1443 -0.5206 -0.1447
15314TIP3    H167433   1.313   2.084   1.270 -0.9835  0.4621 -0.6542
15314TIP3    H267434   1.206   2.013   1.351  0.0397 -0.4344 -0.0620
15315TIP3   OH267435   3.737   3.127   3.702  0.4045 -0.3087 -0.2510
15315TIP3    H167436   3.826   3.127   3.737  1.1797 -1.0288 -2.1157
15315TIP3    H267437   3.708   3.036   3.712 -0.6809  0.1962  1.5962
15316TIP3   OH267438   4.989   3.289  17.029 -0.4984  0.2851 -0.0515
15316TIP3    H167439   4.899   3.263  17.044 -0.4225 -0.2610 -0.5077
15316TIP3    H267440   4.986   3.385  17.024 -1.3694  0.1938 -1.9694
15317TIP3   OH267441   2.150   5.053  14.455 -0.0954 -0.0388 -0.6908
15317TIP3    H167442   2.192   5.140  14.452  0.8245 -0.4440  0.1355
15317TIP3    H267443   2.210   4.996  14.406 -0.7868 -0.1920 -1.3863
15318TIP3   OH267444   3.710   0.626  11.823 -0.7682  0.4964 -0.2686
15318TIP3    H167445   3.698   0.596  11.913  1.2491  1.0354  0.2418
15318TIP3    H267446   3.690   0.549  11.769 -2.0593  0.1894  0.6217
15319TIP3   OH267447   0.903   2.416  17.014  0.2597 -0.6810 -0.4613
15319TIP3    H167448   0.937   2.459  16.936 -0.8344 -1.3500 -1.3508
15319TIP3    H267449   0.967   2.349  17.036  0.8587 -0.1014 -0.4167
15320TIP3   OH267450   0.781   3.122  11.780 -0.4634  0.3095 -0.0652
15320TIP3    H167451   0.854   3.178  11.752  0.4908 -0.3481  1.0461
15320TIP3    H267452   0.799   3.104  11.872 -0.2612 -2.5280 -0.5682
15321TIP3   OH267453   0.567   5.325  11.886 -0.4423 -0.1160  0.1896
15321TIP3    H167454   0.591   5.287  11.801  1.2592 -0.2023  0.6695
15321TIP3    H267455   0.646   5.369  11.916 -1.2407  0.5536  1.4069
15322TIP3   OH267456   4.470   1.500  10.922  0.6132 -0.1330 -0.2078
15322TIP3    H167457   4.450   1.493  10.829  0.9950 -2.2794 -0.1848
15322TIP3    H267458   4.532   1.573  10.928 -0.8391  1.2641 -1.3402
15323TIP3   OH267459   0.050   2.862   5.553  0.3315 -1.0393 -0.0177
15323TIP3    H167460   0.133   2.891   5.592  0.1261 -0.3378 -0.0896
15323TIP3    H267461  -0.005   2.839   5.628  0.0744 -0.0664  0.1113
15324TIP3   OH267462   1.487   6.829   3.014 -0.2856  0.2364  0.3713
15324TIP3    H167463   1.469   6.836   2.920 -0.0824 -2.9874 -0.0236
15324TIP3    H267464   1.576   6.796   3.019 -0.2745  0.4238  1.7339
15325TIP3   OH267465   0.709   2.316  16.027 -0.1289  0.1543 -0.3178
15325TIP3    H167466   0.790   2.366  16.039 -0.3006 -0.0091  1.8966
15325TIP3    H267467   0.650   2.349  16.094 -1.9231  0.2260 -1.8589
15326TIP3   OH267468   6.469   1.644  16.384  0.2248  0.1997 -0.4563
15326TIP3    H167469   6.436   1.713  16.327 -1.0373  0.7068  0.8234
15326TIP3    H267470   6.482   1.688  16.469  0.2295 -0.9452  0.1523
15327TIP3   OH267471   0.019   0.367   0.717 -0.0823 -0.4214 -0.0514
15327TIP3    H167472   0.031   0.323   0.801  1.3376  4.0626  2.4567
15327TIP3    H267473   0.109   0.386   0.688 -0.6169  0.2339 -1.3303
15328TIP3   OH267474   2.662   2.654   5.913  0.0511  0.2102  0.8101
15328TIP3    H167475   2.646   2.594   5.987 -0.0355  0.0040  0.6251
15328TIP3    H267476   2.689   2.736   5.955 -0.1328  0.1375  1.0770
15329TIP3   OH267477   3.001   6.352   4.242  0.2799 -0.1557  0.2852
15329TIP3    H167478   3.034   6.441   4.247  2.3886 -0.8846  0.2974
15329TIP3    H267479   2.972   6.342   4.151  1.1957  0.1931 -0.0595
15330TIP3   OH267480   6.779   4.063  12.968  0.2636 -0.1104 -0.2920
15330TIP3    H167481   6.818   4.009  13.036  0.4247 -1.2497 -1.2507
15330TIP3    H267482   6.686   4.070  12.992  0.4949  0.2842  0.5168
15331TIP3   OH267483   6.518   3.531   0.046 -0.4837  0.7956 -0.1904
15331TIP3    H167484   6.477   3.616   0.030  0.0715  1.0150 -0.4760
15331TIP3    H267485   6.604   3.553   0.083 -1.7841  0.3614  3.5925
15332TIP3   OH267486   3.137   5.780  14.951 -0.1172 -0.1378  0.0494
15332TIP3    H167487   3.196   5.850  14.977  0.7409 -0.4803 -0.9016
15332TIP3    H267488   3.154   5.767  14.857  0.5299 -2.3327  0.4001
15333TIP3   OH267489   2.729   6.032  16.779  0.4021  0.2723  0.3505
15333TIP3    H167490   2.772   5.966  16.833  0.4434 -0.6717 -0.7771
15333TIP3    H267491   2.787   6.108  16.782  1.3573 -0.4307  0.1213
15334TIP3   OH267492   4.449   1.936   4.698 -0.1549 -1.2217  0.2379
15334TIP3    H167493   4.467   1.947   4.791  1.2921 -0.7069 -0.0766
15334TIP3    H267494   4.447   2.025   4.662 -0.2946 -1.4329 -0.2996
15335TIP3   OH267495   5.105   6.174  14.407 -1.1412 -0.0577  0.7987
15335TIP3    H167496   5.091   6.082  14.388 -0.3351 -0.2763  1.2258
15335TIP3    H267497   5.036   6.198  14.469 -1.0328 -0.5105  1.0949
15336TIP3   OH267498   5.851   2.882   1.370 -0.2293  0.2520 -0.1380
15336TIP3    H167499   5.761   2.911   1.383 -0.2748  0.4956 -0.9364
15336TIP3    H267500   5.874   2.912   1.282  0.0695 -1.2433 -0.5994
15337TIP3   OH267501   1.333   2.765   2.768  0.4623 -0.3543  0.0688
15337TIP3    H167502   1.337   2.672   2.745 -1.0263  0.0342 -2.0451
15337TIP3    H267503   1.246   2.793   2.740  0.5998  1.5507  1.3411
15338TIP3   OH267504   2.703   4.254   1.844 -0.1652 -0.4804 -0.1041
15338TIP3    H167505   2.620   4.285   1.808  0.7184  0.2306 -1.6209
15338TIP3    H267506   2.768   4.313   1.807  1.0528 -1.1622  0.8840
15339TIP3   OH267507   6.805   4.984  11.723  0.3885 -0.0811 -0.2452
15339TIP3    H167508   6.748   4.920  11.680 -0.9277  0.3735  0.7667
15339TIP3    H267509   6.800   4.962  11.816 -0.5545  1.8026  0.1959
15340TIP3   OH267510   0.125   4.041  17.168  0.0106  0.1058 -0.0516
15340TIP3    H167511   0.124   4.119  17.224  0.9648 -0.3486  0.6449
15340TIP3    H267512   0.141   3.969  17.229  1.0258 -0.4134 -0.8912
15341TIP3   OH267513   2.922   6.498  11.761 -0.1546  1.0881 -0.5868
15341TIP3    H167514   3.010   6.536  11.772  0.2224  0.0629  0.1558
15341TIP3    H267515   2.871   6.534  11.834 -0.5454  2.1637 -1.3685
15342TIP3   OH267516   0.522   6.766  14.009 -0.3035 -0.6401 -0.1268
15342TIP3    H167517   0.581   6.748  14.083 -0.6525 -0.4174  0.2085
15342TIP3    H267518   0.575   6.818  13.948 -0.6179  0.9918  0.9148
15343TIP3   OH267519   6.376   1.844  16.257  0.0598 -0.2859  0.2150
15343TIP3    H167520   6.283   1.865  16.247  0.1397 -0.9177 -2.4307
15343TIP3    H267521   6.415   1.863  16.172  2.6953  1.2890  1.6434
15344TIP3   OH267522   4.968   3.667  15.503 -0.0047 -0.2284 -0.3595
15344TIP3    H167523   4.886   3.626  15.531  0.8155 -1.1806  0.7784
15344TIP3    H267524   5.020   3.673  15.583  1.4279 -0.6120 -1.2216
15345TIP3   OH267525   5.400   5.077  16.518 -0.3299  0.2364 -0.0399
15345TIP3    H167526   5.488   5.110  16.499  0.0246 -0.8878 -0.4994
15345TIP3    H267527   5.413   4.983  16.532 -1.5001  0.0027 -0.4189
15346TIP3   OH267528   4.193   0.396   1.783  0.3447  0.1681 -0.0394
15346TIP3    H167529   4.164   0.305   1.784  1.3292 -0.1618  0.5874
15346TIP3    H267530   4.120   0.445   1.820 -0.3956 -0.2911 -0.8622
15347TIP3   OH267531   6.068   2.864   2.682 -0.2162  0.2646 -0.1016
15347TIP3    H167532   5.977   2.840   2.664 -0.8499  1.6562  1.1132
15347TIP3    H267533   6.072   2.958   2.666  0.8724  0.3197  0.4004
15348TIP3   OH267534   3.887   3.891  13.920  0.5188 -0.6662 -0.1210
15348TIP3    H167535   3.923   3.823  13.977 -1.8421 -1.4098  0.6113
15348TIP3    H267536   3.857   3.844  13.842 -1.4183 -0.5817  0.5212
15349TIP3   OH267537   6.600   2.835  14.940  0.2169 -0.0310 -0.2184
15349TIP3    H167538   6.568   2.804  14.855 -1.8617 -1.8994  1.1242
15349TIP3    H267539   6.526   2.883  14.978  2.1558  3.6273 -0.6643
15350TIP3   OH267540   5.207   1.833  16.184  0.1271 -0.5348 -0.3230
15350TIP3    H167541   5.288   1.854  16.231  1.2987 -0.2412 -2.3537
15350TIP3    H267542   5.161   1.773  16.242 -0.5764  2.9043  3.0929
15351TIP3   OH267543   1.524   5.313  10.725 -0.0536  0.2261  0.4816
15351TIP3    H167544   1.574   5.234  10.746 -0.4564  0.3490  2.0416
15351TIP3    H267545   1.524   5.317  10.630  2.9788  0.2733  0.3949
15352TIP3   OH267546   4.972   5.384  16.660  0.1343 -0.0092 -0.0223
15352TIP3    H167547   5.066   5.369  16.655  0.1503 -0.6579  1.4484
15352TIP3    H267548   4.959   5.423  16.747 -0.7921  1.5881 -0.8316
15353TIP3   OH267549   4.649   3.760   2.731  0.0386  0.7850 -0.2903
15353TIP3    H167550   4.668   3.773   2.638 -2.1407 -0.1677 -0.9478
15353TIP3    H267551   4.628   3.667   2.738 -1.1545  1.1105  0.8746
15354TIP3   OH267552   2.615   1.138  11.751  0.0407  0.1963  0.1829
15354TIP3    H167553   2.625   1.148  11.656 -1.3210 -1.8820 -0.2408
15354TIP3    H267554   2.522   1.156  11.767 -0.5942 -2.8298  0.5223
15355TIP3   OH267555   1.412   1.488   3.174 -0.2302 -0.1886 -0.0875
15355TIP3    H167556   1.399   1.575   3.135  0.0786  0.0468  0.3267
15355TIP3    H267557   1.477   1.502   3.242  1.8699 -1.2305 -1.7450
15356TIP3   OH267558   6.237   3.244  14.429  0.0362 -0.4424  0.1696
15356TIP3    H167559   6.160   3.208  14.384  0.3882 -1.6501  0.4887
15356TIP3    H267560   6.286   3.289  14.361 -1.3028  0.9938  0.0932
15357TIP3   OH267561   2.357   0.750  13.279  0.2188 -0.1850  0.5687
15357TIP3    H167562   2.358   0.842  13.253 -2.3455  0.3000  1.8714
15357TIP3    H267563   2.353   0.701  13.197 -1.0588  1.0094 -0.1123
15358TIP3   OH267564   4.669   2.375  15.285 -0.6370  0.3324  0.3510
15358TIP3    H167565   4.731   2.407  15.220 -0.8760 -2.5876 -1.4756
15358TIP3    H267566   4.589   2.426  15.270 -1.0434 -0.9914 -2.4581
15359TIP3   OH267567   6.684   4.298  15.851 -0.0065 -0.1369  0.4518
15359TIP3    H167568   6.731   4.373  15.887  0.5168 -0.6542  0.8543
15359TIP3    H267569   6.624   4.271  15.920 -0.6185  0.2597  0.0923
15360TIP3   OH267570   2.610   3.118   5.349 -0.3404  0.4927  0.3010
15360TIP3    H167571   2.671   3.184   5.317 -0.5241  1.2343  1.4167
15360TIP3    H267572   2.662   3.064   5.408  0.1155 -1.1615 -1.4975
15361TIP3   OH267573   4.229   1.316  16.185 -0.2861 -0.3612 -0.0193
15361TIP3    H167574   4.324   1.323  16.182 -0.3897  0.9835 -0.9710
15361TIP3    H267575   4.211   1.267  16.266  1.2050 -0.9471 -0.0075
15362TIP3   OH267576   6.224   1.324  16.106 -0.6552  0.0191  0.1341
15362TIP3    H167577   6.286   1.330  16.179 -2.3386  3.3974  1.5183
15362TIP3    H267578   6.153   1.269  16.138 -1.2063  1.1758  0.9702
15363TIP3   OH267579   0.285   4.207   2.570  0.5092 -0.8268  0.2862
15363TIP3    H167580   0.375   4.175   2.562  1.1946  1.1605 -0.5523
15363TIP3    H267581   0.237   4.161   2.502  1.1995 -0.9541 -0.1260
15364TIP3   OH267582   2.035   3.258  12.394 -0.2881 -0.5644 -0.2496
15364TIP3    H167583   2.014   3.316  12.320  0.6220 -1.3396 -1.1540
15364TIP3    H267584   2.129   3.242  12.385 -0.1726 -0.7098  1.0736
15365TIP3   OH267585   3.244   6.822  11.375  0.1822 -0.1108 -0.4130
15365TIP3    H167586   3.202   6.785  11.453  0.7758  2.2746  1.1497
15365TIP3    H267587   3.295   6.749  11.339  2.3206 -0.6902  3.2117
15366TIP3   OH267588   1.887   5.590   0.209  0.7772  0.3449  0.2801
15366TIP3    H167589   1.948   5.587   0.135  4.1234 -1.7670  2.8433
15366TIP3    H267590   1.921   5.659   0.266 -1.3218  1.4515  0.2960
15367TIP3   OH267591   3.297   2.642   1.020 -0.5901 -1.0227  0.6682
15367TIP3    H167592   3.307   2.548   1.007  0.5896 -0.9378  0.8662
15367TIP3    H267593   3.383   2.672   1.048 -1.3317 -0.1177  2.1026
15368TIP3   OH267594   5.634   1.059  13.671 -0.2596  0.2442  0.0967
15368TIP3    H167595   5.623   0.977  13.624  0.6701  0.6286 -0.8093
15368TIP3    H267596   5.569   1.118  13.632  1.4543  1.0031 -1.7879
15369TIP3   OH267597   3.057   2.783   4.008 -0.3477 -0.5564  0.4511
15369TIP3    H167598   3.092   2.869   3.983 -1.0369 -0.4556 -0.1967
15369TIP3    H267599   3.105   2.720   3.955 -0.5473 -0.4873  0.1870
15370TIP3   OH267600   3.697   1.896  13.934  0.0304 -0.4032 -0.1573
15370TIP3    H167601   3.713   1.990  13.924 -2.4580  0.1911  0.6403
15370TIP3    H267602   3.756   1.868  14.004 -0.4119  0.9885  0.8150
15371TIP3   OH267603   4.014   6.604   3.660  0.0669  0.0085  0.2454
15371TIP3    H167604   3.923   6.614   3.631  0.8482 -0.3256 -2.5916
15371TIP3    H267605   4.029   6.509   3.658  0.2814 -0.0030  1.5049
15372TIP3   OH267606   6.554   6.363   3.924 -0.1413 -0.3096  0.8509
15372TIP3    H167607   6.639   6.359   3.968 -0.8703 -1.4988  2.2291
15372TIP3    H267608   6.564   6.433   3.859  3.1955 -2.8631 -1.8099
15373TIP3   OH267609   6.534   6.829   4.003  0.4173 -0.2253  0.6316
15373TIP3    H167610   6.584   6.810   3.923 -1.8338 -2.3812 -0.4268
15373TIP3    H267611   6.558   6.759   4.063 -0.8382 -0.9585  0.3122
15374TIP3   OH267612   1.270   6.458  15.797 -0.2289  0.1967  1.0526
15374TIP3    H167613   1.287   6.422  15.884 -0.4375 -1.3910  0.4601
15374TIP3    H267614   1.329   6.410  15.739  0.3523  1.6664  0.3739
15375TIP3   OH267615   3.527   1.335  11.377 -0.2963 -0.2130 -0.0676
15375TIP3    H167616   3.587   1.305  11.445 -1.3513 -0.7221  0.6671
15375TIP3    H267617   3.580   1.395  11.323  0.1582  1.4929  2.1366
15376TIP3   OH267618   0.647   2.143  13.243  0.8077  0.6562 -0.0079
15376TIP3    H167619   0.708   2.074  13.271 -1.0882 -0.7173  0.9584
15376TIP3    H267620   0.682   2.223  13.282  2.4690  0.0812 -0.2451
15377TIP3   OH267621   0.420   0.174  11.985  0.5393 -0.4757  0.0207
15377TIP3    H167622   0.457   0.253  11.946 -0.7601  0.6557  1.0014
15377TIP3    H267623   0.439   0.105  11.921  0.2550  0.9175 -1.6593
15378TIP3   OH267624   4.597   3.254   4.549  0.4222 -0.3847  0.1191
15378TIP3    H167625   4.668   3.217   4.496  2.3627  1.4664  1.2547
15378TIP3    H267626   4.540   3.297   4.485  0.6937 -1.2970 -0.7690
15379TIP3   OH267627   5.932   2.668   3.726 -0.0965  0.2788 -0.2881
15379TIP3    H167628   5.952   2.585   3.769  0.2128  1.2882  1.6342
15379TIP3    H267629   5.978   2.663   3.642  0.6450 -1.1320  0.1727
15380TIP3   OH267630   3.092   6.079   4.668  0.3982  0.2776  0.0215
15380TIP3    H167631   3.025   6.142   4.643 -0.8390 -0.9859  0.0142
15380TIP3    H267632   3.159   6.086   4.600  0.8001  2.2772  0.5783
15381TIP3   OH267633   2.495   6.805   2.224 -0.1019 -0.2977  0.6073
15381TIP3    H167634   2.588   6.787   2.238  0.0812  0.5339  0.5141
15381TIP3    H267635   2.493   6.858   2.144 -0.6701 -0.4480  0.5174
15382TIP3   OH267636   5.250   0.541  10.921  0.0063 -0.4405  0.4042
15382TIP3    H167637   5.223   0.629  10.949  1.4714 -0.7186  3.0321
15382TIP3    H267638   5.280   0.553  10.831 -2.1637  1.1986 -0.2171
15383TIP3   OH267639   5.643   4.529   4.939  0.0774 -0.5796 -0.6091
15383TIP3    H167640   5.669   4.618   4.963  1.9020 -1.2455  0.1200
15383TIP3    H267641   5.571   4.507   4.998  1.5543 -0.5824  1.3015
15384TIP3   OH267642   0.629   2.130   1.155  0.0560  0.1143  0.5902
15384TIP3    H167643   0.627   2.216   1.113  2.8442 -0.6128 -1.3010
15384TIP3    H267644   0.593   2.070   1.090  0.7673 -0.5065  0.7490
15385TIP3   OH267645   5.030   1.193   5.190 -0.3334 -0.4400 -0.1122
15385TIP3    H167646   5.070   1.140   5.259 -0.2548 -0.4098 -0.1341
15385TIP3    H267647   5.094   1.262   5.173  0.0317 -0.9275 -0.8065
15386TIP3   OH267648   1.497   5.727  11.251 -0.0190 -0.7837 -0.5375
15386TIP3    H167649   1.588   5.712  11.226  0.0367 -1.0093 -0.2014
15386TIP3    H267650   1.455   5.757  11.171  0.5723  0.2845 -0.4595
15387TIP3   OH267651   3.016   3.708   0.472 -0.3114  0.5149 -0.5594
15387TIP3    H167652   3.048   3.678   0.387 -3.0416  1.7535 -2.1400
15387TIP3    H267653   2.970   3.632   0.508 -1.4458  0.7679 -1.4494
15388TIP3   OH267654   4.022   3.053  16.059  0.1907 -0.3724  0.3597
15388TIP3    H167655   4.104   3.102  16.069 -0.0325  0.1505 -0.3477
15388TIP3    H267656   3.963   3.112  16.013  0.2233 -1.6139 -1.4016
15389TIP3   OH267657   5.549   4.439   5.395 -0.0469 -0.4053 -0.1248
15389TIP3    H167658   5.465   4.398   5.374  0.3481 -0.1244 -2.5834
15389TIP3    H267659   5.528   4.532   5.403 -0.1679 -0.4918  0.6649
15390TIP3   OH267660   6.601   6.637   0.854  0.1732 -0.1297  1.0702
15390TIP3    H167661   6.576   6.721   0.816  0.1012  0.1334  1.6879
15390TIP3    H267662   6.524   6.610   0.905  0.7074  0.1251  2.0377
15391TIP3   OH267663   6.290   5.333   0.991  0.2056  0.0967 -0.1473
15391TIP3    H167664   6.198   5.355   0.998 -0.1209 -0.8441 -1.1676
15391TIP3    H267665   6.321   5.382   0.914  0.1338 -0.8533 -0.7986
15392TIP3   OH267666   2.313   1.473   4.502 -0.4762 -0.3817 -0.0723
15392TIP3    H167667   2.366   1.515   4.434 -1.7107  2.4040  0.5342
15392TIP3    H267668   2.371   1.469   4.578 -0.2758  0.0852 -0.1961
15393TIP3   OH267669   4.324   4.927  10.310  0.2275 -0.5110  0.2443
15393TIP3    H167670   4.295   5.007  10.354  0.7216  0.0954 -0.5052
15393TIP3    H267671   4.267   4.858  10.344 -0.6298  0.2740  0.4182
15394TIP3   OH267672   3.118   0.854   6.311 -0.2751  0.2558  0.0899
15394TIP3    H167673   3.188   0.802   6.350 -0.5774 -1.1924 -1.2095
15394TIP3    H267674   3.073   0.895   6.385  1.1716  0.2183  1.0076
15395TIP3   OH267675   2.724   3.444  14.433  0.5892 -0.4608 -0.3162
15395TIP3    H167676   2.722   3.533  14.467 -1.9414 -0.9257  1.0000
15395TIP3    H267677   2.710   3.454  14.339  0.2795  0.5343 -0.1758
15396TIP3   OH267678   5.303   2.358  16.671 -0.7259 -0.4467  0.3279
15396TIP3    H167679   5.213   2.390  16.667 -0.5984 -0.0148  0.7316
15396TIP3    H267680   5.322   2.328  16.583 -1.2215 -0.4122  0.2065
15397TIP3   OH267681   2.995   6.575   5.963  0.3337  0.0220  0.1815
15397TIP3    H167682   2.905   6.575   5.930  0.0106 -1.2478  0.9594
15397TIP3    H267683   3.039   6.644   5.914 -0.4245 -0.9625 -2.0137
15398TIP3   OH267684   6.346   2.820  13.884  0.0247 -0.4621 -0.0109
15398TIP3    H167685   6.361   2.805  13.977 -0.5793 -0.3478  0.1125
15398TIP3    H267686   6.266   2.771  13.865  0.8469 -1.5400 -0.7661
15399TIP3   OH267687   6.636   3.238  16.831  0.1676 -0.7796 -0.0590
15399TIP3    H167688   6.640   3.175  16.903 -0.5296 -2.1726 -1.1975
15399TIP3    H267689   6.550   3.225  16.793  0.7121 -0.4333 -1.4495
15400TIP3   OH267690   4.184   2.004  11.842  0.0302 -0.0448  0.3637
15400TIP3    H167691   4.267   1.963  11.868  0.1584  0.0186  0.0668
15400TIP3    H267692   4.126   1.931  11.823  0.6758 -0.1227 -1.4864
15401TIP3   OH267693   1.478   1.261  13.439 -0.0645 -0.5475 -0.5360
15401TIP3    H167694   1.457   1.179  13.482 -2.7531  0.3454  0.0204
15401TIP3    H267695   1.396   1.289  13.398  1.0866  1.2483 -1.7853
15402TIP3   OH267696   5.146   6.484  13.277  0.1379 -0.5494 -0.5312
15402TIP3    H167697   5.233   6.495  13.237  0.5425 -1.1235  0.1730
15402TIP3    H267698   5.155   6.520  13.365 -1.1788  2.1460 -1.3947
15403TIP3   OH267699   4.387   0.882  15.670 -0.4023  0.2612 -0.3445
15403TIP3    H167700   4.399   0.800  15.623 -2.9128  0.4991 -1.5548
15403TIP3    H267701   4.434   0.869  15.753  2.2638 -0.9957 -1.9157
15404TIP3   OH267702   3.529   1.027  16.326 -0.6697  0.0501 -0.3299
15404TIP3    H167703   3.602   1.080  16.358 -2.0040  0.7755  1.7231
15404TIP3    H267704   3.545   0.940  16.362  0.7283 -0.6575 -2.4563
15405TIP3   OH267705   4.493   0.775  15.900  0.7509  0.1727 -0.5557
15405TIP3    H167706   4.578   0.789  15.942  1.2953 -1.4979 -0.9974
15405TIP3    H267707   4.433   0.831  15.949  1.7129 -0.2088  1.1732
15406TIP3   OH267708   4.493   1.734  12.865 -0.3061  0.1335  0.3630
15406TIP3    H167709   4.417   1.771  12.820 -0.4831 -0.2845  0.3085
15406TIP3    H267710   4.511   1.653  12.817 -1.0923 -0.8177  1.6354
15407TIP3   OH267711   1.713   1.690   1.612 -0.0714 -0.1221 -0.6234
15407TIP3    H167712   1.688   1.761   1.672 -2.8363 -0.2200 -1.5327
15407TIP3    H267713   1.675   1.715   1.528  1.9704 -1.0022 -1.8909
15408TIP3   OH267714   1.337   0.385   5.921  0.0749  0.2254 -0.2995
15408TIP3    H167715   1.409   0.395   5.983 -1.0383  1.3117  0.8858
15408TIP3    H267716   1.271   0.446   5.952 -0.5271  0.8289 -2.6007
15409TIP3   OH267717   0.986   3.393  14.451 -0.0495  0.2340 -0.2114
15409TIP3    H167718   0.953   3.467  14.402 -1.1224  0.1244  0.3166
15409TIP3    H267719   0.936   3.318  14.419  1.0089 -0.2789 -0.7289
15410TIP3   OH267720   5.189   2.451  12.263 -0.1109  0.3899 -0.0679
15410TIP3    H167721   5.216   2.531  12.307 -2.2034  1.1849 -0.0998
15410TIP3    H267722   5.199   2.382  12.329  0.8755  0.8112  0.2388
15411TIP3   OH267723   4.065   5.039   5.645  0.2124  0.2588  0.3897
15411TIP3    H167724   4.058   4.956   5.598  2.3469  0.9203 -1.2922
15411TIP3    H267725   4.132   5.022   5.712 -0.9435  0.0603  1.5426
15412TIP3   OH267726   5.470   5.838  17.083 -0.6599 -0.0106  0.0294
15412TIP3    H167727   5.408   5.888  17.030 -1.0147  0.2997  0.7320
15412TIP3    H267728   5.552   5.841  17.033 -1.3228 -0.8573 -1.1702
15413TIP3   OH267729   6.060   6.474  13.602 -0.2673 -0.3286  0.1623
15413TIP3    H167730   6.104   6.559  13.598  2.2069 -1.5199  0.1146
15413TIP3    H267731   6.016   6.473  13.687  0.0456  0.8226  0.3511
15414TIP3   OH267732   1.609   5.929  12.055  0.3575 -0.2487 -0.5683
15414TIP3    H167733   1.622   5.940  11.961  0.9520  1.1753 -0.3396
15414TIP3    H267734   1.656   5.848  12.076  0.4542 -0.4352 -1.4343
15415TIP3   OH267735   3.196   5.836   5.588  0.3109  0.2685  0.3842
15415TIP3    H167736   3.281   5.881   5.586  0.4863 -0.0402  0.7877
15415TIP3    H267737   3.216   5.747   5.557  0.5277 -0.4269  2.3502
15416TIP3   OH267738   6.031   4.489   0.384  0.1026 -0.1771  0.4615
15416TIP3    H167739   5.941   4.471   0.357  0.3824 -1.5131  0.3804
15416TIP3    H267740   6.074   4.404   0.384  1.3949  0.4487  0.4348
15417TIP3   OH267741   3.953   5.842  14.666  0.7329  0.5273 -0.4196
15417TIP3    H167742   3.948   5.915  14.728 -1.5731 -0.3140  0.4750
15417TIP3    H267743   3.913   5.876  14.586  1.4854  0.8253 -0.6889
15418TIP3   OH267744   1.702   3.498  13.174  0.1722  0.0975  0.2189
15418TIP3    H167745   1.691   3.411  13.212  0.6123 -0.9197 -1.8092
15418TIP3    H267746   1.612   3.529  13.160  0.0115 -0.0550  0.8743
15419TIP3   OH267747   6.336   1.594   4.878 -0.3648 -0.2462  0.1883
15419TIP3    H167748   6.324   1.635   4.792  2.0789  2.0982  0.8158
15419TIP3    H267749   6.274   1.639   4.935  2.1904  2.7744  0.8367
15420TIP3   OH267750   4.609   1.523   1.249 -0.0666  0.9335 -0.4932
15420TIP3    H167751   4.589   1.504   1.341 -0.0098 -0.6122 -0.7740
15420TIP3    H267752   4.698   1.558   1.250  1.3572 -2.2910 -0.2079
15421TIP3   OH267753   3.350   0.079   1.078  0.4756  0.1052  0.1626
15421TIP3    H167754   3.329   0.140   1.007  0.8710 -0.1386 -0.1626
15421TIP3    H267755   3.327  -0.007   1.043 -1.0337  0.1419  0.9769
15422TIP3   OH267756   0.046   0.924   4.416 -0.3569 -0.5049 -0.1037
15422TIP3    H167757   0.048   0.829   4.426 -0.2526 -0.5740 -0.7321
15422TIP3    H267758   0.052   0.939   4.321 -0.6370  0.1209 -0.0311
15423TIP3   OH267759   1.952   5.243  12.558 -0.7151 -0.0913 -0.7454
15423TIP3    H167760   1.952   5.179  12.630  1.5753  0.7472  0.0769
15423TIP3    H267761   1.866   5.285  12.564 -0.4327  0.2682  1.8386
15424TIP3   OH267762   4.758   3.549   4.118 -0.0520  0.1004  0.1042
15424TIP3    H167763   4.749   3.587   4.206 -0.4963  0.8475 -0.2516
15424TIP3    H267764   4.741   3.456   4.130 -0.9313  0.3222  0.6800
15425TIP3   OH267765   4.495   3.049  13.490  0.0066 -0.2330  0.3732
15425TIP3    H167766   4.570   2.989  13.496  0.3580 -0.0264 -1.4676
15425TIP3    H267767   4.433   3.003  13.434 -0.2609  0.5847 -0.0115
15426TIP3   OH267768   5.921   0.013   6.381 -0.0275 -0.3122  0.1942
15426TIP3    H167769   5.835  -0.028   6.381  0.1532 -0.6906  0.5243
15426TIP3    H267770   5.980  -0.052   6.344 -0.1083  0.4415 -1.3234
15427TIP3   OH267771   3.966   1.120  14.480  0.2751  0.9732 -0.4980
15427TIP3    H167772   4.058   1.144  14.488  0.1719  1.8169 -1.6611
15427TIP3    H267773   3.963   1.058  14.408  0.0882 -0.0642  0.3774
15428TIP3   OH267774   4.227   0.204  13.655 -0.1077  0.0920 -0.3533
15428TIP3    H167775   4.178   0.129  13.687  0.1288  0.2917  0.5163
15428TIP3    H267776   4.237   0.261  13.732  0.8057  0.4146 -0.6913
15429TIP3   OH267777   1.203   2.365  11.905  0.4803 -0.0765 -0.1917
15429TIP3    H167778   1.199   2.459  11.924 -0.5974 -0.3451  1.0446
15429TIP3    H267779   1.176   2.358  11.814  1.1225  0.8500 -0.4765
15430TIP3   OH267780   4.925   3.828  14.555  0.0416  0.3650  0.0281
15430TIP3    H167781   4.902   3.876  14.475  1.2604  1.2280  0.1864
15430TIP3    H267782   4.926   3.894  14.624 -1.6971 -0.4853  0.9354
15431TIP3   OH267783   6.242   1.640   0.993  0.7754 -0.3749 -0.7595
15431TIP3    H167784   6.255   1.634   1.088  0.6102 -2.8556 -0.8064
15431TIP3    H267785   6.331   1.650   0.957  0.8604  0.3200 -0.3695
15432TIP3   OH267786   5.717   1.458  13.715  0.2231 -0.1263 -0.4134
15432TIP3    H167787   5.716   1.410  13.632  0.0218  0.3532 -0.6942
15432TIP3    H267788   5.704   1.549  13.689 -0.3025 -0.0310  0.1842
15433TIP3   OH267789   3.298   1.081  15.046 -0.0332  0.5143  0.2148
15433TIP3    H167790   3.333   1.002  15.006 -0.0858 -0.3754  1.8206
15433TIP3    H267791   3.367   1.111  15.105 -1.4940 -0.7594  2.7557
15434TIP3   OH267792   3.383   2.620   2.567  0.5393  0.0543 -0.2046
15434TIP3    H167793   3.336   2.537   2.562  0.1101  0.2453  0.5159
15434TIP3    H267794   3.436   2.623   2.487 -1.0150  0.0559 -1.2712
15435TIP3   OH267795   2.586   1.255  15.012 -0.1436 -0.2839  0.4158
15435TIP3    H167796   2.555   1.203  14.938  0.8840  0.3539 -0.4856
15435TIP3    H267797   2.676   1.225  15.027  0.2435  0.7632  0.2987
15436TIP3   OH267798   6.008   1.454   5.781  0.6356 -0.1674 -0.2695
15436TIP3    H167799   6.102   1.441   5.774  0.8258  1.1081 -0.4607
15436TIP3    H267800   5.988   1.436   5.873  1.0494 -0.5038 -0.2429
15437TIP3   OH267801   6.467   1.720  12.683  0.1034 -0.3945  0.0930
15437TIP3    H167802   6.432   1.684  12.601 -0.1466 -0.7706  0.3626
15437TIP3    H267803   6.562   1.715  12.672  0.0894  0.5421 -0.6002
15438TIP3   OH267804   2.639   2.637   1.476  0.1537  0.0613  0.4261
15438TIP3    H167805   2.684   2.717   1.503 -0.6707  1.0849 -1.0585
15438TIP3    H267806   2.597   2.605   1.556 -2.2950  3.0352  0.5270
15439TIP3   OH267807   4.290   1.671  15.448 -0.3057  0.3419 -0.8449
15439TIP3    H167808   4.204   1.704  15.474  0.3496  0.7189  0.9808
15439TIP3    H267809   4.352   1.715  15.506  1.0155 -0.8090 -1.3080
15440TIP3   OH267810   3.289   4.241   1.529 -0.1176 -0.5966  0.0112
15440TIP3    H167811   3.215   4.283   1.572  0.3066 -1.2089  1.4372
15440TIP3    H267812   3.256   4.211   1.445 -1.1850  0.0631  0.1865
15441TIP3   OH267813   0.063   0.929  15.424  0.6132 -0.0869 -0.0725
15441TIP3    H167814   0.060   0.887  15.338 -0.2174  0.6545 -0.4089
15441TIP3    H267815   0.005   0.876  15.478  0.2853  0.0842 -0.2558
15442TIP3   OH267816   1.285   0.952   4.357  1.5521  0.1675 -0.1504
15442TIP3    H167817   1.251   0.962   4.445  1.7473 -0.6406  0.0249
15442TIP3    H267818   1.269   0.860   4.335  0.3476  0.6494 -1.4512
15443TIP3   OH267819   5.057   1.148  11.882  0.1542  0.2002 -0.1254
15443TIP3    H167820   5.153   1.150  11.890  0.3021 -2.0203 -0.9266
15443TIP3    H267821   5.027   1.116  11.967  0.0807  1.1127  0.2055
15444TIP3   OH267822   3.723   5.829   0.224  0.0791  0.0682 -0.5688
15444TIP3    H167823   3.631   5.853   0.232  0.5089  1.6974  0.0177
15444TIP3    H267824   3.764   5.905   0.182  1.3911  0.0218  0.5433
15445TIP3   OH267825   0.791   2.746  13.350  0.6301 -0.0820  0.6402
15445TIP3    H167826   0.871   2.755  13.401  0.6188  2.3889  0.3301
15445TIP3    H267827   0.820   2.727  13.261  1.0798  2.9477  0.0452
15446TIP3   OH267828   2.477   2.570  16.188 -0.1745 -0.0196  0.5389
15446TIP3    H167829   2.413   2.622  16.236  1.0409  0.5333  1.6363
15446TIP3    H267830   2.436   2.483  16.181 -1.5325  0.6224  0.1211
15447TIP3   OH267831   2.333   3.405   1.173  0.2913  0.1464  0.3786
15447TIP3    H167832   2.282   3.459   1.233  0.6876  0.6193  0.2946
15447TIP3    H267833   2.379   3.468   1.117 -1.3851 -0.2733 -1.5573
15448TIP3   OH267834   4.286   0.665   0.506  0.5446  0.2472 -0.2023
15448TIP3    H167835   4.342   0.691   0.433 -1.7077  1.8550 -1.4958
15448TIP3    H267836   4.271   0.746   0.555 -1.6739  0.2051 -0.6926
15449TIP3   OH267837   0.802   3.448  15.790  0.6504  1.0444  0.1680
15449TIP3    H167838   0.843   3.367  15.818 -0.3368  0.2175 -0.6568
15449TIP3    H267839   0.819   3.452  15.696 -0.2077  1.2275  0.0085
15450TIP3   OH267840   6.098   3.397   1.196  0.2767 -0.4707 -0.3377
15450TIP3    H167841   6.178   3.353   1.225  1.6934  1.2544 -1.4311
15450TIP3    H267842   6.078   3.458   1.267  0.3429 -0.4037 -0.3763
15451TIP3   OH267843   3.396   1.023  13.068 -0.4704  0.0687  0.2142
15451TIP3    H167844   3.488   1.044  13.087 -0.3120  0.9962 -1.3560
15451TIP3    H267845   3.352   1.030  13.152  0.8551 -0.2299  0.9753
15452TIP3   OH267846   5.442   1.710   0.933 -0.8770 -0.6281 -0.2608
15452TIP3    H167847   5.434   1.625   0.889 -0.0237 -0.5088 -0.6736
15452TIP3    H267848   5.442   1.689   1.026 -1.3872 -1.0148 -0.3475
15453TIP3   OH267849   4.640   1.485   4.206  0.3335  0.1432 -0.3252
15453TIP3    H167850   4.638   1.394   4.175 -1.5997  0.3417 -0.9143
15453TIP3    H267851   4.729   1.497   4.239  1.0100 -1.5753 -1.3847
15454TIP3   OH267852   3.124   0.853   5.738  0.4253  0.5906 -0.1396
15454TIP3    H167853   3.157   0.928   5.788  1.4539  0.5490 -0.7333
15454TIP3    H267854   3.185   0.782   5.756 -1.8810 -0.9265  2.4056
15455TIP3   OH267855   2.139   4.795   5.814 -0.2081 -0.0458  0.1202
15455TIP3    H167856   2.174   4.828   5.731 -2.7012  1.3322 -0.5058
15455TIP3    H267857   2.163   4.702   5.815  1.2609  0.2727 -1.3669
15456TIP3   OH267858   5.426   6.034   4.525 -0.3280 -0.3078  0.0010
15456TIP3    H167859   5.507   6.014   4.478  0.3079  0.8420  0.5515
15456TIP3    H267860   5.432   5.982   4.605 -0.3899 -0.6260 -0.1990
15457TIP3   OH267861   4.094   6.144   1.643  0.0860  0.0671 -0.0748
15457TIP3    H167862   4.099   6.211   1.712  1.0989  0.2029 -0.2688
15457TIP3    H267863   4.063   6.066   1.688  4.0342 -0.8941  1.3983
15458TIP3   OH267864   5.270   4.952  14.969 -0.0565  0.0728 -0.2842
15458TIP3    H167865   5.366   4.957  14.973  0.0111  0.4637 -1.8465
15458TIP3    H267866   5.253   4.875  14.914 -0.6571 -0.2183  0.2964
15459TIP3   OH267867   2.113   6.085   3.611  0.2476 -0.3686 -0.3255
15459TIP3    H167868   2.128   6.119   3.523 -0.3439  0.2294 -0.2069
15459TIP3    H267869   2.086   5.994   3.598  2.6888 -1.1231 -0.6040
15460TIP3   OH267870   4.413   3.666  14.618 -0.4302 -0.0887 -0.2987
15460TIP3    H167871   4.328   3.665  14.661  0.2813  0.6453  1.1891
15460TIP3    H267872   4.393   3.653  14.525 -2.1207 -0.2518  0.0576
15461TIP3   OH267873   4.911   6.032   5.664  0.4612 -0.4409  0.0933
15461TIP3    H167874   4.952   6.115   5.640  2.6324 -1.4986 -0.1285
15461TIP3    H267875   4.914   5.980   5.583 -0.9859 -0.7244  0.1922
15462TIP3   OH267876   0.832   1.374   4.755  0.2412 -0.1386 -0.3193
15462TIP3    H167877   0.770   1.447   4.752  0.1126 -0.2314  0.0233
15462TIP3    H267878   0.829   1.345   4.846 -0.0660 -0.8758 -0.5594
15463TIP3   OH267879   2.345   4.049   5.834  0.6885 -0.0745 -0.5378
15463TIP3    H167880   2.386   4.090   5.910  0.6995  1.9869 -1.5755
15463TIP3    H267881   2.294   4.120   5.794 -0.8965 -1.6191 -1.3543
15464TIP3   OH267882   4.305   1.978  15.772 -0.8178 -0.0924  0.0126
15464TIP3    H167883   4.243   1.913  15.803  0.1998 -0.9440  0.3267
15464TIP3    H267884   4.295   2.052  15.832 -1.0590 -0.4908  0.4658
15465TIP3   OH267885   1.286   0.990   3.388  0.3076  0.5990  0.3458
15465TIP3    H167886   1.254   1.014   3.475 -1.1375 -1.9346  0.6219
15465TIP3    H267887   1.379   0.972   3.400 -0.0808 -0.7064  1.6495
15466TIP3   OH267888   3.717   4.169  12.346  0.1200  0.2861 -0.7372
15466TIP3    H167889   3.737   4.081  12.379  1.7982  1.1952  0.7992
15466TIP3    H267890   3.789   4.189  12.286  1.7793  1.9459  1.6427
15467TIP3   OH267891   5.140   5.076   0.351 -0.0066 -0.0215 -0.1419
15467TIP3    H167892   5.225   5.036   0.332  0.5508  0.3359  1.4743
15467TIP3    H267893   5.153   5.123   0.433 -1.9475 -0.5042  0.4989
15468TIP3   OH267894   0.707   6.738  12.573 -0.7004  0.1499 -0.2285
15468TIP3    H167895   0.629   6.795  12.572 -0.5238  0.4134  0.5106
15468TIP3    H267896   0.687   6.672  12.639 -0.4785 -0.0444 -0.3565
15469TIP3   OH267897   6.250   2.284  13.599 -0.3820 -0.3209 -0.2714
15469TIP3    H167898   6.177   2.226  13.620  0.0876 -0.2361  1.9096
15469TIP3    H267899   6.283   2.312  13.685  0.8159  1.3888 -1.2326
15470TIP3   OH267900   2.620   0.501   1.961  0.6282  0.6862  0.4505
15470TIP3    H167901   2.533   0.468   1.938 -0.2446  1.8262  1.9595
15470TIP3    H267902   2.661   0.521   1.877 -0.1717 -0.7712 -0.3320
15471TIP3   OH267903   1.051   4.082   1.402  0.0411 -0.0069 -0.2683
15471TIP3    H167904   1.106   4.005   1.418  0.1535  0.6552  3.2443
15471TIP3    H267905   0.961   4.049   1.410  0.0701 -0.0279 -0.0062
15472TIP3   OH267906   5.592   4.247  14.255 -0.1330  0.0123  0.0476
15472TIP3    H167907   5.637   4.322  14.216  1.5421 -0.8912  0.1555
15472TIP3    H267908   5.502   4.252  14.221  0.2566  1.3890 -0.8481
15473TIP3   OH267909   0.755   3.991  15.105  0.2292 -0.6413 -0.0773
15473TIP3    H167910   0.713   3.945  15.178  0.2175  1.3982  1.3053
15473TIP3    H267911   0.849   3.979  15.120  0.2366  0.0329  0.5080
15474TIP3   OH267912   0.794   2.924   1.915  0.3097  0.0883  0.4072
15474TIP3    H167913   0.700   2.909   1.907  0.0263  1.9526 -0.1264
15474TIP3    H267914   0.834   2.851   1.868 -0.6826 -2.6868  3.4895
15475TIP3   OH267915   6.815   0.197  15.281  0.1434  0.6806 -0.1681
15475TIP3    H167916   6.891   0.166  15.332  0.1196  0.8351 -0.0392
15475TIP3    H267917   6.851   0.264  15.223  0.2011  0.3918 -0.4728
15476TIP3   OH267918   4.207   2.224  13.872  0.1437  0.4019 -0.6534
15476TIP3    H167919   4.197   2.151  13.811  1.2264  0.5161 -0.9766
15476TIP3    H267920   4.187   2.186  13.958 -0.0347 -0.0903 -0.9102
15477TIP3   OH267921   3.597   5.789   5.116  0.0216  0.2657  0.7484
15477TIP3    H167922   3.501   5.791   5.120 -0.1888 -0.7959 -1.7788
15477TIP3    H267923   3.623   5.733   5.189 -1.4108 -0.5404  0.6808
15478TIP3   OH267924   4.743   3.598  14.340 -0.0412 -0.3732 -0.1256
15478TIP3    H167925   4.787   3.588  14.424  0.1763  0.2736 -0.1583
15478TIP3    H267926   4.693   3.517  14.329  0.3870 -0.7078  0.3529
15479TIP3   OH267927   0.970   5.900   2.701 -0.3384 -0.0409  0.2814
15479TIP3    H167928   0.973   5.879   2.794 -1.2729 -0.7626  0.1636
15479TIP3    H267929   1.007   5.988   2.695  1.7995 -0.8257  1.0483
15480TIP3   OH267930   1.799   3.232   3.971  0.2318  0.6849 -0.0356
15480TIP3    H167931   1.827   3.264   3.885 -1.5930 -0.5066 -1.1534
15480TIP3    H267932   1.865   3.167   3.995  0.7180  0.9646 -0.5829
15481TIP3   OH267933   4.460   2.691   4.205  0.6709  0.0276  0.9873
15481TIP3    H167934   4.515   2.700   4.127  1.7327 -1.4573  1.5079
15481TIP3    H267935   4.436   2.780   4.228 -1.2115  0.4368 -2.0709
15482TIP3   OH267936   3.453   5.065   2.377 -0.4057  0.1392 -0.0870
15482TIP3    H167937   3.519   5.134   2.381 -1.4454  1.0831  2.2204
15482TIP3    H267938   3.398   5.088   2.303  0.5061  0.5694 -0.6537
15483TIP3   OH267939   0.203   3.904  16.526 -0.5228  0.3950 -0.3468
15483TIP3    H167940   0.147   3.934  16.455 -1.8223  0.3135  0.6162
15483TIP3    H267941   0.151   3.840  16.574 -0.5729  2.0294  1.9848
15484TIP3   OH267942   5.188   2.633  10.248 -0.0004  0.2814  0.5033
15484TIP3    H167943   5.104   2.614  10.207  1.3529 -1.3688 -1.6841
15484TIP3    H267944   5.252   2.588  10.194  2.2029  0.3271  2.9043
15485TIP3   OH267945   0.784   3.007  15.414 -0.2549  0.3548 -0.2974
15485TIP3    H167946   0.696   3.006  15.376 -0.1339 -0.5718 -0.5870
15485TIP3    H267947   0.839   3.047  15.347  0.1353 -2.1293 -1.5992
15486TIP3   OH267948   2.553   5.515   3.109  0.0435  0.2693 -0.3472
15486TIP3    H167949   2.621   5.452   3.087 -0.4025 -0.4329  0.2311
15486TIP3    H267950   2.492   5.466   3.165 -0.5350  1.0930 -0.2364
15487TIP3   OH267951   1.634   5.846   1.111  0.5321  0.8214 -0.7821
15487TIP3    H167952   1.688   5.867   1.187 -1.1610 -1.1674  1.0798
15487TIP3    H267953   1.689   5.788   1.057  0.3538 -1.1559  1.0603
15488TIP3   OH267954   3.202   1.860   4.517  0.1869 -0.4300 -0.0757
15488TIP3    H167955   3.136   1.929   4.525  1.6078  0.8795  0.8610
15488TIP3    H267956   3.240   1.873   4.430 -1.0097 -1.4467 -0.7882
15489TIP3   OH267957   3.645   6.810  13.078 -0.0022 -0.1966  0.1045
15489TIP3    H167958   3.614   6.886  13.127 -0.2341  0.1553 -0.5878
15489TIP3    H267959   3.606   6.819  12.992  0.8748 -0.4966 -0.3387
15490TIP3   OH267960   4.673   0.214   1.600 -0.4880  1.0664  0.1520
15490TIP3    H167961   4.744   0.278   1.611  0.7838 -0.2280 -0.2989
15490TIP3    H267962   4.698   0.163   1.523 -0.3577 -1.3300  1.6828
15491TIP3   OH267963   0.280   0.820  12.106 -0.2035  0.2274  0.3723
15491TIP3    H167964   0.284   0.910  12.075  0.1104  0.1613  0.2190
15491TIP3    H267965   0.207   0.819  12.168 -0.4457  0.5011  0.0950
15492TIP3   OH267966   2.028   3.186   5.958  0.0132 -0.1377 -0.2026
15492TIP3    H167967   2.011   3.095   5.934  2.8306 -0.5745 -0.9521
15492TIP3    H267968   2.019   3.189   6.053  2.7432 -2.0268  0.2334
15493TIP3   OH267969   5.138   5.121  12.983 -0.2997 -0.7229 -0.1412
15493TIP3    H167970   5.086   5.091  12.908  1.5841 -1.6921 -1.1231
15493TIP3    H267971   5.192   5.191  12.948 -0.0307 -0.5843  0.5412
15494TIP3   OH267972   1.340   6.459  17.045  0.3211  1.0868  0.0253
15494TIP3    H167973   1.428   6.470  17.082  1.1517  1.8915 -2.0307
15494TIP3    H267974   1.332   6.530  16.981 -1.1069 -0.0367 -1.1080
15495TIP3   OH267975   2.102   5.306   0.107  0.1451 -0.4483 -0.5640
15495TIP3    H167976   2.047   5.299   0.029  0.3301 -1.2545 -0.6310
15495TIP3    H267977   2.054   5.364   0.165 -0.5790 -0.8085 -0.7899
15496TIP3   OH267978   3.938   6.762  14.844  0.5511 -0.2885 -0.4801
15496TIP3    H167979   4.010   6.824  14.834 -0.0958  0.5055 -0.3309
15496TIP3    H267980   3.896   6.787  14.926 -0.7187  0.1351 -1.2324
15497TIP3   OH267981   1.348   1.174   0.902  0.3876  0.2990 -0.5471
15497TIP3    H167982   1.354   1.106   0.970 -0.5699  1.5547  0.8774
15497TIP3    H267983   1.388   1.134   0.825  2.1076 -0.9890  0.8998
15498TIP3   OH267984   0.488   1.447  14.568 -0.1458 -0.5657  0.3525
15498TIP3    H167985   0.475   1.422  14.660  0.2122 -1.1069  0.2637
15498TIP3    H267986   0.571   1.406  14.544 -1.0398 -1.8298 -0.7027
15499TIP3   OH267987   4.197   4.542  13.857  0.0118  0.2618  0.8722
15499TIP3    H167988   4.218   4.610  13.793 -0.1986 -0.2643  0.2316
15499TIP3    H267989   4.105   4.522  13.841 -0.4123  1.0313  2.2114
15500TIP3   OH267990   3.916   2.422  16.124  0.3459  0.1908 -0.2363
15500TIP3    H167991   4.008   2.402  16.108  0.7202  0.9210  0.8644
15500TIP3    H267992   3.904   2.510  16.090 -0.3034 -0.3744 -1.5504
15501TIP3   OH267993   5.357   4.695   4.655  0.2512  0.1617 -0.0276
15501TIP3    H167994   5.300   4.760   4.613 -1.0282 -0.5821  0.5113
15501TIP3    H267995   5.307   4.664   4.730  0.9821 -1.2144 -0.0802
15502TIP3   OH267996   2.772   0.726   6.006 -0.2831  0.5063  0.3494
15502TIP3    H167997   2.704   0.756   6.066  0.8957  1.2614  1.3338
15502TIP3    H267998   2.842   0.790   6.014  0.7669 -0.5151 -0.2744
15503TIP3   OH267999   6.281   1.962  11.393 -0.2277 -0.5989  0.2874
15503TIP3    H168000   6.252   2.046  11.357  0.4784 -0.7920 -0.7909
15503TIP3    H268001   6.312   1.913  11.317  0.9166 -1.2022  1.1051
15504TIP3   OH268002   1.969   0.112  11.143 -0.3356  0.3097 -0.6479
15504TIP3    H168003   1.935   0.171  11.211  1.1220  0.2377  0.1908
15504TIP3    H268004   2.020   0.048  11.192 -0.2242 -0.4470 -1.7367
15505TIP3   OH268005   3.291   1.945  11.465  0.5377  0.2210  0.6394
15505TIP3    H168006   3.279   1.871  11.405 -2.2263  1.5988 -0.6859
15505TIP3    H268007   3.303   1.905  11.551 -1.2128 -1.7870  0.0198
15506TIP3   OH268008   2.512   4.205   6.359 -1.8072 -0.3863  0.0139
15506TIP3    H168009   2.563   4.247   6.428  0.7192 -0.0301 -1.9366
15506TIP3    H268010   2.473   4.279   6.311  0.2519 -0.2956 -1.6518
15507TIP3   OH268011   6.238   1.827  16.897  0.2992 -0.0080  0.0814
15507TIP3    H168012   6.182   1.796  16.825 -1.0139 -0.1337  1.1176
15507TIP3    H268013   6.188   1.808  16.976  1.9192 -0.2895  1.0752
15508TIP3   OH268014   3.267   4.860  13.763  0.5226 -0.3131 -0.3008
15508TIP3    H168015   3.207   4.831  13.694  0.1437  0.7668 -0.4423
15508TIP3    H268016   3.306   4.941  13.729  2.0887 -0.9849 -0.2212
15509TIP3   OH268017   3.577   1.287   5.399  0.2694  0.0142  0.0631
15509TIP3    H168018   3.642   1.295   5.469 -0.3150  0.3539  0.5905
15509TIP3    H268019   3.602   1.209   5.351  3.5957  2.3320 -2.4267
15510TIP3   OH268020   1.764   3.043  12.681  0.8276 -0.4885 -0.5933
15510TIP3    H168021   1.816   3.039  12.760 -0.7690  2.1584  0.7310
15510TIP3    H268022   1.697   2.974  12.692 -0.6971  1.1985  1.4816
15511TIP3   OH268023   0.176   4.912   3.449 -0.1237  0.5045 -0.1798
15511TIP3    H168024   0.099   4.950   3.492  1.0783  1.2852  1.3917
15511TIP3    H268025   0.250   4.947   3.499  1.1713 -2.0438 -0.1846
15512TIP3   OH268026   6.300   1.368   5.768 -0.4656 -0.8076 -0.0047
15512TIP3    H168027   6.387   1.392   5.801 -0.7361 -0.1168  0.2311
15512TIP3    H268028   6.317   1.310   5.694  0.1985 -0.5798 -0.0340
15513TIP3   OH268029   0.202   1.996   0.768 -0.0891  0.1901  0.0552
15513TIP3    H168030   0.233   2.063   0.829 -0.4104  1.5977 -1.2653
15513TIP3    H268031   0.281   1.964   0.724  0.0664 -0.3537  0.7049
15514TIP3   OH268032   0.098   1.016  14.155 -0.3577 -0.4721  0.3503
15514TIP3    H168033   0.116   0.924  14.135  2.8852  0.4865 -1.9838
15514TIP3    H268034   0.180   1.061  14.137 -1.5902  2.8377  2.1704
15515TIP3   OH268035   5.671   6.709   5.197 -0.4978  0.1300 -0.2194
15515TIP3    H168036   5.587   6.714   5.241 -0.6424 -0.5476 -0.3994
15515TIP3    H268037   5.735   6.736   5.263 -0.9987  2.4522 -0.6240
15516TIP3   OH268038   1.082   1.730   2.761  1.4722  0.4616 -0.1781
15516TIP3    H168039   1.008   1.670   2.768  1.1865  0.5433 -1.9108
15516TIP3    H268040   1.125   1.727   2.846  0.1689 -0.4991  0.4647
15517TIP3   OH268041   1.381   4.957   3.947  0.2452 -0.3607 -0.0051
15517TIP3    H168042   1.420   4.972   3.862  0.7347  0.8680  0.4081
15517TIP3    H268043   1.429   5.015   4.006 -1.4638  0.4089  0.7134
15518TIP3   OH268044   0.957   0.053   6.474  0.2068  0.2742  0.4228
15518TIP3    H168045   0.947  -0.021   6.535 -0.4243  0.2062  0.2467
15518TIP3    H268046   0.937   0.130   6.526  0.6136  0.2996  0.5428
15519TIP3   OH268047   0.192   6.518   5.924  0.5352  0.0177  0.1631
15519TIP3    H168048   0.281   6.487   5.906  0.7654 -0.3206  1.7171
15519TIP3    H268049   0.195   6.612   5.908  0.9290 -0.1235 -0.6374
15520TIP3   OH268050   0.828   4.604  15.301  0.2189 -0.2203 -0.3593
15520TIP3    H168051   0.866   4.518  15.286  0.2616 -0.4874  1.1299
15520TIP3    H268052   0.832   4.647  15.216  0.6995 -1.4827 -1.0040
15521TIP3   OH268053   5.351   3.134   4.929 -0.0750 -0.0978  0.4435
15521TIP3    H168054   5.339   3.039   4.925  0.5127 -0.1407 -0.6273
15521TIP3    H268055   5.271   3.171   4.890  0.3688 -0.2106 -0.6126
15522TIP3   OH268056   4.893   3.070  13.557  0.2557  0.3313  0.2632
15522TIP3    H168057   4.934   3.147  13.597  1.7773 -0.1903 -0.2305
15522TIP3    H268058   4.846   3.028  13.628  0.0397  1.2894  0.7070
15523TIP3   OH268059   4.573   0.220  14.615  0.1746  0.3166 -0.1198
15523TIP3    H168060   4.584   0.287  14.681 -2.0643  1.8485 -1.1623
15523TIP3    H268061   4.534   0.146  14.661 -0.7458  1.1201  0.4060
15524TIP3   OH268062   1.014   5.247  15.651  0.4609 -0.6120  0.0043
15524TIP3    H168063   1.049   5.252  15.562 -0.0338  0.1392 -0.1688
15524TIP3    H268064   1.081   5.202  15.702  1.7470  0.8979 -0.2765
15525TIP3   OH268065   2.366   0.419  10.960 -0.4436 -0.3654  0.3417
15525TIP3    H168066   2.407   0.338  10.929 -1.8860 -0.7459 -0.7127
15525TIP3    H268067   2.411   0.488  10.911  0.9911 -0.4713  1.4534
15526TIP3   OH268068   2.554   1.662   3.598  0.2086  0.1060  0.1661
15526TIP3    H168069   2.573   1.657   3.505 -3.3654  0.2975 -0.7150
15526TIP3    H268070   2.534   1.572   3.624 -0.2432  0.2601  0.3682
15527TIP3   OH268071   1.136   3.250   2.139  0.1194 -0.1397  0.4707
15527TIP3    H168072   1.050   3.256   2.095  0.7999 -2.0602 -1.2936
15527TIP3    H268073   1.177   3.334   2.121 -0.4277 -0.1343 -0.8872
15528TIP3   OH268074   0.172   2.422   3.934  0.9127 -0.4324  0.1628
15528TIP3    H168075   0.120   2.354   3.978  3.1377 -1.5073  1.2615
15528TIP3    H268076   0.220   2.465   4.004  1.7357  0.3295 -0.8347
15529TIP3   OH268077   5.700   4.991  16.937 -0.6543 -0.7984  0.3658
15529TIP3    H168078   5.674   4.899  16.945 -0.0154 -1.1571 -1.2244
15529TIP3    H268079   5.745   4.995  16.853  1.7095  0.4227  1.6010
15530TIP3   OH268080   5.824   0.771   1.942 -1.0549 -0.0437 -0.1555
15530TIP3    H168081   5.866   0.811   2.018 -0.0979  2.0474 -1.7084
15530TIP3    H268082   5.896   0.753   1.882 -1.9173 -0.7295 -1.0053
15531TIP3   OH268083   2.324   6.230   1.247 -0.0476  0.6015 -0.1634
15531TIP3    H168084   2.394   6.182   1.291 -1.2609 -0.4275  0.7396
15531TIP3    H268085   2.351   6.321   1.250  0.7329  0.3450  1.1732
15532TIP3   OH268086   1.986   6.366   1.141 -0.1743 -0.0921  0.2308
15532TIP3    H168087   1.963   6.449   1.184 -1.3637  1.0981 -2.5058
15532TIP3    H268088   1.902   6.328   1.116  0.4339 -1.5298  0.2927
15533TIP3   OH268089   3.358   0.310  13.551 -0.0074  1.1549 -0.1237
15533TIP3    H168090   3.268   0.281  13.536  0.3525 -1.0648  1.4274
15533TIP3    H268091   3.412   0.240  13.515  0.9684  0.6550  2.1069
15534TIP3   OH268092   4.414   3.077  16.788  0.4108  0.0028  0.4849
15534TIP3    H168093   4.405   3.119  16.873 -0.7105  0.8263 -0.0202
15534TIP3    H268094   4.377   2.989  16.801 -0.7538  0.4881  0.5995
15535TIP3   OH268095   2.301   1.542   5.232  0.2075 -0.1600  0.3343
15535TIP3    H168096   2.341   1.591   5.161  2.0760 -1.3247  0.4880
15535TIP3    H268097   2.215   1.516   5.199  1.1043 -0.8630 -1.6219
15536TIP3   OH268098   2.859   0.294  14.836 -0.0686 -0.1076 -0.2448
15536TIP3    H168099   2.846   0.232  14.908 -0.0154 -0.8466 -0.8633
15536TIP3    H268100   2.829   0.378  14.871  1.3635 -0.1355  1.1682
15537TIP3   OH268101   5.014   0.922   1.548 -0.1894 -0.9889  0.0540
15537TIP3    H168102   4.978   0.836   1.528 -0.3996 -0.6271 -1.1936
15537TIP3    H268103   5.046   0.955   1.464  0.6461 -0.1889  0.6604
15538TIP3   OH268104   6.819   1.383   4.671  0.2087  0.0506 -0.5849
15538TIP3    H168105   6.798   1.334   4.592  0.6109 -0.9209 -0.1030
15538TIP3    H268106   6.737   1.385   4.721 -0.4292  1.8544 -1.6142
15539TIP3   OH268107   1.333   1.648  12.845 -0.1037 -0.0881 -0.0229
15539TIP3    H168108   1.352   1.562  12.880  3.0554  0.4751 -0.0835
15539TIP3    H268109   1.417   1.694  12.846 -1.6599  3.0391  0.1017
15540TIP3   OH268110   5.511   4.571  11.878  0.4443  0.5228 -0.1770
15540TIP3    H168111   5.592   4.544  11.920  0.2501  0.1943 -0.0150
15540TIP3    H268112   5.520   4.666  11.868  0.1226  0.7524  1.4133
15541TIP3   OH268113   6.814   2.023   5.491  1.0475  0.2285 -0.1434
15541TIP3    H168114   6.827   2.102   5.440  0.4759  0.1823 -0.3667
15541TIP3    H268115   6.794   1.955   5.427 -1.3986  0.5217  0.1944
15542TIP3   OH268116   6.199   3.871   3.707 -0.1592  0.1904 -0.3439
15542TIP3    H168117   6.283   3.917   3.700  0.9636 -1.5453  0.9659
15542TIP3    H268118   6.147   3.925   3.767  1.3777 -0.4860  1.7184
15543TIP3   OH268119   1.877   4.934  14.525  0.4475 -0.0109 -0.5423
15543TIP3    H168120   1.878   4.901  14.435  0.0246 -0.4733 -0.3829
15543TIP3    H268121   1.806   4.886  14.567  1.7648 -1.0652  0.5254
15544TIP3   OH268122   1.618   0.520  14.320 -1.1596  0.4230  0.0634
15544TIP3    H168123   1.606   0.544  14.228 -2.1796  1.1755  0.3795
15544TIP3    H268124   1.627   0.604  14.366 -0.2302  0.0466  0.6157
15545TIP3   OH268125   3.412   0.172   4.563 -0.3247  0.2202 -0.2237
15545TIP3    H168126   3.484   0.228   4.593  0.4937 -0.0507 -1.6006
15545TIP3    H268127   3.455   0.094   4.530 -1.4418 -1.1053  1.3259
15546TIP3   OH268128   4.665   0.664  16.712 -0.1956 -0.0051 -0.2284
15546TIP3    H168129   4.732   0.631  16.772  0.2518  0.2603 -0.5777
15546TIP3    H268130   4.631   0.742  16.755 -1.3459 -0.9623  0.6563
15547TIP3   OH268131   3.449   6.507  14.112 -0.5457 -0.4516  0.5785
15547TIP3    H168132   3.451   6.522  14.207  1.0849 -1.3341  0.7138
15547TIP3    H268133   3.516   6.566  14.077  0.7919 -2.0369  0.3234
15548TIP3   OH268134   4.173   5.751  11.739 -0.3378 -0.6284 -0.0652
15548TIP3    H168135   4.099   5.783  11.790 -1.1632 -1.0111 -0.9842
15548TIP3    H268136   4.192   5.822  11.677  0.1353 -0.4966  0.2201
15549TIP3   OH268137   2.225   1.018  15.989  0.0743  0.2105  0.1142
15549TIP3    H168138   2.259   1.051  16.072  0.9459 -0.3179 -0.0203
15549TIP3    H268139   2.231   0.922  15.997 -2.3665  0.0185  0.4877
15550TIP3   OH268140   2.065   3.046   2.088 -0.3339 -0.5064  0.1062
15550TIP3    H168141   2.067   2.999   2.005 -1.5080 -2.1462  0.9607
15550TIP3    H268142   2.137   3.008   2.139  0.5674  0.6938 -0.2070
15551TIP3   OH268143   2.256   5.771   2.227  0.6850  0.1117  0.9236
15551TIP3    H168144   2.216   5.685   2.240 -0.5143  0.2546 -1.3370
15551TIP3    H268145   2.304   5.787   2.308 -0.7304 -1.7806  2.2435
15552TIP3   OH268146   5.482   6.440   1.115 -0.1075  0.6474 -0.4875
15552TIP3    H168147   5.515   6.408   1.031  2.0663  1.0736  0.1457
15552TIP3    H268148   5.473   6.361   1.168  2.7587  0.7251  0.2406
15553TIP3   OH268149   2.341   1.315   1.314 -0.1222  0.1140 -0.0730
15553TIP3    H168150   2.347   1.397   1.265  2.0932  0.2944  0.3810
15553TIP3    H268151   2.417   1.317   1.372 -1.1032 -1.3894  1.3502
15554TIP3   OH268152   6.217   2.050   0.149  0.2045  0.3027  0.5098
15554TIP3    H168153   6.171   2.130   0.122  1.1616  0.6230 -0.2287
15554TIP3    H268154   6.292   2.081   0.200  0.1646 -0.1666  0.8608
15555TIP3   OH268155   4.249   1.341  11.505  0.2871  0.3634  0.8820
15555TIP3    H168156   4.311   1.414  11.510 -1.9557  2.6729 -1.5836
15555TIP3    H268157   4.296   1.272  11.459  1.6388  1.2800  0.8454
15556TIP3   OH268158   6.752   5.806  13.804  0.5567 -0.2468 -0.4706
15556TIP3    H168159   6.737   5.869  13.733  1.8458  1.3001  0.5670
15556TIP3    H268160   6.674   5.813  13.859  0.9562  0.9145 -0.0365
15557TIP3   OH268161   2.440   6.465   2.484  0.2044  0.4405 -0.0519
15557TIP3    H168162   2.357   6.448   2.528 -0.1701  1.3758 -0.3620
15557TIP3    H268163   2.506   6.453   2.551 -0.2392  0.3572  0.3768
15558TIP3   OH268164   1.874   5.985   5.431  0.6489 -0.5171 -0.2752
15558TIP3    H168165   1.867   6.007   5.524 -1.6785  0.1824 -0.5331
15558TIP3    H268166   1.903   5.894   5.430 -1.5473 -1.3316  1.2801
15559TIP3   OH268167   3.712   0.538   1.149 -0.1959  0.4462 -0.2505
15559TIP3    H168168   3.718   0.507   1.059 -0.2668  0.1532 -0.1557
15559TIP3    H268169   3.775   0.484   1.197 -1.8080 -1.0130  0.3115
15560TIP3   OH268170   6.195   5.322   2.227  0.4646 -0.4937  0.0440
15560TIP3    H168171   6.245   5.264   2.284  0.6017  0.3120  0.7672
15560TIP3    H268172   6.256   5.347   2.158 -0.0366 -2.3807 -1.1493
15561TIP3   OH268173   3.476   5.245   3.236  0.2196 -0.0701 -0.3179
15561TIP3    H168174   3.410   5.305   3.203 -0.1439 -0.3988 -0.1960
15561TIP3    H268175   3.480   5.175   3.170  0.2136 -0.2156 -0.1642
15562TIP3   OH268176   5.059   6.635   1.402 -0.0804  0.0790  0.2484
15562TIP3    H168177   5.120   6.707   1.421  0.2911  0.2385 -1.3988
15562TIP3    H268178   5.084   6.605   1.315 -0.9373 -1.3505  0.4700
15563TIP3   OH268179   1.213   4.916  12.075  0.1598  0.0802 -0.1851
15563TIP3    H168180   1.123   4.922  12.107 -0.1113 -0.9203 -0.7454
15563TIP3    H268181   1.227   4.998  12.028 -0.8425 -0.2407 -1.0652
15564TIP3   OH268182   5.215   2.780   3.246  0.6323  1.2590  0.2037
15564TIP3    H168183   5.175   2.851   3.194  0.6244  1.3170  0.2891
15564TIP3    H268184   5.303   2.811   3.264  0.7642  1.0706 -0.1026
15565TIP3   OH268185   5.739   6.326  16.060 -0.0857  0.2653  0.1454
15565TIP3    H168186   5.798   6.280  16.119  0.7806  0.2755 -0.6822
15565TIP3    H268187   5.710   6.260  15.997 -2.9530 -0.3636  1.9137
15566TIP3   OH268188   3.816   4.177   0.168 -0.3065 -0.0502  0.0637
15566TIP3    H168189   3.842   4.135   0.250 -0.9574  0.2374  0.4342
15566TIP3    H268190   3.795   4.105   0.109 -0.0286 -0.2599  0.2221
15567TIP3   OH268191   2.802   2.365  17.055 -0.2184 -0.3252 -0.1718
15567TIP3    H168192   2.883   2.321  17.082  0.0750 -0.4285 -1.1882
15567TIP3    H268193   2.755   2.382  17.137 -0.0593 -1.9875  0.3012
15568TIP3   OH268194   6.028   3.934   6.038  0.5343  0.0689  0.4643
15568TIP3    H168195   6.042   4.025   6.011  2.0297 -0.2982 -0.1226
15568TIP3    H268196   6.103   3.914   6.093  0.5043 -0.9710  0.1414
15569TIP3   OH268197   4.722   3.424  13.101  0.6938  0.2089 -0.8402
15569TIP3    H168198   4.755   3.464  13.021  0.9034  0.9163 -0.4086
15569TIP3    H268199   4.655   3.363  13.071 -0.0037  1.2633 -1.4793
15570TIP3   OH268200   4.839   6.718   0.560  0.2282 -0.2309 -0.2024
15570TIP3    H168201   4.931   6.728   0.537  0.4326  1.3858  1.0950
15570TIP3    H268202   4.838   6.654   0.631  0.3118 -0.4512 -0.3990
15571TIP3   OH268203   2.401   1.212  10.888  0.9353 -0.2808  0.2034
15571TIP3    H168204   2.341   1.268  10.937  2.2495  0.5535  0.9315
15571TIP3    H268205   2.488   1.238  10.918  1.6845 -1.3182 -0.9506
15572TIP3   OH268206   6.516   1.099  14.749  0.4445 -0.3800  0.3167
15572TIP3    H168207   6.567   1.040  14.693 -0.1787  0.3713 -1.1045
15572TIP3    H268208   6.513   1.055  14.834  1.9512 -1.2718 -0.0479
15573TIP3   OH268209   1.370   6.442  15.363 -0.7044  0.0340 -0.1379
15573TIP3    H168210   1.375   6.363  15.417 -0.7831  0.2158  0.1418
15573TIP3    H268211   1.277   6.453  15.346 -0.6800 -0.0171 -0.3025
15574TIP3   OH268212   4.955   6.722  16.012  0.0325  0.1887  0.5581
15574TIP3    H168213   5.016   6.673  15.958 -0.8769  0.0912 -0.4005
15574TIP3    H268214   5.003   6.739  16.093  0.9566 -0.7802  0.2284
15575TIP3   OH268215   3.446   5.078  11.061  0.3355 -0.7012  0.3998
15575TIP3    H168216   3.525   5.081  11.006 -0.5590 -0.6641 -0.9193
15575TIP3    H268217   3.378   5.118  11.008 -0.7045 -1.1942  1.3187
15576TIP3   OH268218   6.138   0.947   5.950  0.0279 -0.1425  0.1074
15576TIP3    H168219   6.080   0.943   6.026 -0.9578 -3.0604 -0.6656
15576TIP3    H268220   6.123   1.034   5.913 -1.1594  0.5023  1.9483
15577TIP3   OH268221   2.292   1.549  16.228  0.2303 -0.2247 -0.9443
15577TIP3    H168222   2.249   1.556  16.313 -1.4974  0.7210 -1.8368
15577TIP3    H268223   2.382   1.527  16.249  0.0330  0.6824  1.1625
15578TIP3   OH268224   3.061   1.732  13.740 -0.2076 -0.5038 -0.2202
15578TIP3    H168225   3.072   1.694  13.653  0.3080 -1.4635  0.2486
15578TIP3    H268226   3.112   1.813  13.736  0.1856 -0.7638 -0.6704
15579TIP3   OH268227   6.819   6.591   0.167  0.2312 -0.1439  0.2493
15579TIP3    H168228   6.892   6.643   0.133 -0.6799  0.1121 -1.4047
15579TIP3    H268229   6.778   6.552   0.090 -0.3212 -1.7468  1.2850
15580TIP3   OH268230   0.467   1.292   4.888 -0.0328 -0.5887  0.1684
15580TIP3    H168231   0.485   1.277   4.795 -1.1412 -1.0303  0.0091
15580TIP3    H268232   0.422   1.212   4.916  2.8588 -1.7835  1.8435
15581TIP3   OH268233   1.130   5.741   5.171  0.1764  0.5273 -0.0647
15581TIP3    H168234   1.140   5.686   5.249 -0.5079  0.1103 -0.2611
15581TIP3    H268235   1.129   5.679   5.098 -5.3316  0.1372 -0.0435
15582TIP3   OH268236   3.053   6.100  17.027 -0.0542  0.1358  0.1883
15582TIP3    H168237   3.118   6.158  16.986  1.6181 -2.1065 -0.5140
15582TIP3    H268238   3.102   6.021  17.050 -2.7581 -2.2376 -1.5494
15583TIP3   OH268239   1.707   3.996  16.029 -0.0108 -0.1874 -0.0756
15583TIP3    H168240   1.799   3.991  16.054  0.2457  0.4858 -0.8240
15583TIP3    H268241   1.684   3.907  16.004  1.0605  0.0013 -1.9137
15584TIP3   OH268242   4.451   5.589   6.383  0.0625  0.7471 -0.2012
15584TIP3    H168243   4.544   5.572   6.401  0.3767  1.1823 -1.3250
15584TIP3    H268244   4.405   5.517   6.425  1.0498 -0.5483 -1.2755
15585TIP3   OH268245   4.290   0.028  11.919  0.0692 -0.1462 -0.0063
15585TIP3    H168246   4.240   0.105  11.892  0.4815 -0.1152 -0.7237
15585TIP3    H268247   4.228  -0.045  11.910  0.6704 -0.4292 -2.9630
15586TIP3   OH268248   4.838   1.278  16.209  0.7753 -0.5402  0.0458
15586TIP3    H168249   4.912   1.314  16.159  0.0521  0.8010 -0.1060
15586TIP3    H268250   4.764   1.286  16.149 -0.3593  2.1836  1.6722
15587TIP3   OH268251   5.344   2.423  11.450  0.5987 -0.7944  0.5744
15587TIP3    H168252   5.318   2.360  11.517  0.3814 -2.2287 -0.8046
15587TIP3    H268253   5.360   2.370  11.371  2.0326  0.6836 -0.2086
15588TIP3   OH268254   2.283   4.752   5.496 -0.7622 -0.6214 -0.7321
15588TIP3    H168255   2.223   4.822   5.523  1.5043  0.4324  2.1502
15588TIP3    H268256   2.285   4.758   5.400 -1.2777  2.7685 -0.6529
15589TIP3   OH268257   2.677   0.841  14.861 -0.1297  0.0458  0.8566
15589TIP3    H168258   2.721   0.758  14.844 -0.2181 -0.0848  1.2745
15589TIP3    H268259   2.739   0.891  14.914  0.0904  0.4071  0.2748
15590TIP3   OH268260   4.205   3.111   2.419 -0.5625  0.1303  0.1375
15590TIP3    H168261   4.286   3.117   2.469 -1.0378  1.3435  0.8114
15590TIP3    H268262   4.213   3.029   2.370  0.1395 -0.8676  1.8301
15591TIP3   OH268263   1.059   5.416  10.859  0.1405  0.0243 -0.4922
15591TIP3    H168264   1.139   5.366  10.876  0.6809  0.9425 -0.2075
15591TIP3    H268265   1.078   5.461  10.776  0.0335  0.4585 -0.2816
15592TIP3   OH268266   0.601   4.131  10.545 -0.2595 -0.3490 -0.0779
15592TIP3    H168267   0.669   4.146  10.480 -1.5158 -0.0686 -1.3551
15592TIP3    H268268   0.610   4.204  10.606  0.4099 -0.1820 -0.3654
15593TIP3   OH268269   4.154   0.705   5.422 -0.2370  0.6475  0.2654
15593TIP3    H168270   4.102   0.679   5.346 -0.1419 -0.4910  0.5685
15593TIP3    H268271   4.138   0.635   5.486 -0.1680  1.4922  1.2181
15594TIP3   OH268272   4.941   2.990   2.926 -0.0731  0.7991 -0.3544
15594TIP3    H168273   4.854   2.953   2.909  0.2172 -0.6421  1.0702
15594TIP3    H268274   4.985   2.987   2.841 -0.5681 -0.8822 -0.5940
15595TIP3   OH268275   4.500   6.216  12.679 -0.5874 -0.3255 -0.2434
15595TIP3    H168276   4.499   6.280  12.750  0.6460 -0.0696 -0.4310
15595TIP3    H268277   4.451   6.257  12.608  0.2470  0.4488 -0.3826
15596TIP3   OH268278   6.464   1.206   0.481 -0.7435 -0.2058  0.3086
15596TIP3    H168279   6.482   1.120   0.444 -0.1979  0.3465 -0.7523
15596TIP3    H268280   6.493   1.268   0.414 -2.6804  0.7943  0.3294
15597TIP3   OH268281   4.388   6.388   1.336  0.2217 -0.4592 -0.4146
15597TIP3    H168282   4.395   6.326   1.263  0.3684  0.0483 -0.8409
15597TIP3    H268283   4.347   6.465   1.298  1.7524  0.4220 -0.3558
15598TIP3   OH268284   3.087   0.076  13.736 -0.3016  0.5351 -0.0466
15598TIP3    H168285   3.090  -0.019  13.725 -1.7948  0.2349  1.6950
15598TIP3    H268286   3.160   0.097  13.794 -0.4577  0.3332  0.2238
15599TIP3   OH268287   2.043   0.285   1.894  0.5989 -0.3448 -0.5846
15599TIP3    H168288   1.986   0.208   1.896 -0.3203  0.3243  1.8995
15599TIP3    H268289   1.984   0.359   1.905  1.9091  0.2770  4.4868
15600TIP3   OH268290   6.313   6.461   0.892  0.3305 -0.5549 -0.5237
15600TIP3    H168291   6.385   6.441   0.952  1.0029 -0.0594 -1.1412
15600TIP3    H268292   6.239   6.484   0.950  0.4137 -1.8558  0.1266
15601TIP3   OH268293   4.303   3.049  14.536  0.3084 -0.4167  0.1092
15601TIP3    H168294   4.338   3.135  14.559 -1.8703  0.9970 -1.5325
15601TIP3    H268295   4.236   3.031  14.601  0.9260 -1.0247  0.5955
15602TIP3   OH268296   3.068   6.054  15.089 -0.2238 -0.4556 -0.3455
15602TIP3    H168297   3.115   6.103  15.021 -0.1040  1.5827  1.1336
15602TIP3    H268298   3.138   6.017  15.143 -0.2979  0.6188  0.5028
15603TIP3   OH268299   3.740   1.310   2.224  0.2515 -0.4352 -0.1344
15603TIP3    H168300   3.666   1.367   2.243  1.3730  1.0809 -0.1448
15603TIP3    H268301   3.801   1.325   2.295  0.8696 -1.1039 -0.5077
15604TIP3   OH268302   5.835   5.969   3.228 -0.3025  0.3664 -0.0533
15604TIP3    H168303   5.888   5.905   3.181 -0.4360 -1.8233  2.5392
15604TIP3    H268304   5.745   5.949   3.203 -0.5306 -1.9656  2.2118
15605TIP3   OH268305   1.793   5.039   2.359  0.4438  0.1302  0.6953
15605TIP3    H168306   1.766   4.948   2.348  0.5373  0.3632 -1.9755
15605TIP3    H268307   1.711   5.087   2.369  0.0722  0.2003 -2.0831
15606TIP3   OH268308   3.959   1.356   3.794 -0.4602  0.2470 -0.1522
15606TIP3    H168309   3.997   1.442   3.809 -1.3217  0.3315  1.8734
15606TIP3    H268310   3.925   1.360   3.705  2.4108  0.8270 -1.3154
15607TIP3   OH268311   0.300   5.694  16.425 -0.5761  0.1887  0.3671
15607TIP3    H168312   0.307   5.605  16.390  0.0595  0.5878 -0.5594
15607TIP3    H268313   0.206   5.708  16.436 -1.0043  0.6780 -2.9510
15608TIP3   OH268314   3.310   5.190   1.519 -0.1414 -0.1591 -0.2343
15608TIP3    H168315   3.355   5.154   1.595  2.1518 -1.5888 -2.0845
15608TIP3    H268316   3.275   5.274   1.548  0.8066 -0.5604  2.3023
15609TIP3   OH268317   4.906   1.335   3.993  0.0571  0.2167  0.0199
15609TIP3    H168318   4.814   1.325   4.020  0.2627  0.5763  0.8903
15609TIP3    H268319   4.917   1.273   3.922 -1.6905  2.2838 -2.2249
15610TIP3   OH268320   2.802   4.879   0.896  0.1861  0.4371 -0.4002
15610TIP3    H168321   2.755   4.937   0.957  0.3184  0.3932 -0.2575
15610TIP3    H268322   2.767   4.792   0.914 -0.5857  0.5770 -1.1554
15611TIP3   OH268323   1.798   1.240   1.251  0.4163  0.1200 -0.6393
15611TIP3    H168324   1.765   1.310   1.196  0.2927 -0.4348 -1.2948
15611TIP3    H268325   1.885   1.220   1.215 -0.6993 -2.0322 -2.4002
15612TIP3   OH268326   2.102   5.591  15.089 -0.0080 -0.3379 -0.1103
15612TIP3    H168327   2.095   5.526  15.019  0.8423  0.5049 -0.9998
15612TIP3    H268328   2.164   5.656  15.056 -0.4073  0.6393  0.9880
15613TIP3   OH268329   4.253   6.362  11.627 -0.3867 -0.1965 -0.2118
15613TIP3    H168330   4.213   6.321  11.703 -1.4428  0.5048 -0.3775
15613TIP3    H268331   4.285   6.447  11.659 -1.9204  0.6375 -0.7943
15614TIP3   OH268332   0.850   6.129   4.802 -0.2225  0.5003 -0.4440
15614TIP3    H168333   0.838   6.040   4.836 -2.3099  1.0086  0.2755
15614TIP3    H268334   0.838   6.185   4.879  1.5680  1.4395 -0.7854
15615TIP3   OH268335   2.936   5.421  11.895 -0.1406  0.4733  0.0952
15615TIP3    H168336   2.962   5.400  11.806 -0.6314 -0.4698  0.1660
15615TIP3    H268337   2.884   5.346  11.924  2.2895 -0.5712  2.1767
15616TIP3   OH268338   0.522   4.222  13.373  0.1740 -0.0127 -1.1182
15616TIP3    H168339   0.439   4.270  13.364  0.2037  0.1040 -0.7830
15616TIP3    H268340   0.497   4.141  13.418  0.0084 -0.6402 -2.3055
15617TIP3   OH268341   4.939   5.767  16.494  0.3381  0.1455 -0.3479
15617TIP3    H168342   4.981   5.812  16.421  0.8305  1.0539  0.4715
15617TIP3    H268343   4.998   5.695  16.515  0.6418  0.4117 -0.2819
15618TIP3   OH268344   3.134   2.668  14.822  0.5640 -0.1683 -0.0707
15618TIP3    H168345   3.050   2.633  14.792 -0.8202  2.3703  0.5057
15618TIP3    H268346   3.181   2.689  14.742  0.2110 -0.6424 -0.4108
15619TIP3   OH268347   1.308   0.739  11.834  0.2988 -0.7097  0.1156
15619TIP3    H168348   1.262   0.822  11.821  2.0746  0.0163 -2.2623
15619TIP3    H268349   1.358   0.753  11.915  1.1415  0.8912 -0.6182
15620TIP3   OH268350   4.570   1.439   0.963 -0.1341 -0.1331 -0.3713
15620TIP3    H168351   4.533   1.427   1.050  0.1924 -2.0594 -0.4471
15620TIP3    H268352   4.656   1.397   0.968 -0.2708 -0.6145 -1.7170
15621TIP3   OH268353   4.012   2.437   1.217 -0.1212 -0.2217  0.1108
15621TIP3    H168354   4.013   2.343   1.198  0.9268 -0.2495  0.2585
15621TIP3    H268355   4.094   2.453   1.264  0.3772  1.0051 -1.1173
15622TIP3   OH268356   3.720   5.359   1.983  0.2794 -0.5169 -0.0688
15622TIP3    H168357   3.684   5.289   1.930  1.7016 -1.0049 -0.4365
15622TIP3    H268358   3.756   5.422   1.919  0.4828 -0.2728  0.2793
15623TIP3   OH268359   4.409   1.563   3.771  0.0795  0.4402  0.2055
15623TIP3    H168360   4.446   1.649   3.793  0.2000  0.4140  0.1057
15623TIP3    H268361   4.482   1.502   3.781 -0.0470  0.3255  0.4363
15624TIP3   OH268362   5.612   0.963  14.817 -0.0851  0.4035 -0.2739
15624TIP3    H168363   5.584   1.050  14.845 -0.8686 -0.3943  1.5816
15624TIP3    H268364   5.616   0.969  14.722 -1.2983  2.1124 -0.2688
15625TIP3   OH268365   0.537   0.781   1.946 -0.0327  0.5038  0.3254
15625TIP3    H168366   0.528   0.712   1.881  0.2141  0.2438  0.5653
15625TIP3    H268367   0.525   0.862   1.897 -1.2840  0.2675  0.1959
15626TIP3   OH268368   4.063   1.984   2.126  0.4720 -0.1462 -0.0933
15626TIP3    H168369   3.969   1.967   2.120  0.1106  1.5129  0.2219
15626TIP3    H268370   4.086   1.965   2.217  0.0036  1.2196  0.3450
15627TIP3   OH268371   6.032   5.703   3.157  0.0150 -0.5538  0.3920
15627TIP3    H168372   6.119   5.736   3.181 -0.0318  0.1122 -0.3037
15627TIP3    H268373   6.033   5.702   3.061 -1.4273  1.4101  0.2900
15628TIP3   OH268374   1.394   1.760  14.332 -0.0043  0.3783  0.3235
15628TIP3    H168375   1.313   1.799  14.366 -0.0539 -0.4485  1.2221
15628TIP3    H268376   1.375   1.666  14.328  1.3820 -0.0367  2.0269
15629TIP3   OH268377   5.206   2.384   0.284 -0.2442  0.1851  0.0217
15629TIP3    H168378   5.145   2.440   0.332  0.2421 -0.8755  1.9841
15629TIP3    H268379   5.151   2.317   0.244 -0.4342 -0.9642  2.0609
15630TIP3   OH268380   2.093   1.964  13.136  0.0129  0.3241  0.3645
15630TIP3    H168381   2.168   1.907  13.118 -0.7720 -0.3877 -0.8450
15630TIP3    H268382   2.097   1.980  13.230 -0.4032 -2.7620  1.0085
15631TIP3   OH268383   4.354   2.704   1.641 -0.1087  0.0964 -0.0549
15631TIP3    H168384   4.281   2.652   1.675  0.3336 -1.8827 -1.9376
15631TIP3    H268385   4.432   2.666   1.683  0.0144  1.1947  0.7682
15632TIP3   OH268386   6.126   3.461   4.364  0.0822 -0.0613  0.6621
15632TIP3    H168387   6.195   3.494   4.422  0.0766  0.0659  0.5983
15632TIP3    H268388   6.045   3.478   4.410  0.0001  1.0692  0.1407
15633TIP3   OH268389   2.213   6.338  13.458  0.2514 -0.0292  0.1504
15633TIP3    H168390   2.275   6.328  13.386 -0.7009  0.1500 -0.7255
15633TIP3    H268391   2.127   6.341  13.415 -0.2672  1.1497  1.1937
15634TIP3   OH268392   4.024   1.247   3.101 -0.3084  0.5981  0.1206
15634TIP3    H168393   4.051   1.170   3.052 -1.9322 -1.0458  1.6471
15634TIP3    H268394   4.092   1.312   3.083  1.0626 -1.1302 -1.3183
15635TIP3   OH268395   6.119   1.929  16.403 -0.2743 -0.2514  0.1501
15635TIP3    H168396   6.061   1.901  16.473 -1.6192 -1.3179 -1.3043
15635TIP3    H268397   6.163   2.007  16.437  0.0493 -1.4316  2.5863
15636TIP3   OH268398   1.732   5.421  11.218 -0.6995  0.1943  0.1174
15636TIP3    H168399   1.685   5.350  11.263  0.2306  0.3972  1.4808
15636TIP3    H268400   1.738   5.391  11.127 -1.6636 -0.7637  0.3420
15637TIP3   OH268401   1.875   0.910   0.452  0.3672 -0.2328  0.1700
15637TIP3    H168402   1.867   0.990   0.504  0.1996 -1.0281  1.4083
15637TIP3    H268403   1.785   0.883   0.436  0.3810  0.6021 -1.5429
15638TIP3   OH268404   1.321   6.574   0.245 -0.2903  0.3992  0.3039
15638TIP3    H168405   1.262   6.649   0.239 -2.5294 -0.9891  2.7078
15638TIP3    H268406   1.278   6.505   0.194  1.0641  0.3229 -0.7792
15639TIP3   OH268407   3.969   4.464  15.061  0.0713  0.0940 -1.2551
15639TIP3    H168408   3.957   4.435  15.152 -0.0504  1.2890 -0.8708
15639TIP3    H268409   4.038   4.407  15.026 -0.9796 -1.4366 -0.9209
15640TIP3   OH268410   5.311   5.294  11.836 -0.1559 -0.1421  0.5262
15640TIP3    H168411   5.244   5.232  11.805 -0.1177 -0.7318  1.5693
15640TIP3    H268412   5.387   5.239  11.853  0.2874  0.3895  0.2811
15641TIP3   OH268413   0.124   0.272   4.521  0.2963 -0.0691 -0.3720
15641TIP3    H168414   0.090   0.350   4.479  1.1702 -0.4015 -1.7450
15641TIP3    H268415   0.052   0.209   4.517 -0.3344  0.5549  0.5440
15642TIP3   OH268416   5.697   4.277  15.266 -0.1093 -0.1400 -0.3374
15642TIP3    H168417   5.641   4.206  15.235 -0.8062  0.1606  0.2058
15642TIP3    H268418   5.781   4.262  15.222 -0.2463 -1.2923 -0.2384
15643TIP3   OH268419   6.380   2.288  15.036 -0.4062 -0.0036 -0.0261
15643TIP3    H168420   6.285   2.278  15.024  0.1254 -2.1890 -4.3674
15643TIP3    H268421   6.413   2.198  15.039  1.6731  0.6881 -0.5604
15644TIP3   OH268422   5.635   6.108   1.877  0.1972  0.2290 -0.3399
15644TIP3    H168423   5.655   6.136   1.966  0.3305  0.0070 -0.2984
15644TIP3    H268424   5.563   6.046   1.887  1.2305 -1.0085 -0.2162
15645TIP3   OH268425   1.241   3.871   0.707 -0.0572 -0.5742 -0.2521
15645TIP3    H168426   1.325   3.866   0.752 -0.3808 -1.7090  0.2554
15645TIP3    H268427   1.192   3.939   0.754 -0.7743 -2.4358  1.8447
15646TIP3   OH268428   2.874   4.510   2.650 -0.2238  0.2276  0.0372
15646TIP3    H168429   2.894   4.521   2.557 -2.5822 -2.2509 -0.8858
15646TIP3    H268430   2.783   4.482   2.651 -0.1592 -0.1244  3.1199
15647TIP3   OH268431   2.933   5.563   0.288  0.4811 -0.2063  0.5210
15647TIP3    H168432   2.891   5.530   0.367 -0.6041  0.5157  0.2702
15647TIP3    H268433   2.916   5.657   0.290 -1.3180 -0.4173 -1.5533
15648TIP3   OH268434   0.363   1.321  11.798 -0.3708  0.0506  0.0706
15648TIP3    H168435   0.367   1.417  11.805 -0.1779  0.3037 -2.5438
15648TIP3    H268436   0.271   1.302  11.781 -0.7431 -0.4537  2.3354
15649TIP3   OH268437   3.425   6.492  11.442 -0.3805  0.0995  0.2613
15649TIP3    H168438   3.443   6.535  11.526  0.6959 -1.0060  0.6393
15649TIP3    H268439   3.510   6.492  11.397 -1.5358  3.4875 -2.2719
15650TIP3   OH268440   2.463   0.197   2.897  0.2550 -0.0684 -0.3626
15650TIP3    H168441   2.535   0.229   2.843  1.5728 -0.7520  0.9195
15650TIP3    H268442   2.414   0.139   2.839 -0.3881  1.7951 -1.7946
15651TIP3   OH268443   2.845   5.518   2.311  0.3155 -0.3976  0.0437
15651TIP3    H168444   2.805   5.516   2.224 -0.3806 -0.9015  0.3626
15651TIP3    H268445   2.771   5.531   2.371  0.7652 -0.2219  0.5709
15652TIP3   OH268446   6.535   6.629   4.196  0.2353 -0.2959 -1.1433
15652TIP3    H168447   6.472   6.655   4.263  0.8252 -0.1793 -0.6264
15652TIP3    H268448   6.500   6.547   4.161  1.4036 -1.9832  1.3735
15653TIP3   OH268449   4.438   5.545   0.829  0.7091  0.4703 -0.2092
15653TIP3    H168450   4.514   5.592   0.793  0.8395  1.4013  1.1763
15653TIP3    H268451   4.368   5.610   0.832  0.8339  0.5861  1.5645
15654TIP3   OH268452   4.606   5.467   4.671  0.6936  0.0096  0.4949
15654TIP3    H168453   4.692   5.427   4.678  0.6010 -0.0547  1.3846
15654TIP3    H268454   4.549   5.398   4.637  0.9419 -0.0085  0.1074
15655TIP3   OH268455   3.172   3.269  11.656  0.0109  0.0360 -0.5461
15655TIP3    H168456   3.205   3.271  11.746  1.7392 -0.2545 -1.1337
15655TIP3    H268457   3.137   3.357  11.641 -1.5124 -0.3005  0.8119
15656TIP3   OH268458   0.094   2.433  17.111 -0.4293  0.2125 -0.1171
15656TIP3    H168459   0.135   2.519  17.124  0.4948 -0.2922  0.3513
15656TIP3    H268460   0.151   2.389  17.048 -0.6957 -0.2005 -0.0695
15657TIP3   OH268461   2.236   2.458   2.012 -0.2966 -0.2317  0.2027
15657TIP3    H168462   2.224   2.363   2.021 -0.1319 -0.2797 -0.0639
15657TIP3    H268463   2.330   2.472   2.024 -0.3754 -0.0582  0.6124
15658TIP3   OH268464   3.201   2.227  10.899  0.2213  0.1898  0.2089
15658TIP3    H168465   3.110   2.214  10.871  0.4680 -2.1268  0.3297
15658TIP3    H268466   3.196   2.238  10.994 -0.0128  1.2581  0.0845
15659TIP3   OH268467   1.683   6.082  14.751  0.1364 -0.2085 -0.4884
15659TIP3    H168468   1.768   6.103  14.789 -0.0133  1.9809 -1.2026
15659TIP3    H268469   1.627   6.063  14.826  0.9272 -0.3284  0.0812
15660TIP3   OH268470   4.041   6.404   2.230  0.6426 -0.2215 -0.1714
15660TIP3    H168471   3.969   6.363   2.277  1.8468 -0.3858  1.6135
15660TIP3    H268472   4.119   6.379   2.279  1.8407  0.6387 -1.5615
15661TIP3   OH268473   0.680   0.749  13.927 -0.5528  0.3311 -0.0502
15661TIP3    H168474   0.684   0.819  13.862 -0.9163  0.4173  0.0199
15661TIP3    H268475   0.769   0.714  13.930 -0.2157  1.1933  0.3576
15662TIP3   OH268476   2.600   2.064   2.791  0.4107  0.0453  0.4327
15662TIP3    H168477   2.562   1.976   2.792  0.8803 -0.1747  2.2912
15662TIP3    H268478   2.535   2.118   2.837 -0.2476  0.8937 -1.3669
15663TIP3   OH268479   4.112   6.741   1.128 -0.0106 -0.8595  0.7677
15663TIP3    H168480   4.037   6.801   1.129 -0.8297 -1.7812 -1.2406
15663TIP3    H268481   4.156   6.758   1.045  0.6413 -1.9767  0.8622
15664TIP3   OH268482   6.144   2.042  16.663  0.3074  0.1039 -0.0144
15664TIP3    H168483   6.110   2.051  16.752 -0.7461  1.6536 -0.5210
15664TIP3    H268484   6.234   2.010  16.674  0.4272  0.9101  1.6404
15665TIP3   OH268485   4.001   6.679  15.288  0.4921 -0.0796 -0.3729
15665TIP3    H168486   4.036   6.685  15.377 -0.3265 -0.6346 -0.0115
15665TIP3    H268487   4.062   6.731  15.236  0.1136  1.5789  0.7643
15666TIP3   OH268488   2.234   3.121   4.506 -0.2660 -0.2575 -0.1057
15666TIP3    H168489   2.271   3.035   4.526 -0.0149 -0.2977 -0.7189
15666TIP3    H268490   2.170   3.105   4.437 -0.8862 -0.0784  0.4227
15667TIP3   OH268491   1.512   4.623  10.106  0.2747  0.2519  0.4550
15667TIP3    H168492   1.605   4.601  10.111  0.6721  1.9662  1.0317
15667TIP3    H268493   1.506   4.688  10.036 -0.2055  1.4209  1.5433
15668TIP3   OH268494   1.906   0.632   5.740 -0.1618  0.4134 -0.3802
15668TIP3    H168495   1.959   0.664   5.813  1.0507  0.1809 -1.1261
15668TIP3    H268496   1.927   0.692   5.668  0.7491 -0.9295 -1.2770
15669TIP3   OH268497   1.823   1.655  15.851 -0.3643 -0.5337  0.0910
15669TIP3    H168498   1.845   1.628  15.940 -0.6700 -0.0921  0.3015
15669TIP3    H268499   1.743   1.605  15.830  1.2228 -2.8029 -0.9931
15670TIP3   OH268500   0.670   0.006  11.072 -0.3928  0.1832  0.0647
15670TIP3    H168501   0.742   0.061  11.106  0.2901 -0.4303 -0.3637
15670TIP3    H268502   0.637   0.055  10.997  0.1636  0.0448 -0.2720
15671TIP3   OH268503   3.527   6.816  12.823  0.1415 -0.2162  0.0660
15671TIP3    H168504   3.619   6.822  12.799 -0.4992  1.7179 -2.2221
15671TIP3    H268505   3.490   6.752  12.762 -0.4265  0.4939 -0.3358
15672TIP3   OH268506   2.093   6.058   1.865  0.3592 -0.4526  0.8456
15672TIP3    H168507   2.155   6.111   1.815  0.4401  0.3714  1.7819
15672TIP3    H268508   2.145   6.022   1.937  0.0443 -0.8644  0.8749
15673TIP3   OH268509   6.079   5.998  15.572 -0.0834 -0.5083 -0.2472
15673TIP3    H168510   6.127   5.960  15.646 -0.2857 -1.4692 -0.5878
15673TIP3    H268511   5.998   6.032  15.609  0.3479  0.0871  0.1546
15674TIP3   OH268512   1.723   6.383   4.264 -0.1030 -0.5165  0.1884
15674TIP3    H168513   1.792   6.365   4.328 -0.2854 -0.7216  0.3283
15674TIP3    H268514   1.653   6.424   4.315  0.8079  1.8737 -0.3197
15675TIP3   OH268515   2.007   4.820  12.642  0.1605  0.0851  0.1800
15675TIP3    H168516   1.970   4.907  12.655 -1.7339 -0.6619  0.1458
15675TIP3    H268517   2.020   4.786  12.730  1.8804  0.7437  0.2197
15676TIP3   OH268518   3.241   2.900   4.518  0.1744  0.8816  0.4164
15676TIP3    H168519   3.326   2.868   4.549 -1.1768 -1.5083  1.9725
15676TIP3    H268520   3.219   2.843   4.444  0.1942  1.9538 -0.4437
15677TIP3   OH268521   0.777   4.380  11.511 -0.0238  0.1654  0.7440
15677TIP3    H168522   0.812   4.452  11.458  0.2629  0.9707  1.9743
15677TIP3    H268523   0.716   4.422  11.571 -0.5587 -0.7613  0.8639
15678TIP3   OH268524   6.079   4.203   5.392 -0.1465 -0.1451  0.1773
15678TIP3    H168525   6.058   4.110   5.395  0.1220 -0.2265 -0.3430
15678TIP3    H268526   6.002   4.244   5.354  0.9326 -0.5764 -2.8244
15679TIP3   OH268527   3.520   2.461  13.793 -0.5578  0.2349 -0.1779
15679TIP3    H168528   3.605   2.417  13.787  0.0557  1.1747  1.0467
15679TIP3    H268529   3.494   2.452  13.884 -1.4446  0.5607 -0.3839
15680TIP3   OH268530   4.862   6.570   0.921  0.3842  0.4353 -0.9635
15680TIP3    H168531   4.771   6.563   0.892  0.3547 -0.4306 -0.6856
15680TIP3    H268532   4.875   6.664   0.936 -1.0598  0.4031  0.8711
15681TIP3   OH268533   0.556   3.479  16.870  0.1506 -0.0790 -0.7716
15681TIP3    H168534   0.560   3.532  16.790 -0.7528 -1.7956 -2.0269
15681TIP3    H268535   0.467   3.445  16.871  0.2016 -0.2072  0.9219
15682TIP3   OH268536   5.389   0.019   1.871  0.0497 -0.5204 -0.5757
15682TIP3    H168537   5.446   0.041   1.797  1.0040 -2.4591 -0.4735
15682TIP3    H268538   5.409  -0.073   1.890 -0.9605 -0.3696  1.4099
15683TIP3   OH268539   0.787   2.750  16.693  0.0574 -0.2272 -0.2290
15683TIP3    H168540   0.852   2.703  16.640 -0.3678 -0.2730 -0.7184
15683TIP3    H268541   0.838   2.789  16.764  0.9200  1.1597 -1.5254
15684TIP3   OH268542   2.247   2.488  13.404  0.4140  0.6019 -0.0918
15684TIP3    H168543   2.342   2.482  13.394  0.4133  1.5328 -0.7935
15684TIP3    H268544   2.212   2.430  13.336  0.4645 -1.1915  1.3442
15685TIP3   OH268545   4.170   1.494   4.739  0.8009 -0.5919  0.3924
15685TIP3    H168546   4.257   1.509   4.702  0.6303  1.0147  0.5537
15685TIP3    H268547   4.170   1.402   4.765  1.9562 -0.9759 -0.8694
15686TIP3   OH268548   4.946   5.645   3.916  0.6856 -0.4579 -0.3805
15686TIP3    H168549   4.900   5.570   3.954 -0.7291  1.0551  1.0043
15686TIP3    H268550   4.877   5.700   3.879  1.8480 -0.9485 -3.6778
15687TIP3   OH268551   3.029   5.061   6.190 -0.4309  0.3763  1.1457
15687TIP3    H168552   3.075   5.075   6.273 -0.6771  1.3282  1.1284
15687TIP3    H268553   3.062   5.129   6.132 -1.0735  0.4028  0.8016
15688TIP3   OH268554   2.381   1.102  11.951  0.2504 -0.0886 -0.9387
15688TIP3    H168555   2.287   1.088  11.955  0.3744 -0.8397 -0.4065
15688TIP3    H268556   2.402   1.144  12.035  0.2921  0.7465 -1.3566
15689TIP3   OH268557   2.043   0.721  11.583 -0.3646  0.5100 -0.1994
15689TIP3    H168558   2.041   0.630  11.553 -0.1256  0.1444  0.8464
15689TIP3    H268559   2.030   0.773  11.504 -0.1472 -0.4255 -0.8614
15690TIP3   OH268560   5.022   3.290   0.599 -0.0529  0.0249 -0.0419
15690TIP3    H168561   5.105   3.287   0.648  0.5488 -1.4711 -1.0873
15690TIP3    H268562   5.048   3.294   0.507 -1.1001 -1.9474 -0.4716
15691TIP3   OH268563   1.767   5.066   3.134  0.3959 -0.4176  0.1524
15691TIP3    H168564   1.709   5.046   3.060 -0.1263  3.5741 -0.7514
15691TIP3    H268565   1.743   5.002   3.201 -0.0309 -3.3757 -2.6094
15692TIP3   OH268566   3.905   5.481  12.961  0.2812  0.1240 -0.1449
15692TIP3    H168567   3.919   5.439  12.875  1.2986  1.5417 -0.7225
15692TIP3    H268568   3.967   5.554  12.961 -0.7389  1.0140  1.2274
15693TIP3   OH268569   2.145   1.078  13.091  0.0772 -0.1447 -0.4238
15693TIP3    H168570   2.073   1.019  13.113 -0.4824 -0.0134 -1.7738
15693TIP3    H268571   2.164   1.124  13.173  0.5751 -2.1926  0.6870
15694TIP3   OH268572   2.211   1.455   0.692 -0.0095  0.6631  0.3515
15694TIP3    H168573   2.180   1.424   0.606  2.5482  2.9222 -1.5583
15694TIP3    H268574   2.155   1.530   0.711 -1.2053 -0.4003  1.2233
15695TIP3   OH268575   2.752   5.297   5.497  0.5015 -0.0698  0.1079
15695TIP3    H168576   2.802   5.357   5.551  1.0134  0.2718 -0.7319
15695TIP3    H268577   2.719   5.351   5.425 -2.7505  0.2025  1.5977
15696TIP3   OH268578   0.824   2.744  14.166 -0.4107  0.3439 -0.4878
15696TIP3    H168579   0.782   2.781  14.244  0.7311  0.0419  0.2979
15696TIP3    H268580   0.760   2.680  14.133 -0.0531 -1.1508  1.5052
15697TIP3   OH268581   2.972   1.409  14.000  0.2675  0.4244  0.1773
15697TIP3    H168582   2.969   1.501  13.975  0.1987  0.4070  0.1221
15697TIP3    H268583   2.948   1.409  14.093  0.1968  0.4548  0.1587
15698TIP3   OH268584   3.873   0.300   3.190  0.1490  0.2370  0.2416
15698TIP3    H168585   3.936   0.267   3.125  0.5651 -0.8654  1.1720
15698TIP3    H268586   3.883   0.395   3.187 -0.1530  0.2453 -1.6077
15699TIP3   OH268587   5.174   5.010   1.620 -0.9473  0.1220  0.2586
15699TIP3    H168588   5.259   4.994   1.660 -0.8120 -0.8690 -0.4117
15699TIP3    H268589   5.188   4.995   1.527 -2.6400 -3.7156  0.4386
15700TIP3   OH268590   5.975   0.523   4.881 -0.0203  0.7650  0.0764
15700TIP3    H168591   5.937   0.475   4.955  0.6994  0.9252  0.5649
15700TIP3    H268592   5.900   0.556   4.832 -0.5084  0.6961  0.7684
15701TIP3   OH268593   2.984   0.532   3.957 -0.4178  0.5096  0.2614
15701TIP3    H168594   3.040   0.454   3.962 -2.3170 -1.0505 -1.0728
15701TIP3    H268595   3.017   0.580   3.881  2.3760  2.4823  2.5338
15702TIP3   OH268596   3.689   6.556   1.837  0.1932 -0.2553  0.8413
15702TIP3    H168597   3.645   6.633   1.873  2.9409  1.1864  1.3799
15702TIP3    H268598   3.748   6.527   1.906  0.1702 -2.0715  0.1508
15703TIP3   OH268599   5.838   5.614  17.149 -0.1025  0.3236 -0.1854
15703TIP3    H168600   5.806   5.692  17.104  0.4291  0.5549 -0.1687
15703TIP3    H268601   5.868   5.556  17.078 -1.1555 -0.1691 -0.2376
15704TIP3   OH268602   4.993   2.252  16.385 -0.2918 -0.3215  0.5672
15704TIP3    H168603   4.924   2.318  16.384 -1.3324 -1.3812  1.0166
15704TIP3    H268604   5.002   2.228  16.477  0.2438 -0.6430  0.4389
15705TIP3   OH268605   0.203   0.056  10.976 -0.0636  0.1392 -0.2525
15705TIP3    H168606   0.112   0.029  10.966 -0.3750  1.7266 -2.1972
15705TIP3    H268607   0.245   0.036  10.892  1.0021  0.7728  0.0977
15706TIP3   OH268608   3.041   2.168   0.450 -0.5662 -0.2252 -0.7890
15706TIP3    H168609   2.991   2.112   0.390 -0.2289  0.8535 -2.1337
15706TIP3    H268610   3.054   2.249   0.401 -0.0109  0.5886  0.6613
15707TIP3   OH268611   2.952   5.942  13.567 -0.4788  1.0245  0.4139
15707TIP3    H168612   2.981   5.936  13.658  0.5320  1.1783  0.1178
15707TIP3    H268613   2.869   5.894  13.564  0.4120 -0.5971  1.0260
15708TIP3   OH268614   2.229   3.562  12.862 -0.2630  0.3588 -0.5807
15708TIP3    H168615   2.289   3.629  12.895 -1.7159  0.3990  2.3206
15708TIP3    H268616   2.143   3.590  12.893 -1.0220 -2.4594  0.1445
15709TIP3   OH268617   1.379   3.841  12.877 -0.3697  0.2494  0.1029
15709TIP3    H168618   1.342   3.928  12.868 -0.1025  0.3507 -0.0422
15709TIP3    H268619   1.474   3.856  12.883 -0.4457  0.1222  2.1181
15710TIP3   OH268620   1.378   0.749   5.953 -0.1218 -0.3965  0.3555
15710TIP3    H168621   1.465   0.782   5.978 -1.2128  0.1081  3.9736
15710TIP3    H268622   1.339   0.820   5.902  0.8487  0.1948  0.4051
15711TIP3   OH268623   0.661   5.109  15.634 -0.0454 -0.7260 -0.0911
15711TIP3    H168624   0.639   5.043  15.567 -1.9043 -0.9574  0.7178
15711TIP3    H268625   0.739   5.073  15.676 -0.1327 -1.6626 -0.6799
15712TIP3   OH268626   4.621   2.738   3.970  0.2756  0.0412  0.4259
15712TIP3    H168627   4.624   2.762   3.877  0.5963 -0.3937  0.3187
15712TIP3    H268628   4.673   2.804   4.014 -0.2731  0.5231  0.3585
15713TIP3   OH268629   0.935   4.364  15.278 -0.4040 -0.6102 -0.0565
15713TIP3    H168630   0.916   4.285  15.328 -0.1041 -1.5593 -1.3863
15713TIP3    H268631   0.910   4.342  15.188  1.3693  0.1613 -0.7812
15714TIP3   OH268632   5.698   6.712  13.911 -0.0573  0.1579  0.1328
15714TIP3    H168633   5.794   6.705  13.910 -0.0113  0.6510  0.8571
15714TIP3    H268634   5.681   6.805  13.924 -0.6057 -0.2338  2.6147
15715TIP3   OH268635   4.429   5.940   0.465 -0.0159  0.2198  0.3431
15715TIP3    H168636   4.383   6.007   0.516  0.2888  0.2079  0.6411
15715TIP3    H268637   4.395   5.857   0.499  0.6331  0.1974  0.9686
15716TIP3   OH268638   0.080   3.613   5.125  0.1681  0.2313 -0.0986
15716TIP3    H168639   0.101   3.648   5.211 -2.2624 -0.7897  0.9994
15716TIP3    H268640   0.103   3.520   5.131  0.3643  0.2364 -0.7011
15717TIP3   OH268641   2.245   3.913  12.054  0.0111 -0.3087 -0.4068
15717TIP3    H168642   2.330   3.929  12.013  0.3265 -0.0129  0.3451
15717TIP3    H268643   2.183   3.912  11.980  0.5473  0.3091 -0.8878
15718TIP3   OH268644   1.668   3.266   1.256  0.8067 -0.0508 -0.0816
15718TIP3    H168645   1.625   3.201   1.200  2.3986 -1.2241 -0.0427
15718TIP3    H268646   1.696   3.335   1.196 -3.8497  2.5510  0.2449
15719TIP3   OH268647   5.552   1.694   3.433  0.4678 -0.5752 -0.0222
15719TIP3    H168648   5.479   1.682   3.373 -0.1308 -1.1106  0.7884
15719TIP3    H268649   5.630   1.682   3.379 -0.0317 -0.1086 -0.8765
15720TIP3   OH268650   3.144   1.427  16.191  0.6642  0.0467 -0.3758
15720TIP3    H168651   3.176   1.501  16.242 -0.7806  1.1356 -0.9612
15720TIP3    H268652   3.222   1.381  16.162  1.5689  0.8704  0.6973
15721TIP3   OH268653   1.668   2.434   4.502  0.2813  0.5396  0.7746
15721TIP3    H168654   1.619   2.490   4.561 -0.3531  1.4584 -0.5778
15721TIP3    H268655   1.760   2.452   4.523  0.1190 -0.7210  2.8793
15722TIP3   OH268656   4.138   4.399  16.447  0.4496  0.4115 -0.1461
15722TIP3    H168657   4.212   4.402  16.507 -0.5205  2.6108  1.0452
15722TIP3    H268658   4.119   4.491  16.427 -1.3844 -0.1293 -1.1245
15723TIP3   OH268659   4.084   1.852  15.855 -0.2906 -0.2958  0.1315
15723TIP3    H168660   4.046   1.766  15.872 -0.5032 -0.0516  0.9384
15723TIP3    H268661   4.010   1.909  15.841 -0.1509 -0.7758 -3.4956
15724TIP3   OH268662   3.240   6.226   0.715  0.5964 -0.0968 -0.0238
15724TIP3    H168663   3.199   6.219   0.801 -0.1296  1.8382 -0.1646
15724TIP3    H268664   3.317   6.281   0.729  0.8612 -0.3442 -0.4810
15725TIP3   OH268665   2.113   0.437  11.765 -0.4226 -0.1841 -0.1640
15725TIP3    H168666   2.101   0.342  11.770 -1.1563 -0.1654 -1.1938
15725TIP3    H268667   2.072   0.471  11.845 -0.6113 -0.7008 -0.0374
15726TIP3   OH268668   1.779   3.264   1.518  0.6273 -0.0064 -0.5652
15726TIP3    H168669   1.869   3.289   1.495  0.1512  3.6815  0.7881
15726TIP3    H268670   1.730   3.272   1.436  0.8629  2.2507 -0.5530
15727TIP3   OH268671   5.578   4.092   3.267  0.4140 -0.9733  0.8932
15727TIP3    H168672   5.528   4.157   3.219  2.1180 -0.7029 -0.6151
15727TIP3    H268673   5.576   4.122   3.358 -0.0798  0.3318  0.4695
15728TIP3   OH268674   2.861   1.091   6.221  0.6259 -0.0684  0.2821
15728TIP3    H168675   2.783   1.107   6.168  1.7419  1.7286 -0.9331
15728TIP3    H268676   2.903   1.016   6.179  0.2690 -0.1652  0.0884
15729TIP3   OH268677   6.134   3.728   0.115 -0.0925  0.0840 -0.6897
15729TIP3    H168678   6.219   3.747   0.155  0.8585  0.2826 -2.6429
15729TIP3    H268679   6.084   3.684   0.183  1.0406  1.2820  0.9947
15730TIP3   OH268680   5.700   1.304  16.341 -0.1935  0.0109 -0.3568
15730TIP3    H168681   5.670   1.375  16.286  0.5307  0.6039 -0.0072
15730TIP3    H268682   5.654   1.227  16.309  1.0975  0.0882 -2.5851
15731TIP3   OH268683   0.322   0.924   0.936 -0.1498  0.3580 -0.1684
15731TIP3    H168684   0.342   0.983   0.864  1.5270  2.0166  1.5301
15731TIP3    H268685   0.320   0.980   1.014  0.8478 -1.6805  1.4508
15732TIP3   OH268686   0.613   5.139   5.651  0.2812  0.0600  0.6095
15732TIP3    H168687   0.686   5.120   5.593  0.8553  1.4964  0.8205
15732TIP3    H268688   0.557   5.061   5.645  1.6575 -0.9396  0.2179
15733TIP3   OH268689   2.907   0.778   3.728  0.5296  0.9355  0.4082
15733TIP3    H168690   2.885   0.790   3.821  0.9699  1.5504  0.4370
15733TIP3    H268691   2.852   0.704   3.700 -0.1815  1.2417  0.9527
15734TIP3   OH268692   0.237   2.634   3.520 -0.6263  0.0174  0.1704
15734TIP3    H168693   0.239   2.559   3.580  2.1566  0.2428  0.4740
15734TIP3    H268694   0.256   2.709   3.576  1.6448  0.2745 -0.8499
15735TIP3   OH268695   3.591   1.231   0.520  0.2108 -0.3879 -0.3627
15735TIP3    H168696   3.606   1.137   0.529  4.0837  0.1451  0.7775
15735TIP3    H268697   3.540   1.255   0.597  1.7215 -1.1813  0.9349
15736TIP3   OH268698   6.079   0.597  15.211 -0.0066 -0.1981  0.1667
15736TIP3    H168699   6.055   0.564  15.297 -0.5347 -0.7681 -0.1828
15736TIP3    H268700   6.095   0.690  15.223 -0.0964 -0.2730  0.8710
15737TIP3   OH268701   1.697   1.303   0.557  0.2837 -0.2593  0.3810
15737TIP3    H168702   1.679   1.329   0.647  0.6596 -0.1069  0.4125
15737TIP3    H268703   1.780   1.256   0.561  0.5348  0.1469  0.0499
15738TIP3   OH268704   4.765   6.270  12.553 -0.0861  0.3243  0.1627
15738TIP3    H168705   4.717   6.230  12.481 -0.8638  0.6287  0.4978
15738TIP3    H268706   4.727   6.232  12.632  0.9418 -0.2072  0.4255
15739TIP3   OH268707   5.838   2.162  17.146 -0.3104  0.1774 -1.3236
15739TIP3    H168708   5.866   2.087  17.198  0.0225  0.0923 -1.6221
15739TIP3    H268709   5.776   2.208  17.202 -1.1137 -0.7397 -1.4318
15740TIP3   OH268710   4.259   5.869   5.572  0.0387  0.0194 -0.2152
15740TIP3    H168711   4.273   5.775   5.583 -0.1687  0.1348  1.1286
15740TIP3    H268712   4.164   5.878   5.561 -0.4345  0.3383  3.1864
15741TIP3   OH268713   4.853   2.938   3.251 -0.7889 -0.0393 -0.0535
15741TIP3    H168714   4.931   2.992   3.266 -1.4336  0.3207  2.4430
15741TIP3    H268715   4.810   2.979   3.176  0.3832  0.9660 -0.2138
15742TIP3   OH268716   0.866   1.102   5.372  0.0044 -0.7942  0.1845
15742TIP3    H168717   0.843   1.112   5.465  1.8137 -1.6452  0.7707
15742TIP3    H268718   0.939   1.163   5.360 -0.1938 -0.7257 -0.6847
15743TIP3   OH268719   3.064   0.745   2.327 -0.2229  0.3714 -0.0415
15743TIP3    H168720   2.991   0.710   2.378 -0.4693  0.7757 -0.1104
15743TIP3    H268721   3.142   0.708   2.368 -0.5227 -1.5473 -1.0996
15744TIP3   OH268722   1.195   1.000  12.045 -0.2905  0.2963  0.2573
15744TIP3    H168723   1.116   1.053  12.036 -0.4806  0.0722  0.6167
15744TIP3    H268724   1.259   1.058  12.086 -0.4702  0.2768  0.5633
15745TIP3   OH268725   0.009   1.930  14.215  0.4182  0.6553 -0.1697
15745TIP3    H168726  -0.050   1.961  14.146 -0.8599 -0.0262  0.5684
15745TIP3    H268727  -0.017   1.980  14.293  2.2787  1.8905 -0.2771
15746TIP3   OH268728   4.160   4.328   3.813  0.0428  0.0702  0.5499
15746TIP3    H168729   4.128   4.288   3.732  0.0650  0.3698  0.3899
15746TIP3    H268730   4.130   4.271   3.883 -0.3357  0.0358  0.3570
15747TIP3   OH268731   5.700   2.636  15.461 -0.4736  0.5104 -0.4961
15747TIP3    H168732   5.773   2.609  15.517 -0.7714  0.0887 -0.3080
15747TIP3    H268733   5.621   2.611  15.510 -0.7487  0.9749 -0.6903
15748TIP3   OH268734   5.444   5.842  11.242  0.1383 -0.7736 -0.2010
15748TIP3    H168735   5.482   5.852  11.154  1.1833  0.0458  0.3275
15748TIP3    H268736   5.504   5.783  11.287  0.2319 -0.2891  0.3181
15749TIP3   OH268737   2.462   2.554   4.488  0.6923  0.4076 -0.0791
15749TIP3    H168738   2.495   2.644   4.487 -0.3508  0.8402  1.4193
15749TIP3    H268739   2.525   2.507   4.543 -0.8170  1.1341  2.4034
15750TIP3   OH268740   4.272   0.881  14.145  0.1750 -0.5297  0.2897
15750TIP3    H168741   4.266   0.945  14.074 -0.1471 -0.6545  0.1984
15750TIP3    H268742   4.271   0.796  14.100 -1.4938 -0.6593  0.4880
15751TIP3   OH268743   3.919   2.117  16.504  0.0101 -0.1671  0.4582
15751TIP3    H168744   3.828   2.100  16.480 -0.1879  1.3198  0.0472
15751TIP3    H268745   3.924   2.212  16.516  1.4561 -0.2392  0.7121
15752TIP3   OH268746   3.072   5.706  13.729  0.0305 -0.3171 -0.4546
15752TIP3    H168747   2.999   5.744  13.778  0.9229  2.2543 -0.9954
15752TIP3    H268748   3.032   5.672  13.649 -0.5324  1.5788 -1.0165
15753TIP3   OH268749   6.409   6.324  13.046 -0.3511 -0.0359  0.1122
15753TIP3    H168750   6.330   6.325  12.992 -0.6904  0.8322  0.6078
15753TIP3    H268751   6.395   6.393  13.111  0.7187 -0.0214  0.3467
15754TIP3   OH268752   0.018   4.304   4.324 -0.5696  0.0374  0.2537
15754TIP3    H168753  -0.064   4.354   4.327 -0.9873 -0.4965 -1.4892
15754TIP3    H268754   0.017   4.261   4.239  1.7080  0.2914  0.0472
15755TIP3   OH268755   5.523   2.403  15.034  0.0617 -0.0277  0.0397
15755TIP3    H168756   5.439   2.361  15.050 -0.2989  0.3781 -0.7193
15755TIP3    H268757   5.529   2.471  15.101 -0.4356  0.2514 -0.1968
15756TIP3   OH268758   5.851   5.131  11.876 -0.0162  0.5596  0.1512
15756TIP3    H168759   5.862   5.174  11.792 -0.9029 -1.4560 -1.0692
15756TIP3    H268760   5.823   5.201  11.936 -1.8416  1.6390 -1.8269
15757TIP3   OH268761   3.542   2.920   2.092 -0.5528  0.3316  0.1982
15757TIP3    H168762   3.575   2.831   2.080  4.0301  1.5591  1.3648
15757TIP3    H268763   3.538   2.956   2.003 -0.2188 -0.3945 -0.1175
15758TIP3   OH268764   3.044   2.937  12.210  1.0378 -0.0380  0.1410
15758TIP3    H168765   2.973   2.901  12.157  1.5047 -0.9390  0.1024
15758TIP3    H268766   3.029   2.902  12.298  2.6022 -2.0472 -0.3118
15759TIP3   OH268767   2.385   5.528  11.274 -0.4718 -0.2853  0.7478
15759TIP3    H168768   2.290   5.522  11.277 -0.5287 -0.0905 -0.1867
15759TIP3    H268769   2.403   5.597  11.209  0.2927  1.2762  2.5175
15760TIP3   OH268770   3.802   0.068   0.274  0.4314 -0.2972 -0.2626
15760TIP3    H168771   3.880   0.012   0.279 -1.2334 -2.6381  1.1200
15760TIP3    H268772   3.761   0.046   0.191 -1.0703 -2.4887  0.9588
15761TIP3   OH268773   1.321   0.141  11.199  0.6966 -0.4601 -0.6515
15761TIP3    H168774   1.415   0.140  11.182  0.7554  1.1427 -0.5521
15761TIP3    H268775   1.306   0.062  11.252  1.4125 -2.5032 -3.2824
15762TIP3   OH268776   1.933   4.857   0.822 -0.3588  0.1681 -0.1248
15762TIP3    H168777   1.866   4.850   0.890  0.8356  2.1267  1.3451
15762TIP3    H268778   2.014   4.828   0.865  0.4248  1.4764 -0.6710
15763TIP3   OH268779   6.333   4.368  13.613 -0.3763 -0.2347 -0.0472
15763TIP3    H168780   6.289   4.364  13.529 -0.1015 -0.1527 -0.1994
15763TIP3    H268781   6.377   4.453  13.613  0.0950 -0.4739 -0.0614
15764TIP3   OH268782   3.807   1.870   2.192  0.0108 -1.1192  0.3567
15764TIP3    H168783   3.837   1.781   2.169  1.5113 -0.1579 -1.7631
15764TIP3    H268784   3.782   1.864   2.284  2.0134 -3.2811  0.8580
15765TIP3   OH268785   0.026   2.709  13.866 -0.4783  0.5966  0.3333
15765TIP3    H168786   0.083   2.711  13.943 -0.9899  1.4058  0.7097
15765TIP3    H268787  -0.043   2.772  13.886 -1.1807  0.0674 -0.3647
15766TIP3   OH268788   6.560   1.762  13.091  0.4444 -0.0330 -0.3417
15766TIP3    H168789   6.554   1.674  13.053 -2.7470 -0.1053  0.0888
15766TIP3    H268790   6.539   1.749  13.184  1.6220  1.0185  0.1067
15767TIP3   OH268791   0.110   5.076   4.452 -0.4249  0.4554  0.4420
15767TIP3    H168792   0.090   5.012   4.520  1.1951  0.4753  0.9762
15767TIP3    H268793   0.051   5.053   4.380 -0.2251 -1.3484  0.8017
15768TIP3   OH268794   2.615   1.925  15.655  0.2489  0.3898 -0.0818
15768TIP3    H168795   2.520   1.921  15.642  0.1472  1.1151  0.4148
15768TIP3    H268796   2.630   1.873  15.734  0.5262 -1.4861 -1.2965
15769TIP3   OH268797   6.462   0.520   4.704 -0.0121  0.4380 -0.2614
15769TIP3    H168798   6.394   0.587   4.701 -0.7495 -0.3101 -1.1688
15769TIP3    H268799   6.495   0.516   4.614 -0.3272 -0.7431 -0.3437
15770TIP3   OH268800   1.323   4.027   5.481  0.0498 -0.3933  0.3041
15770TIP3    H168801   1.241   4.014   5.434  0.1651 -0.0791  0.0196
15770TIP3    H268802   1.346   3.939   5.513  0.2186 -0.6923 -0.6252
15771TIP3   OH268803   5.825   2.961  11.399 -0.0751  0.5274 -0.5144
15771TIP3    H168804   5.823   2.928  11.309  1.0526  0.4676 -0.5394
15771TIP3    H268805   5.791   3.051  11.393 -2.8867 -0.4460 -0.4918
15772TIP3   OH268806   6.385   1.407   0.271  0.3960 -0.5213  0.6779
15772TIP3    H168807   6.344   1.491   0.288 -1.3616 -1.2157  0.0923
15772TIP3    H268808   6.479   1.424   0.279  0.0305  1.0785  2.3349
15773TIP3   OH268809   5.640   3.331   2.642  0.1594 -0.0362 -0.3858
15773TIP3    H168810   5.551   3.356   2.616 -0.2759  0.2144  1.2282
15773TIP3    H268811   5.628   3.250   2.692  0.6032  0.9526  1.3880
15774TIP3   OH268812   4.850   1.221   5.509  0.2352 -0.4558  0.9139
15774TIP3    H168813   4.927   1.165   5.520  2.1009  2.0691  1.7721
15774TIP3    H268814   4.780   1.162   5.482  2.2029 -3.0410  1.1451
15775TIP3   OH268815   1.949   3.437  12.726  0.8177  0.2551 -0.0590
15775TIP3    H168816   1.875   3.419  12.668  0.4831  4.2150 -1.1307
15775TIP3    H268817   2.021   3.387  12.688  0.0787  1.0093 -2.7241
15776TIP3   OH268818   2.228   1.624   6.092  0.1921 -0.5311  0.0810
15776TIP3    H168819   2.186   1.709   6.085 -0.1557 -0.6345  0.7879
15776TIP3    H268820   2.237   1.609   6.187  0.7488 -1.0303 -0.0404
15777TIP3   OH268821   3.402   5.299   4.919  0.5090  0.3272  0.8335
15777TIP3    H168822   3.405   5.335   5.008 -0.1711 -1.2712  1.5444
15777TIP3    H268823   3.345   5.223   4.926  1.4299 -0.5539 -0.7229
15778TIP3   OH268824   5.870   0.521  12.402  0.3076 -0.4582 -0.2143
15778TIP3    H168825   5.904   0.570  12.476 -4.3881  0.4030  1.7206
15778TIP3    H268826   5.852   0.588  12.335  0.2594 -0.5559 -0.3008
15779TIP3   OH268827   3.199   0.757   4.141 -0.6598 -0.5088  0.7222
15779TIP3    H168828   3.254   0.823   4.183 -2.0091  1.0893  0.1183
15779TIP3    H268829   3.163   0.802   4.064 -1.8365 -1.8696  0.4466
15780TIP3   OH268830   1.401   3.791  12.502  0.1196  0.4026  0.2219
15780TIP3    H168831   1.457   3.790  12.424 -0.8754  0.4026 -0.4999
15780TIP3    H268832   1.329   3.732  12.481 -0.9771  1.5891  0.5285
15781TIP3   OH268833   0.070   5.815   0.980 -0.4559  0.8057 -0.0466
15781TIP3    H168834   0.010   5.874   0.933 -1.6282 -1.3728 -1.4549
15781TIP3    H268835   0.019   5.784   1.055 -0.9665 -0.5947 -0.9225
15782TIP3   OH268836   1.716   4.656  12.301 -0.5597 -0.4670  0.4820
15782TIP3    H168837   1.749   4.581  12.251 -1.6654 -0.9907  0.5231
15782TIP3    H268838   1.755   4.646  12.388 -0.1802 -0.6229  0.2960
15783TIP3   OH268839   0.265   3.627  14.973  0.1240 -0.0081 -0.4266
15783TIP3    H168840   0.356   3.632  14.944 -0.1564 -1.1049 -1.5578
15783TIP3    H268841   0.227   3.710  14.946  0.0787 -0.6773 -2.5957
15784TIP3   OH268842   4.905   2.815   2.135  0.0267  0.2265  0.6919
15784TIP3    H168843   4.984   2.788   2.183  0.1465 -0.6357  0.0356
15784TIP3    H268844   4.935   2.885   2.077  0.8292 -1.4549 -1.0583
15785TIP3   OH268845   5.188   1.892   4.280 -0.3484 -0.0228 -0.3712
15785TIP3    H168846   5.173   1.868   4.188  1.6247 -2.4177 -0.1566
15785TIP3    H268847   5.193   1.809   4.326  1.1791  1.0270  1.4838
15786TIP3   OH268848   6.010   5.091   2.488  0.5291 -0.1327 -0.4013
15786TIP3    H168849   6.017   5.092   2.584 -1.4179 -1.2887 -0.1976
15786TIP3    H268850   6.065   5.017   2.461  0.5819 -0.1974 -0.1274
15787TIP3   OH268851   2.759   3.974  13.830  0.8279 -0.1510 -0.0702
15787TIP3    H168852   2.669   3.988  13.861  0.5043 -0.0209 -1.0334
15787TIP3    H268853   2.782   4.055  13.783  3.3374  2.0470  4.3155
15788TIP3   OH268854   6.016   1.652   2.531 -0.1550  0.2386 -0.3760
15788TIP3    H168855   5.934   1.696   2.553 -0.8277  0.4671 -3.0405
15788TIP3    H268856   6.065   1.717   2.481  1.1833 -0.2878  0.2180
15789TIP3   OH268857   4.583   5.590   4.225  0.3958  0.3422  0.2520
15789TIP3    H168858   4.522   5.602   4.153 -0.4602 -0.9022  0.7286
15789TIP3    H268859   4.580   5.496   4.243  0.5510  0.6247  1.9241
15790TIP3   OH268860   3.847   2.670  11.305  0.0167 -0.0884 -0.5504
15790TIP3    H168861   3.769   2.680  11.360  1.3347  1.6745  1.1484
15790TIP3    H268862   3.897   2.750  11.320  1.7198 -0.7295 -2.3481
15791TIP3   OH268863   4.378   3.081  10.912  0.3432  0.0498 -0.8269
15791TIP3    H168864   4.422   3.149  10.963  0.4067 -0.2493 -0.4699
15791TIP3    H268865   4.297   3.122  10.882 -1.0435 -0.5236  1.7738
15792TIP3   OH268866   5.262   0.111   0.082 -0.8121  0.0566  0.1169
15792TIP3    H168867   5.293   0.198   0.058  2.2002 -1.4662 -2.1944
15792TIP3    H268868   5.202   0.086   0.011  0.2910 -0.6154 -0.6254
15793TIP3   OH268869   4.421   1.133  11.353  1.4959 -0.3754  0.8303
15793TIP3    H168870   4.431   1.056  11.296 -0.1370 -1.3262  1.7516
15793TIP3    H268871   4.417   1.207  11.292 -0.2710 -1.3755 -0.3467
15794TIP3   OH268872   4.905   4.950   4.103 -0.0738  0.1427  0.0980
15794TIP3    H168873   4.943   5.016   4.045 -0.1724  1.3131  1.3008
15794TIP3    H268874   4.811   4.968   4.100 -0.1741 -0.3978 -0.0831
15795TIP3   OH268875   4.511   1.532  15.718  0.1494 -0.4394 -0.4799
15795TIP3    H168876   4.466   1.601  15.669 -1.4974  0.4003  2.0191
15795TIP3    H268877   4.458   1.454  15.703 -0.5361 -0.1124  0.1690
15796TIP3   OH268878   2.914   5.160   1.331  0.1313  0.1203 -0.1525
15796TIP3    H168879   2.874   5.081   1.366  0.7455 -1.4062 -2.6107
15796TIP3    H268880   2.951   5.204   1.407  0.5461 -2.4135  1.2333
15797TIP3   OH268881   6.700   4.786   1.324 -0.1525  0.1575  0.6693
15797TIP3    H168882   6.671   4.860   1.378 -1.7997  0.5269 -0.6156
15797TIP3    H268883   6.704   4.822   1.236 -1.1270 -1.2889 -0.0111
15798TIP3   OH268884   0.898   0.708   5.012  0.1959  0.8493 -0.0040
15798TIP3    H168885   0.922   0.615   5.011 -0.8237  0.5583 -1.2683
15798TIP3    H268886   0.921   0.738   5.100  1.6601 -0.2844  0.0441
15799TIP3   OH268887   3.121   1.626   5.235  0.4706  0.0520  0.1769
15799TIP3    H168888   3.086   1.707   5.271 -1.9635 -0.3352 -1.1431
15799TIP3    H268889   3.104   1.631   5.141  1.8571 -1.2580 -0.2008
15800TIP3   OH268890   4.090   4.434   5.368  0.3779 -0.2816 -0.3152
15800TIP3    H168891   4.024   4.366   5.378 -1.1543  1.2477  0.5513
15800TIP3    H268892   4.165   4.404   5.420 -0.3799 -1.1711  0.2784
15801TIP3   OH268893   5.199   5.266  11.446 -0.1440 -0.0537 -0.1939
15801TIP3    H168894   5.260   5.335  11.475  0.7072  0.2424 -2.4836
15801TIP3    H268895   5.256   5.193  11.421 -0.8956 -0.6383 -0.2356
15802TIP3   OH268896   3.049   2.207  17.055 -0.3587 -0.3325 -0.0766
15802TIP3    H168897   3.025   2.144  16.988  0.5756  0.4726 -1.2043
15802TIP3    H268898   3.143   2.217  17.047 -0.5592  1.7469 -0.4721
15803TIP3   OH268899   6.127   5.673  16.816 -0.1841 -0.3718  0.1425
15803TIP3    H168900   6.067   5.701  16.885 -1.2548 -1.8136 -0.1571
15803TIP3    H268901   6.130   5.578  16.823  1.4701 -0.3941 -0.3716
15804TIP3   OH268902   5.700   1.388  12.737  0.1761  0.6872  0.2508
15804TIP3    H168903   5.736   1.309  12.696 -1.4681  0.1250 -0.2134
15804TIP3    H268904   5.752   1.400  12.816  1.1570 -0.2395 -0.2173
15805TIP3   OH268905   2.535   0.926  15.086 -0.0434 -0.2008  0.7778
15805TIP3    H168906   2.615   0.954  15.131  1.2110  0.1652 -1.4968
15805TIP3    H268907   2.557   0.932  14.993 -1.0425 -4.8115 -0.0145
15806TIP3   OH268908   4.740   3.479  15.206 -0.6498  0.2479  0.1666
15806TIP3    H168909   4.786   3.422  15.145  0.6925  1.5615 -0.1069
15806TIP3    H268910   4.657   3.499  15.163 -0.4974 -0.3039 -0.3922
15807TIP3   OH268911   6.009   6.670  11.977  0.1729 -0.1473  0.4904
15807TIP3    H168912   6.089   6.656  11.927 -0.2621 -1.2916  0.0761
15807TIP3    H268913   5.950   6.713  11.915  0.0023 -0.5720  0.3545
15808TIP3   OH268914   5.773   3.225   5.899 -0.7108 -0.1902 -0.0598
15808TIP3    H168915   5.860   3.206   5.934 -0.5965 -0.2940 -0.3941
15808TIP3    H268916   5.750   3.146   5.850 -1.1491 -0.3082  0.3320
15809TIP3   OH268917   5.459   2.797  13.897 -0.1017  0.0491 -0.3155
15809TIP3    H168918   5.512   2.866  13.936 -0.2181 -0.1876  0.2760
15809TIP3    H268919   5.387   2.784  13.959 -0.1261 -0.5407 -0.4603
15810TIP3   OH268920   1.711   3.831  16.398  0.3514 -0.0568 -0.2312
15810TIP3    H168921   1.746   3.797  16.316  1.8176 -0.8900  0.6727
15810TIP3    H268922   1.667   3.912  16.375  0.5312 -0.3967 -1.8603
15811TIP3   OH268923   4.806   1.507  15.418  0.5534 -0.0918 -0.5097
15811TIP3    H168924   4.808   1.511  15.514 -0.6642 -0.7891 -0.4282
15811TIP3    H268925   4.764   1.423  15.399 -0.9073  0.8400 -1.6191
15812TIP3   OH268926   3.198   3.211  12.176 -0.3101 -0.3630  0.2337
15812TIP3    H168927   3.139   3.136  12.180 -0.7904  0.0415  0.8066
15812TIP3    H268928   3.274   3.185  12.229 -0.0460 -0.8043 -0.3453
15813TIP3   OH268929   6.553   0.993   1.797 -0.2291  0.1827 -1.1719
15813TIP3    H168930   6.541   0.963   1.887 -1.6836  0.9226 -1.0980
15813TIP3    H268931   6.604   0.924   1.755 -1.1238 -1.0528 -0.2714
15814TIP3   OH268932   1.928   4.646   1.270 -0.4991  0.2171 -0.1173
15814TIP3    H168933   1.949   4.738   1.253  1.8254 -0.5758 -2.0361
15814TIP3    H268934   1.980   4.624   1.348 -0.9488  0.4649  0.2600
15815TIP3   OH268935   1.247   3.855   2.433 -0.7578 -0.1142  0.1029
15815TIP3    H168936   1.192   3.792   2.387 -1.8064  0.7610  0.1095
15815TIP3    H268937   1.252   3.822   2.522 -2.7311  0.6567  0.5484
15816TIP3   OH268938   6.632   3.561   5.005 -0.0613  0.1336 -0.5326
15816TIP3    H168939   6.687   3.519   4.939 -0.3957  1.9684 -2.0746
15816TIP3    H268940   6.693   3.606   5.062  0.1688 -0.3647 -0.3794
15817TIP3   OH268941   0.884   1.684  12.405  0.0873  0.3212 -0.0126
15817TIP3    H168942   0.962   1.632  12.423 -0.6968 -0.2482  1.9997
15817TIP3    H268943   0.916   1.760  12.357  1.8954  0.1508  0.8561
15818TIP3   OH268944   2.824   5.386   0.491 -0.3605 -0.2938 -0.1169
15818TIP3    H168945   2.871   5.305   0.472  0.9283  0.2874  0.4935
15818TIP3    H268946   2.776   5.367   0.572  0.3935 -0.2655  0.3405
15819TIP3   OH268947   3.468   3.650  14.898 -0.0667  0.4056 -0.1133
15819TIP3    H168948   3.465   3.705  14.820  2.0131  1.1089  0.2142
15819TIP3    H268949   3.487   3.563  14.865 -1.2612  0.2889 -0.5112
15820TIP3   OH268950   6.308   5.128   2.375  0.0165  0.6171 -0.1080
15820TIP3    H168951   6.262   5.046   2.353  1.2419 -0.1868  0.1979
15820TIP3    H268952   6.289   5.141   2.468  1.4574 -0.4835  0.3952
15821TIP3   OH268953   4.730   3.445   5.505  0.0854  0.6113 -0.5127
15821TIP3    H168954   4.661   3.391   5.466  0.5912 -0.9813  0.7261
15821TIP3    H268955   4.812   3.405   5.476  0.5058  1.4980 -0.6091
15822TIP3   OH268956   1.821   5.163   5.640 -0.2812 -0.0503  0.3223
15822TIP3    H168957   1.852   5.145   5.551 -0.5617 -0.4934  0.3141
15822TIP3    H268958   1.727   5.144   5.637 -0.2934 -0.0532  0.7125
15823TIP3   OH268959   4.452   3.607   4.565 -0.1609 -0.1174 -0.0595
15823TIP3    H168960   4.507   3.642   4.634  1.0140 -1.9604  0.0132
15823TIP3    H268961   4.375   3.573   4.610  0.3929 -0.9037  0.3223
15824TIP3   OH268962   5.923   6.708   2.816  0.4815 -0.4145 -0.2746
15824TIP3    H168963   5.948   6.784   2.764  1.1842 -1.2244 -1.1423
15824TIP3    H268964   5.968   6.635   2.775 -2.4361 -1.7946 -1.2771
15825TIP3   OH268965   4.884   3.355   5.838 -0.5733  0.4945  0.0995
15825TIP3    H168966   4.825   3.407   5.894  0.9488  1.6097  0.7406
15825TIP3    H268967   4.930   3.297   5.900 -1.0064 -0.3985 -0.3986
15826TIP3   OH268968   4.013   6.591  13.915  0.0938  0.0272 -0.5203
15826TIP3    H168969   3.972   6.640  13.844 -0.3803  0.2849 -0.0772
15826TIP3    H268970   4.062   6.521  13.872 -1.0060 -0.4307 -1.0512
15827TIP3   OH268971   1.782   5.537   5.847  0.7999 -0.2621 -0.9292
15827TIP3    H168972   1.830   5.456   5.863  0.9107 -0.0714 -0.2721
15827TIP3    H268973   1.769   5.575   5.934 -2.5321 -1.3969 -0.7809
15828TIP3   OH268974   4.463   1.015  14.736 -0.5119  0.0765 -0.4025
15828TIP3    H168975   4.469   1.026  14.641 -0.2109  2.4777 -0.1672
15828TIP3    H268976   4.486   1.101  14.771 -3.8077  0.2134  1.7742
15829TIP3   OH268977   6.073   2.988   4.724 -0.0817 -0.6050 -0.0041
15829TIP3    H168978   6.000   2.984   4.662 -2.0066 -1.3682  2.1585
15829TIP3    H268979   6.110   3.076   4.712 -1.0368 -0.3734 -1.4796
15830TIP3   OH268980   3.876   5.276  16.304 -0.0975  0.6936  0.0270
15830TIP3    H168981   3.879   5.361  16.348  0.1901  1.2630 -1.0595
15830TIP3    H268982   3.821   5.222  16.360 -1.4701  2.0305  0.0236
15831TIP3   OH268983   1.626   5.652  11.656 -0.1524  0.0889  0.2865
15831TIP3    H168984   1.677   5.728  11.628  2.2853 -0.6432  2.4548
15831TIP3    H268985   1.640   5.587  11.587  0.1610  0.5938 -0.1294
15832TIP3   OH268986   6.696   4.401  14.776  0.2417  0.3078  0.2720
15832TIP3    H168987   6.758   4.327  14.773 -0.6955 -0.4756 -0.3681
15832TIP3    H268988   6.734   4.466  14.717  0.4817 -0.1495 -0.0847
15833TIP3   OH268989   4.659   1.930   2.770 -0.0081 -0.0956 -0.4612
15833TIP3    H168990   4.663   2.015   2.725  1.3110  0.1928  0.1664
15833TIP3    H268991   4.702   1.869   2.709 -3.5315 -1.0330 -2.2933
15834TIP3   OH268992   6.769   3.763   1.468  0.1374 -0.3064 -0.1862
15834TIP3    H168993   6.707   3.753   1.396 -0.0080 -0.5212 -0.0331
15834TIP3    H268994   6.726   3.721   1.542 -0.1682  0.8093  0.2994
15835TIP3   OH268995   5.516   4.716   6.570  0.4324 -0.4829  0.0263
15835TIP3    H168996   5.565   4.798   6.564 -0.1147 -0.0279  1.2228
15835TIP3    H268997   5.464   4.726   6.650 -2.5231 -0.4170 -1.7481
15836TIP3   OH268998   2.664   2.647  13.753  0.0162  0.7083  0.1682
15836TIP3    H168999   2.614   2.695  13.686 -1.4265  0.5528  1.0946
15836TIP3    H269000   2.752   2.686  13.749 -0.9583  3.1701  0.5665
15837TIP3   OH269001   3.284   0.055  15.464  0.5443  0.0617 -0.0568
15837TIP3    H169002   3.227   0.105  15.523 -1.0576 -1.4953 -0.1952
15837TIP3    H269003   3.238   0.056  15.380  1.8309  0.5948 -0.7900
15838TIP3   OH269004   4.176   2.370  16.143 -0.6826  0.0135  0.4055
15838TIP3    H169005   4.233   2.435  16.100 -0.5305 -0.9490 -0.8928
15838TIP3    H269006   4.234   2.327  16.206 -0.5698  0.5727  0.6947
15839TIP3   OH269007   4.869   1.703   2.858 -0.2015  0.0614 -0.5221
15839TIP3    H169008   4.822   1.739   2.933 -0.8804 -0.0847 -0.8656
15839TIP3    H269009   4.947   1.759   2.848 -0.0678  0.0298  0.3300
15840TIP3   OH269010   4.753   5.797   3.822 -0.2999  0.4310  0.4735
15840TIP3    H169011   4.740   5.883   3.782  0.0738  0.1738 -0.2286
15840TIP3    H269012   4.676   5.747   3.795 -0.2676  0.3916  0.4550
15841TIP3   OH269013   3.616   5.216   0.426 -0.0862  0.0069 -0.0605
15841TIP3    H169014   3.649   5.183   0.509 -1.4081 -1.1439  0.0387
15841TIP3    H269015   3.575   5.300   0.447  0.3372  0.1305  0.2810
15842TIP3   OH269016   2.823   5.682  10.343  0.6729 -0.0636  0.3227
15842TIP3    H169017   2.884   5.749  10.374  0.7694 -0.7928  1.8107
15842TIP3    H269018   2.755   5.731  10.296  1.4348  0.9325  0.2189
15843TIP3   OH269019   2.030   1.665  11.297  0.3008  0.1701  0.0783
15843TIP3    H169020   1.941   1.654  11.330  0.3055 -0.1753 -0.0190
15843TIP3    H269021   2.019   1.715  11.216 -0.1039 -2.2281 -1.4568
15844TIP3   OH269022   3.941   4.676   4.406  0.4284 -0.0826  0.3968
15844TIP3    H169023   3.882   4.603   4.388 -1.0000  1.4406 -1.5578
15844TIP3    H269024   4.001   4.676   4.332  0.1697  0.9260  0.1747
15845TIP3   OH269025   3.793   5.033  13.791 -0.0535 -0.3772 -0.1245
15845TIP3    H169026   3.857   4.966  13.771  1.7147  1.2992 -0.3629
15845TIP3    H269027   3.833   5.085  13.861 -0.4839  1.5492 -1.2268
15846TIP3   OH269028   5.623   2.502  12.894  0.5887  0.4560 -0.1147
15846TIP3    H169029   5.673   2.470  12.819  0.7231 -2.6735  1.1511
15846TIP3    H269030   5.680   2.486  12.969  0.5980  3.8350  0.7156
15847TIP3   OH269031   5.332   1.055  11.147  0.1161 -0.7615  0.8015
15847TIP3    H169032   5.297   1.137  11.111  0.3687 -0.5428  1.0521
15847TIP3    H269033   5.306   1.057  11.239 -0.6249 -1.3723  0.6182
15848TIP3   OH269034   5.231   4.751  16.339  0.4046  0.7647  0.0176
15848TIP3    H169035   5.231   4.689  16.266 -1.0770  0.7837 -0.0292
15848TIP3    H269036   5.213   4.697  16.416 -1.5483  1.1677 -0.1039
15849TIP3   OH269037   5.576   5.747   2.602 -0.0583  0.5281  0.3541
15849TIP3    H169038   5.599   5.696   2.525 -0.3627  0.1958  0.4765
15849TIP3    H269039   5.591   5.687   2.676  1.3944  1.2348  0.6589
15850TIP3   OH269040   2.122   2.680  15.086 -0.0419 -0.4909  0.5730
15850TIP3    H169041   2.154   2.615  15.024 -1.1725 -0.6632  0.1490
15850TIP3    H269042   2.178   2.756  15.071 -1.5414  0.2308 -2.1761
15851TIP3   OH269043   0.022   1.284  13.546 -0.3907  0.3106 -0.0691
15851TIP3    H169044   0.024   1.345  13.472  0.8974  0.0756 -0.2559
15851TIP3    H269045   0.038   1.199  13.506  3.5352  0.4918  0.6955
15852TIP3   OH269046   4.067   0.701   3.545 -0.5511  0.4555  0.4096
15852TIP3    H169047   4.001   0.755   3.503  2.2447  3.6741 -0.3016
15852TIP3    H269048   4.106   0.758   3.612  1.7979 -1.0904  0.4905
15853TIP3   OH269049   6.718   4.977  16.317  0.1551 -0.1093 -0.0507
15853TIP3    H169050   6.736   4.967  16.223 -1.6612 -0.8519 -0.3667
15853TIP3    H269051   6.762   4.902  16.358 -0.0783 -0.4895 -0.4788
15854TIP3   OH269052   4.123   5.150  12.317  0.1674 -0.2146  0.2695
15854TIP3    H169053   4.148   5.214  12.251 -2.8573 -0.3189 -1.1225
15854TIP3    H269054   4.152   5.066  12.281  1.8068  0.0304  0.8969
15855TIP3   OH269055   1.612   6.475   1.169  0.0063 -0.2786 -0.5428
15855TIP3    H169056   1.605   6.399   1.111 -0.5991  0.0319 -0.8815
15855TIP3    H269057   1.572   6.446   1.251 -1.1742 -0.0041 -1.0017
15856TIP3   OH269058   1.769   0.879  15.499 -0.0133 -0.2292 -0.1564
15856TIP3    H169059   1.757   0.914  15.411  0.6919 -2.0474 -1.0451
15856TIP3    H269060   1.725   0.794  15.496  0.7448 -0.6809  0.9782
15857TIP3   OH269061   4.090   1.201   1.994  0.2922  0.1725  0.3590
15857TIP3    H169062   4.021   1.136   1.981  1.4420 -1.2322  1.0098
15857TIP3    H269063   4.172   1.152   1.980  1.2005  2.2458 -2.5797
15858TIP3   OH269064   6.027   6.138  15.912 -0.1092  0.3117  0.0738
15858TIP3    H169065   6.042   6.201  15.841  0.8275  0.6280  0.5368
15858TIP3    H269066   6.048   6.053  15.873 -1.6046  0.2198 -0.6246
15859TIP3   OH269067   2.512   4.010  13.594 -0.1408 -0.7609 -0.1764
15859TIP3    H169068   2.535   4.031  13.503 -0.6339 -0.4628 -0.2378
15859TIP3    H269069   2.418   4.024  13.598  0.0610  0.5064  0.7179
15860TIP3   OH269070   4.299   4.531  12.162 -0.0112  0.0969 -0.5169
15860TIP3    H169071   4.290   4.571  12.075 -0.7876  0.7645 -0.1451
15860TIP3    H269072   4.230   4.572  12.214  0.7573  0.0603  0.5535
15861TIP3   OH269073   4.535   3.754  16.476 -0.0352 -0.2841 -0.3719
15861TIP3    H169074   4.548   3.844  16.507  0.8061 -0.6079  0.2574
15861TIP3    H269075   4.613   3.707  16.507 -0.7705 -1.3773 -0.1285
15862TIP3   OH269076   5.856   2.800  14.842 -0.0755  0.2057 -0.3097
15862TIP3    H169077   5.831   2.742  14.914  0.7570 -0.8681 -0.8543
15862TIP3    H269078   5.952   2.797  14.841 -0.0645  0.4814 -1.2341
15863TIP3   OH269079   4.889   1.936  11.583  0.1812 -0.2126  0.5154
15863TIP3    H169080   4.952   1.996  11.624  1.2414 -2.0227  1.6892
15863TIP3    H269081   4.941   1.859  11.562 -1.0698 -0.6117 -1.2979
15864TIP3   OH269082   5.682   6.030  13.415  0.4471  0.2293  0.5607
15864TIP3    H169083   5.630   6.084  13.474 -0.1721 -0.3735  0.5876
15864TIP3    H269084   5.761   6.081  13.398 -0.0167  1.0314  0.7670
15865TIP3   OH269085   4.999   2.077   6.083  0.5049  0.2619  0.2678
15865TIP3    H169086   4.971   2.167   6.101 -0.7205  0.0275 -0.3418
15865TIP3    H269087   5.092   2.084   6.064  0.1255  1.6627 -1.3611
15866TIP3   OH269088   1.615   2.280  14.662 -0.0121  0.6586 -0.3602
15866TIP3    H169089   1.522   2.293  14.644 -0.2202  0.0560  0.2676
15866TIP3    H269090   1.617   2.217  14.734  0.9317 -2.5243 -2.9531
15867TIP3   OH269091   4.513   0.238  16.716  0.5056  0.1295  0.3024
15867TIP3    H169092   4.516   0.249  16.811  0.5766 -1.2804  0.4865
15867TIP3    H269093   4.426   0.202  16.699  0.1266  1.2908 -0.2914
15868TIP3   OH269094   0.428   2.589  11.674 -0.2397 -0.5610  0.5625
15868TIP3    H169095   0.413   2.625  11.762  1.3755  0.4876  0.4408
15868TIP3    H269096   0.384   2.651  11.615  1.2580  0.4480  0.4572
15869TIP3   OH269097   3.065   1.119  14.591  0.5379 -0.0829 -0.0398
15869TIP3    H169098   2.974   1.147  14.599  0.8199  0.9443 -0.2901
15869TIP3    H269099   3.094   1.107  14.681 -0.2182 -1.7209  0.0179
15870TIP3   OH269100   2.929   3.715  13.198  0.1362 -0.8874 -0.1064
15870TIP3    H169101   3.018   3.689  13.176  0.1580  1.0805 -2.8407
15870TIP3    H269102   2.911   3.672  13.281  3.2370 -2.1872  0.0093
15871TIP3   OH269103   5.987   2.413   0.853 -0.0339 -0.2976  0.0433
15871TIP3    H169104   5.996   2.450   0.941  0.1735  0.6378 -0.3580
15871TIP3    H269105   6.027   2.479   0.796  0.0466 -1.0047 -0.7269
15872TIP3   OH269106   6.060   6.584  14.663 -0.0846  0.7098 -0.6966
15872TIP3    H169107   6.151   6.586  14.693 -0.3189  0.8206  0.0246
15872TIP3    H269108   6.060   6.523  14.590  0.5092  0.4570 -0.4911
15873TIP3   OH269109   4.449   0.159   2.121  0.2354  0.5778  0.2814
15873TIP3    H169110   4.458   0.102   2.045  0.4518  1.7655 -0.5996
15873TIP3    H269111   4.365   0.134   2.160  0.9079 -1.2196  0.6801
15874TIP3   OH269112   0.949   0.258   2.046 -0.4452 -0.1508  0.0800
15874TIP3    H169113   0.896   0.261   2.126 -0.3724 -0.2333  0.1311
15874TIP3    H269114   1.010   0.186   2.061 -0.5744 -0.3046 -0.1412
15875TIP3   OH269115   2.350   2.353  12.484 -0.0274  0.0297  0.6074
15875TIP3    H169116   2.367   2.445  12.506 -0.0368 -0.1441  1.3675
15875TIP3    H269117   2.429   2.326  12.436  0.2561  0.2606  0.9326
15876TIP3   OH269118   2.987   0.614   4.260  0.0843  0.6027  0.2879
15876TIP3    H169119   3.075   0.632   4.225 -0.2630  1.3502 -0.2365
15876TIP3    H269120   2.997   0.623   4.355  0.9907 -1.2485  0.4115
15877TIP3   OH269121   2.745   3.994  12.136  0.2917 -0.4068  0.0470
15877TIP3    H169122   2.800   4.042  12.074  0.8701 -2.1088 -0.8052
15877TIP3    H269123   2.792   4.000  12.220  0.9751 -0.5061 -0.3215
15878TIP3   OH269124   4.258   1.444   3.968 -0.5485  0.3816 -0.0684
15878TIP3    H169125   4.340   1.396   3.966 -1.0039 -0.4044 -0.7337
15878TIP3    H269126   4.259   1.496   3.887 -0.8082  0.1792 -0.2035
15879TIP3   OH269127   5.111   5.586   5.253  0.1706  0.1841 -0.3101
15879TIP3    H169128   5.185   5.576   5.193 -0.7957  0.8521 -1.6567
15879TIP3    H269129   5.035   5.554   5.203 -0.4407 -0.7197  1.1204
15880TIP3   OH269130   0.059   6.344  16.414 -0.2694  0.0917 -0.5801
15880TIP3    H169131  -0.008   6.350  16.482  1.0034 -0.9925  0.8359
15880TIP3    H269132   0.037   6.264  16.366  0.4752 -0.7586  0.4538
15881TIP3   OH269133   2.221   6.411  11.212  0.2807 -0.2472 -0.3228
15881TIP3    H169134   2.302   6.455  11.183  0.7912 -2.1915 -2.0952
15881TIP3    H269135   2.156   6.436  11.147 -0.2681  0.3611  0.4415
15882TIP3   OH269136   6.729   3.562   5.850 -0.3504  0.0029  0.0107
15882TIP3    H169137   6.800   3.561   5.913  0.9942 -0.8969 -1.4593
15882TIP3    H269138   6.651   3.581   5.902  0.5913 -1.3986  2.0379
15883TIP3   OH269139   5.750   6.627   3.617 -0.4500 -0.5998  0.6043
15883TIP3    H169140   5.677   6.660   3.564  2.6881  0.2780 -3.7455
15883TIP3    H269141   5.774   6.544   3.575  2.5200  0.3633  0.1936
15884TIP3   OH269142   1.255   6.362  13.352 -0.4112 -0.5943 -1.1298
15884TIP3    H169143   1.277   6.301  13.282 -2.0223 -1.5935 -0.8160
15884TIP3    H269144   1.337   6.408  13.370  0.1937 -0.7212 -3.2421
15885TIP3   OH269145   5.938   0.591  15.869 -0.1325  1.2067  0.4256
15885TIP3    H169146   5.863   0.635  15.909 -0.2017  1.7797 -0.3097
15885TIP3    H269147   5.995   0.568  15.942 -0.9742  0.8533  0.9808
15886TIP3   OH269148   4.714   5.167  16.420 -0.1201 -0.1043 -0.8554
15886TIP3    H169149   4.775   5.237  16.439  0.1470 -0.1486 -1.5332
15886TIP3    H269150   4.641   5.182  16.481  0.6705 -0.2143  0.1518
15887TIP3   OH269151   3.851   1.267  15.886  0.5004  0.1415  0.5246
15887TIP3    H169152   3.909   1.292  15.958  1.0616  2.2017 -0.5582
15887TIP3    H269153   3.901   1.286  15.807 -0.9615  0.2168 -0.4308
15888TIP3   OH269154   0.176   3.055  15.594 -0.6401 -0.1175  0.2567
15888TIP3    H169155   0.185   2.994  15.520  0.9415  1.0424 -0.5636
15888TIP3    H269156   0.213   3.137  15.562 -1.2628  0.8354  1.8789
15889TIP3   OH269157   2.209   3.634  13.202  0.1790 -0.0184 -0.1266
15889TIP3    H169158   2.133   3.600  13.155  0.0698 -2.0113  1.3519
15889TIP3    H269159   2.173   3.676  13.280  0.5846 -1.9153  1.1327
15890TIP3   OH269160   6.259   3.750  15.006  0.6006  0.2739  0.3899
15890TIP3    H169161   6.288   3.812  15.073 -0.1395  1.2054 -0.1351
15890TIP3    H269162   6.221   3.678  15.056 -1.7633  1.8443  1.0212
15891TIP3   OH269163   4.411   0.238   0.090 -0.3642 -0.4376  0.2288
15891TIP3    H169164   4.327   0.272   0.060 -0.5767 -1.7619 -0.7706
15891TIP3    H269165   4.474   0.308   0.069 -1.0732  0.1908  0.1508
15892TIP3   OH269166   0.041   5.425  14.631  0.3913 -0.3516  0.1138
15892TIP3    H169167   0.015   5.465  14.714  3.0879 -0.2366  0.9928
15892TIP3    H269168   0.134   5.445  14.623  0.3040 -0.6755 -2.7928
15893TIP3   OH269169   1.356   0.424  11.815 -0.3369 -0.0785  0.0315
15893TIP3    H169170   1.382   0.373  11.738  1.1841 -0.0114  0.4654
15893TIP3    H269171   1.330   0.509  11.779 -1.5973 -0.6960 -0.5683
15894TIP3   OH269172   3.787   1.735  14.597  0.0508  0.3928  0.2705
15894TIP3    H169173   3.758   1.650  14.629  0.7370  0.1910  0.3644
15894TIP3    H269174   3.761   1.736  14.505 -0.3476  0.2615  0.3780
15895TIP3   OH269175   1.157   6.101  14.251 -0.0719  0.1463 -0.1278
15895TIP3    H169176   1.083   6.064  14.203 -0.0654  0.4796 -0.4012
15895TIP3    H269177   1.126   6.108  14.341 -0.9272  1.6905 -0.4981
15896TIP3   OH269178   4.727   6.436   1.875  0.1603 -0.0904  0.1031
15896TIP3    H169179   4.644   6.393   1.858  1.1401 -2.4105  0.7894
15896TIP3    H269180   4.731   6.508   1.812 -0.0218 -3.1603 -3.7590
15897TIP3   OH269181   3.639   0.480  12.525 -0.3572  0.1973  0.1003
15897TIP3    H169182   3.673   0.405  12.476 -0.2122  0.8437 -0.8206
15897TIP3    H269183   3.692   0.482  12.605  0.2628 -0.1367 -0.2927
15898TIP3   OH269184   1.405   3.576   1.766 -0.3077 -0.3365  0.1469
15898TIP3    H169185   1.328   3.578   1.710  1.2695  3.5510 -2.3323
15898TIP3    H269186   1.467   3.520   1.720 -0.5359 -0.8359  0.4406
15899TIP3   OH269187   4.654   3.857  15.187  0.1741  0.5692  0.5436
15899TIP3    H169188   4.581   3.797  15.175  0.7822 -0.6053  2.2939
15899TIP3    H269189   4.726   3.818  15.137 -0.2479  1.4865 -0.8104
15900TIP3   OH269190   6.365   6.295  15.614 -0.1150  0.3131 -0.0792
15900TIP3    H169191   6.385   6.387  15.594 -1.2956  0.9184  1.3190
15900TIP3    H269192   6.441   6.264  15.662 -0.0846  0.8639  0.2465
15901TIP3   OH269193   3.267   0.424   4.636 -0.3653  0.4296  0.0254
15901TIP3    H169194   3.334   0.429   4.704  0.0655  1.4644 -0.4431
15901TIP3    H269195   3.187   0.401   4.683  0.3090 -0.8433  0.5908
15902TIP3   OH269196   1.562   5.956  15.890  0.5356 -0.1248 -0.9689
15902TIP3    H169197   1.506   5.899  15.836  0.8217 -0.2747 -1.1120
15902TIP3    H269198   1.650   5.924  15.874  0.5135 -1.2246  0.8255
15903TIP3   OH269199   0.679   3.131  16.695  0.3840 -0.5099 -0.0542
15903TIP3    H169200   0.606   3.093  16.646 -0.2511 -0.1697  0.6161
15903TIP3    H269201   0.674   3.225  16.677 -0.1190 -0.3266  1.0038
15904TIP3   OH269202   0.211   2.252  16.637 -0.0974  0.1502 -0.4008
15904TIP3    H169203   0.183   2.343  16.630  0.3187  0.1885 -1.8574
15904TIP3    H269204   0.162   2.206  16.569 -0.3447 -0.7316  0.3626
15905TIP3   OH269205   6.525   6.371   4.421  0.2606  0.1306  0.0391
15905TIP3    H169206   6.498   6.419   4.343 -0.4326 -0.2096  0.0573
15905TIP3    H269207   6.559   6.438   4.481  0.5456  0.4244 -0.4434
15906TIP3   OH269208   0.744   6.435  12.024 -0.0139 -0.3438 -0.9437
15906TIP3    H169209   0.681   6.423  12.095  1.2600 -1.0899  0.0975
15906TIP3    H269210   0.695   6.482  11.956 -1.5984 -0.6576 -0.0643
15907TIP3   OH269211   4.659   2.374  11.129  0.1721  0.7935 -0.1672
15907TIP3    H169212   4.583   2.336  11.084  0.9099  1.1861 -1.8132
15907TIP3    H269213   4.627   2.394  11.217 -1.2166 -0.3768 -0.3665
15908TIP3   OH269214   0.221   1.150   4.426 -0.1013  0.2396  0.2274
15908TIP3    H169215   0.243   1.146   4.332 -0.4012  0.6822  0.1395
15908TIP3    H269216   0.145   1.092   4.435  1.2017 -1.4974  0.5762
15909TIP3   OH269217   2.751   1.974   4.305  0.3193  0.3936  0.7214
15909TIP3    H169218   2.760   1.889   4.263  1.4310  0.0864  1.5388
15909TIP3    H269219   2.776   2.037   4.237 -0.8638  0.1199 -0.0025
15910TIP3   OH269220   2.195   5.885   2.607  0.3020  0.0560 -0.8721
15910TIP3    H169221   2.174   5.973   2.636  1.1847  0.3297 -1.0177
15910TIP3    H269222   2.145   5.827   2.665 -0.3414  0.6509 -0.8303
15911TIP3   OH269223   2.110   4.367   5.635  0.9016 -0.4665 -0.2349
15911TIP3    H169224   2.153   4.287   5.605 -1.7148 -2.2010  0.2835
15911TIP3    H269225   2.050   4.390   5.565 -0.7809 -0.9692  0.9679
15912TIP3   OH269226   2.099   3.216  11.283  0.3349 -0.9043  0.8363
15912TIP3    H169227   2.080   3.127  11.312 -2.2882 -0.2408  1.4533
15912TIP3    H269228   2.017   3.247  11.244  1.4699  0.9167 -0.2691
15913TIP3   OH269229   5.223   1.163  16.981 -0.1015 -0.3933  0.0591
15913TIP3    H169230   5.144   1.216  16.994  0.0390 -0.6064  1.9505
15913TIP3    H269231   5.251   1.184  16.892 -0.5925  1.9784  0.4007
15914TIP3   OH269232   4.990   3.522   2.008  0.6028 -0.3038  0.0398
15914TIP3    H169233   4.963   3.431   2.003  0.7596 -0.2941 -3.0143
15914TIP3    H269234   5.079   3.522   1.972  1.3099  0.8267  1.7034
15915TIP3   OH269235   5.333   2.094  13.501 -0.1590 -0.3350  0.0304
15915TIP3    H169236   5.325   2.178  13.454 -4.3159 -0.4328  0.2087
15915TIP3    H269237   5.288   2.109  13.584  0.4400 -2.3449  0.7653
15916TIP3   OH269238   2.158   1.259   4.460  0.4339 -0.4646  0.2178
15916TIP3    H169239   2.091   1.277   4.393  0.8127 -0.6200 -0.2126
15916TIP3    H269240   2.204   1.343   4.469  0.7228 -0.5825 -0.1110
15917TIP3   OH269241   4.648   1.989   0.350  0.0556 -0.5800  0.2762
15917TIP3    H169242   4.675   1.897   0.353  2.5068  0.0669  0.3935
15917TIP3    H269243   4.661   2.020   0.440 -0.8221 -0.1231  0.2512
15918TIP3   OH269244   0.435   5.334   4.064 -0.2571 -0.0058  0.2006
15918TIP3    H169245   0.480   5.276   4.002 -0.3599  0.8556 -0.7119
15918TIP3    H269246   0.401   5.405   4.010 -2.2011 -0.3025  0.9632
15919TIP3   OH269247   3.337   0.592  16.417 -0.4402 -0.1091 -0.0134
15919TIP3    H169248   3.386   0.521  16.457  1.1594  0.4459 -0.9045
15919TIP3    H269249   3.250   0.587  16.458  0.3726 -1.0296  1.7060
15920TIP3   OH269250   3.625   2.364  11.355  0.4255 -0.3331 -0.1911
15920TIP3    H169251   3.557   2.305  11.324  1.4428 -1.2772 -0.7254
15920TIP3    H269252   3.704   2.335  11.309  1.4870 -0.2012  1.4792
15921TIP3   OH269253   2.988   4.099  16.525  0.1737  0.8178 -0.1616
15921TIP3    H169254   3.011   4.161  16.456  0.6740  1.7350  0.7847
15921TIP3    H269255   3.051   4.028  16.515 -0.0879  0.6936 -0.9574
15922TIP3   OH269256   0.476   6.545  10.803 -0.4758 -0.2134  0.0455
15922TIP3    H169257   0.480   6.641  10.811 -1.9155 -0.1791  0.7022
15922TIP3    H269258   0.512   6.527  10.716  1.4602  0.7475  0.5765
15923TIP3   OH269259   1.496   4.315  16.243 -0.8459 -0.4508 -0.0905
15923TIP3    H169260   1.420   4.340  16.191  0.7295  2.5201 -1.2651
15923TIP3    H269261   1.562   4.289  16.179 -0.6151 -2.3537  0.8535
15924TIP3   OH269262   5.428   2.914  16.922 -0.3614  0.0582  0.1631
15924TIP3    H169263   5.413   2.983  16.858 -1.3999  0.6547  1.0140
15924TIP3    H269264   5.378   2.839  16.889  0.7209 -0.3128 -0.7294
15925TIP3   OH269265   4.801   4.779   2.700  0.3460 -0.2071  0.1772
15925TIP3    H169266   4.742   4.843   2.739  1.4755  0.7456  0.3935
15925TIP3    H269267   4.824   4.721   2.773  0.6149  0.1516  0.3806
15926TIP3   OH269268   6.565   0.066   5.454 -0.0441 -0.4858  0.1627
15926TIP3    H169269   6.574  -0.023   5.420 -0.7386 -0.6915  0.4887
15926TIP3    H269270   6.654   0.093   5.474  0.2549 -0.8043 -0.6949
15927TIP3   OH269271   6.467   3.331  11.005  0.0203 -0.4809 -0.0487
15927TIP3    H169272   6.540   3.343  10.945  0.3816  0.9832  0.6568
15927TIP3    H269273   6.389   3.340  10.950  0.3541  0.4947 -0.3779
15928TIP3   OH269274   3.173   4.218  11.124  0.3543 -0.3001  0.6857
15928TIP3    H169275   3.131   4.217  11.037  1.2581 -2.4742  0.2013
15928TIP3    H269276   3.220   4.301  11.127 -0.1817  0.0826 -0.6759
15929TIP3   OH269277   1.224   4.813   4.507 -0.2813 -0.1135 -0.5947
15929TIP3    H169278   1.184   4.890   4.547 -1.8353 -0.3770 -1.5484
15929TIP3    H269279   1.279   4.849   4.436 -0.9693  0.1374 -1.0126
15930TIP3   OH269280   1.686   5.443   1.682  0.4633 -0.7343  0.2015
15930TIP3    H169281   1.647   5.422   1.598 -0.3478 -1.3361  0.7085
15930TIP3    H269282   1.772   5.480   1.661 -0.3582  0.5786 -0.9325
15931TIP3   OH269283   4.787   2.577  10.381 -0.3824  0.4580 -0.4561
15931TIP3    H169284   4.866   2.609  10.425 -0.3163  1.0400 -0.9757
15931TIP3    H269285   4.716   2.632  10.414 -0.3781  0.7040 -0.8408
15932TIP3   OH269286   5.212   0.066  12.066  0.1355 -0.2437 -0.6348
15932TIP3    H169287   5.254  -0.017  12.088  1.1767  0.8995  2.3052
15932TIP3    H269288   5.286   0.127  12.054 -0.6051  0.9074  0.4293
15933TIP3   OH269289   3.334   3.356  16.108 -0.6112  0.6134 -0.1974
15933TIP3    H169290   3.264   3.343  16.044 -0.5335  2.6394 -0.7755
15933TIP3    H269291   3.337   3.451  16.121  1.4491  0.5021  0.4770
15934TIP3   OH269292   2.158   1.136  12.593 -0.4866 -0.4268  0.2571
15934TIP3    H169293   2.107   1.134  12.674 -1.1656 -1.0207 -0.1791
15934TIP3    H269294   2.102   1.095  12.527 -0.0153  0.2004 -0.5643
15935TIP3   OH269295   5.807   3.259   1.212  0.0796  0.6347 -0.1553
15935TIP3    H169296   5.799   3.315   1.290  1.8506 -0.2562  0.7271
15935TIP3    H269297   5.902   3.249   1.200 -0.1398 -2.3992 -0.0812
15936TIP3   OH269298   0.827   6.295  11.564 -0.3649  0.4181 -0.4028
15936TIP3    H169299   0.881   6.330  11.636 -1.0140 -0.7467  0.6925
15936TIP3    H269300   0.865   6.209  11.546  0.6177  1.2135 -2.4102
15937TIP3   OH269301   1.754   1.320   3.146  0.1482 -0.2338 -0.3227
15937TIP3    H169302   1.720   1.248   3.092 -0.2595 -0.4461  0.2042
15937TIP3    H269303   1.775   1.278   3.230 -0.5625  0.3570  0.1554
15938TIP3   OH269304   4.992   6.088  11.145 -0.2800 -0.6113 -0.5490
15938TIP3    H169305   5.025   6.076  11.056 -0.7571 -0.4026 -0.7552
15938TIP3    H269306   4.898   6.070  11.139 -0.5987  0.8746 -0.3878
15939TIP3   OH269307   2.287   6.677  16.946  0.1176  0.0230 -0.0293
15939TIP3    H169308   2.266   6.587  16.969 -0.6475  0.5028  1.2421
15939TIP3    H269309   2.289   6.677  16.850 -1.1481 -1.0832 -0.0854
15940TIP3   OH269310   5.153   0.924   0.377 -0.3674  0.0806  0.2846
15940TIP3    H169311   5.233   0.937   0.327  1.5660 -1.6781  2.6485
15940TIP3    H269312   5.150   0.997   0.438 -0.1641 -0.2168  0.6557
15941TIP3   OH269313   4.706   4.037   0.781  0.0146  0.7709 -0.1628
15941TIP3    H169314   4.621   4.078   0.766  0.1296  0.8132 -0.7188
15941TIP3    H269315   4.720   4.045   0.876 -0.0903  1.7528 -0.2236
15942TIP3   OH269316   1.868   5.273  12.930  0.4599  0.1277 -0.4271
15942TIP3    H169317   1.875   5.220  12.851  0.5076  0.3541 -0.5747
15942TIP3    H269318   1.931   5.234  12.991 -1.8329 -2.1076  0.6989
15943TIP3   OH269319   5.321   1.334  14.577 -0.0308 -0.0431  0.3297
15943TIP3    H169320   5.277   1.418  14.585  0.2964  0.4307 -2.0861
15943TIP3    H269321   5.403   1.354  14.533  0.1391 -1.6130 -0.1208
15944TIP3   OH269322   0.724   3.842   4.242  0.3349 -0.0573 -0.3893
15944TIP3    H169323   0.741   3.931   4.270  1.5545 -0.4234  0.0879
15944TIP3    H269324   0.736   3.788   4.320 -0.7868 -0.6172 -0.5698
15945TIP3   OH269325   6.008   5.966   1.750  0.1798 -0.2230 -0.1606
15945TIP3    H169326   6.008   6.059   1.772 -0.8450 -0.2633  0.0637
15945TIP3    H269327   6.097   5.948   1.720  1.1469  0.2442  2.2109
15946TIP3   OH269328   2.603   6.117   1.209  0.7172  0.1778 -0.1686
15946TIP3    H169329   2.549   6.041   1.189  0.9701 -0.9116  2.8266
15946TIP3    H269330   2.568   6.187   1.153 -0.9090 -1.5591 -1.4468
15947TIP3   OH269331   0.846   0.258  14.271  0.4079 -0.3066  0.2530
15947TIP3    H169332   0.843   0.246  14.176  2.6626  0.5549  0.0308
15947TIP3    H269333   0.929   0.220  14.297  0.9128  1.5921  1.5430
15948TIP3   OH269334   4.457   2.049   0.143  0.1981  0.3604 -0.1394
15948TIP3    H169335   4.543   2.011   0.158  0.4486  1.0231  0.1717
15948TIP3    H269336   4.404   2.019   0.217  0.3816  0.5820  0.0824
15949TIP3   OH269337   0.270   3.964   4.913  0.1833 -0.5655  0.1785
15949TIP3    H169338   0.210   4.000   4.978  1.4519  0.4220  0.8378
15949TIP3    H269339   0.303   3.883   4.952  0.5276 -0.2554  0.5390
15950TIP3   OH269340   1.948   1.311   6.004 -0.4719  0.1151  0.1250
15950TIP3    H169341   1.973   1.334   6.093 -0.9564  1.9583 -0.1779
15950TIP3    H269342   1.856   1.334   5.997 -0.3487  0.3603 -0.9584
15951TIP3   OH269343   0.603   3.919  16.635 -0.2189 -0.2664 -0.2999
15951TIP3    H169344   0.691   3.955  16.649 -0.7982  0.6912  1.0032
15951TIP3    H269345   0.572   3.960  16.555  0.0278  0.3759 -0.0692
15952TIP3   OH269346   0.524   4.475  10.280 -0.0434  0.5092  0.0256
15952TIP3    H169347   0.508   4.493  10.373 -0.1444  0.8644 -0.0603
15952TIP3    H269348   0.580   4.548  10.251 -2.0658  1.8133 -0.8203
15953TIP3   OH269349   0.511   3.560   5.775  0.1713 -0.1233 -0.1796
15953TIP3    H169350   0.542   3.631   5.831  0.6352  0.0980 -0.7060
15953TIP3    H269351   0.455   3.507   5.832  0.5123  0.1808  0.4482
15954TIP3   OH269352   5.023   2.753  11.339 -0.6418 -0.0886  0.2952
15954TIP3    H169353   5.095   2.710  11.384 -1.2784  0.5109  1.9478
15954TIP3    H269354   5.018   2.709  11.254  1.3778 -0.4188  0.3039
15955TIP3   OH269355   2.369   2.526   3.659  0.6063  0.2341 -0.3575
15955TIP3    H169356   2.417   2.558   3.736  0.6965  0.3621 -0.4671
15955TIP3    H269357   2.433   2.529   3.588 -0.0227  2.0510 -0.9007
15956TIP3   OH269358   5.382   3.307   4.652 -0.0853  0.4788 -0.1011
15956TIP3    H169359   5.332   3.226   4.639  0.0529  0.2114  0.8657
15956TIP3    H269360   5.414   3.300   4.743  1.0764  0.9818 -0.4510
15957TIP3   OH269361   1.163   6.649   4.977  0.0578 -0.5937 -0.1921
15957TIP3    H169362   1.143   6.576   5.035 -0.6148 -2.3239 -2.4250
15957TIP3    H269363   1.249   6.627   4.940  0.9537  0.9964  0.8244
15958TIP3   OH269364   0.628   4.974   0.318 -0.3582  0.0128  0.1110
15958TIP3    H169365   0.650   4.904   0.380  0.0310 -0.7450 -0.8515
15958TIP3    H269366   0.666   5.053   0.356  0.0033 -0.4702  0.7669
15959TIP3   OH269367   3.983   3.177   1.208 -0.2041 -0.2755  0.2230
15959TIP3    H169368   4.005   3.255   1.157  1.2560 -1.5910 -1.2433
15959TIP3    H269369   3.889   3.165   1.194 -0.0799  0.1427 -1.1066
15960TIP3   OH269370   2.342   2.165   0.952 -0.2287  0.5787 -0.3211
15960TIP3    H169371   2.405   2.212   1.006  3.3011  0.0084 -3.5382
15960TIP3    H269372   2.356   2.072   0.973 -2.2396  0.5074  1.0235
15961TIP3   OH269373   0.448   2.398  13.252  0.0779  0.1102  0.1571
15961TIP3    H169374   0.407   2.473  13.209  0.3661  0.2658  0.1462
15961TIP3    H269375   0.444   2.327  13.188 -0.8038 -0.0825  0.4191
15962TIP3   OH269376   0.373   2.500   4.138 -0.2437 -0.0959  0.3915
15962TIP3    H169377   0.432   2.439   4.183  0.1287  1.4132  2.0876
15962TIP3    H269378   0.341   2.557   4.208 -1.8712  0.6173 -0.8825
15963TIP3   OH269379   3.816   5.200   4.078 -0.2961 -0.4356  0.5584
15963TIP3    H169380   3.789   5.115   4.043  0.5120 -0.6608  0.4560
15963TIP3    H269381   3.891   5.180   4.134  0.8614  0.3721 -0.6606
15964TIP3   OH269382   1.548   3.917  15.391  0.1825 -0.0885 -0.1310
15964TIP3    H169383   1.512   3.956  15.470  0.3397  0.5746 -0.3784
15964TIP3    H269384   1.640   3.900  15.412  0.2821  0.3029 -0.2467
15965TIP3   OH269385   0.905   2.074   4.065 -0.9978 -0.1747  0.5671
15965TIP3    H169386   0.864   1.991   4.087 -0.8280 -0.2276  0.6834
15965TIP3    H269387   0.994   2.067   4.100 -0.9260 -0.0158  0.4171
15966TIP3   OH269388   0.801   5.672   1.312  0.3997  0.5914  0.1007
15966TIP3    H169389   0.773   5.636   1.397 -0.5768 -1.7215 -1.1188
15966TIP3    H269390   0.839   5.598   1.266 -0.0044  1.5445 -1.8670
15967TIP3   OH269391   0.637   3.327   0.892 -0.3680  0.2676 -0.6249
15967TIP3    H169392   0.553   3.370   0.883  1.1688  3.9211  0.8065
15967TIP3    H269393   0.653   3.322   0.986  1.0649 -0.2893 -0.8601
15968TIP3   OH269394   5.620   4.221  16.179  0.1685 -0.0010  0.2305
15968TIP3    H169395   5.554   4.242  16.244 -0.2940  2.6952 -0.9458
15968TIP3    H269396   5.575   4.164  16.116 -0.5400  0.4297  0.3346
15969TIP3   OH269397   1.823   5.931   1.849 -0.3972 -0.4933  0.2622
15969TIP3    H169398   1.753   5.993   1.870 -0.0575  0.4706 -1.3222
15969TIP3    H269399   1.904   5.978   1.867 -0.1346 -0.4512 -0.9614
15970TIP3   OH269400   2.876   2.039  13.109  0.1525 -0.1210  0.0563
15970TIP3    H169401   2.944   1.980  13.076 -0.0664 -0.9843  1.1169
15970TIP3    H269402   2.865   2.103  13.038 -0.1471 -1.7674 -1.4681
15971TIP3   OH269403   3.195   6.134  16.599  0.5671 -0.3571  0.4819
15971TIP3    H169404   3.285   6.152  16.626  0.8572 -0.4078 -0.4025
15971TIP3    H269405   3.150   6.218  16.606  0.4875 -0.4727  1.5871
15972TIP3   OH269406   1.395   0.860   0.241  0.3335  0.0320  0.1688
15972TIP3    H169407   1.455   0.794   0.207  1.7579  1.0215  0.6494
15972TIP3    H269408   1.309   0.835   0.207  0.7535 -2.2615  0.6570
15973TIP3   OH269409   5.092   5.673   4.906 -0.0990 -0.0891  0.3938
15973TIP3    H169410   5.034   5.747   4.926  2.5266  1.5173  2.8812
15973TIP3    H269411   5.146   5.705   4.834  2.4249  1.4873  2.7712
15974TIP3   OH269412   0.507   3.594   1.269 -0.1358  0.0424 -0.2097
15974TIP3    H169413   0.557   3.590   1.351  0.5213 -0.2208 -0.6147
15974TIP3    H269414   0.425   3.548   1.289  0.4797 -1.0096 -0.0153
15975TIP3   OH269415   1.680   1.860  11.901 -0.8384 -0.5315  0.3147
15975TIP3    H169416   1.709   1.806  11.828  0.4189  1.8510 -1.0448
15975TIP3    H269417   1.729   1.828  11.977  0.8474 -0.4807 -0.7267
15976TIP3   OH269418   1.528   3.760  15.940 -0.5382 -0.0825 -0.4565
15976TIP3    H169419   1.454   3.817  15.918  0.4834  0.9480 -1.3671
15976TIP3    H269420   1.572   3.744  15.857  1.2668  0.7809  0.2809
15977TIP3   OH269421   6.470   3.119  14.186 -0.0190  0.4482 -0.3028
15977TIP3    H169422   6.455   3.102  14.093  0.1293  1.5653 -0.5497
15977TIP3    H269423   6.559   3.090  14.202 -0.6851 -1.6099 -0.0056
15978TIP3   OH269424   5.811   5.295  13.900 -0.1843 -0.3375 -0.7102
15978TIP3    H169425   5.825   5.232  13.971 -1.2298 -2.4784 -2.2949
15978TIP3    H269426   5.897   5.302  13.858 -0.1847 -1.2850 -0.9121
15979TIP3   OH269427   6.435   0.661   1.666 -0.2374 -0.0640  0.4429
15979TIP3    H169428   6.379   0.698   1.597 -0.7665 -0.2152  0.7855
15979TIP3    H269429   6.430   0.566   1.652  2.5686 -0.0434 -1.5828
15980TIP3   OH269430   4.228   2.178   4.649 -0.2504 -0.2706  0.4818
15980TIP3    H169431   4.249   2.158   4.558 -2.1089  2.7754 -0.7800
15980TIP3    H269432   4.299   2.236   4.677 -0.3168 -0.2203  0.5437
15981TIP3   OH269433   4.733   6.093   1.068  0.6047  0.3739 -0.3356
15981TIP3    H169434   4.647   6.135   1.069 -0.2805 -1.3191 -1.5362
15981TIP3    H269435   4.756   6.086   0.976  0.0350 -2.9701 -0.3597
15982TIP3   OH269436   3.758   6.819   4.736 -0.1032 -0.7870 -0.7607
15982TIP3    H169437   3.697   6.780   4.674 -0.7218 -0.6228 -0.2806
15982TIP3    H269438   3.810   6.746   4.769 -1.3106 -1.2557  0.2052
15983TIP3   OH269439   1.912   2.283   3.380 -0.3636  0.3496  0.4638
15983TIP3    H169440   1.831   2.334   3.389 -1.2534 -0.6262 -1.4464
15983TIP3    H269441   1.929   2.250   3.468 -2.8570 -0.6030  0.6726
15984TIP3   OH269442   3.740   1.555  16.333  0.3032  0.3801  0.4052
15984TIP3    H169443   3.655   1.559  16.288  0.0077  2.2299  1.0720
15984TIP3    H269444   3.767   1.646  16.343  2.1060 -0.1497  0.7552
15985TIP3   OH269445   4.249   4.664   0.053  0.5386 -0.2233  0.1467
15985TIP3    H169446   4.267   4.740  -0.002 -0.7095 -1.2045 -1.7283
15985TIP3    H269447   4.165   4.631   0.021  0.3628 -1.5666  1.8656
15986TIP3   OH269448   5.507   4.341   2.805  0.4600 -1.1740 -0.5229
15986TIP3    H169449   5.552   4.301   2.879 -0.2954 -0.5546  0.2927
15986TIP3    H269450   5.498   4.433   2.830 -0.0453 -1.0184 -1.2648
15987TIP3   OH269451   1.804   1.534  14.805 -0.2470 -0.2730  0.0082
15987TIP3    H169452   1.797   1.595  14.731 -1.3992 -0.6732 -0.2276
15987TIP3    H269453   1.773   1.451  14.770 -0.2435 -0.6033  0.7841
15988TIP3   OH269454   1.996   3.516   3.064 -0.2891 -0.1344  0.6389
15988TIP3    H169455   1.969   3.597   3.021  1.5825  0.3884  0.3611
15988TIP3    H269456   2.031   3.462   2.994 -1.6673 -1.2869  0.8016
15989TIP3   OH269457   1.231   1.247  17.068 -0.1955  0.3650 -0.6771
15989TIP3    H169458   1.194   1.218  17.151 -0.0992 -4.1694 -1.9290
15989TIP3    H269459   1.158   1.239  17.006  0.8244 -1.0437 -1.7762
15990TIP3   OH269460   2.587   6.324   0.176  0.1749  0.3770  0.2294
15990TIP3    H169461   2.586   6.299   0.268 -0.6280  0.9489  0.3837
15990TIP3    H269462   2.523   6.395   0.169 -0.4224 -0.2322 -0.9323
15991TIP3   OH269463   2.771   5.497  14.187 -0.3241 -0.1158  0.0912
15991TIP3    H169464   2.821   5.424  14.152  0.1758 -0.4241  1.3906
15991TIP3    H269465   2.681   5.479  14.162 -0.1458 -0.9486  0.0363
15992TIP3   OH269466   2.736   0.618   3.066 -0.1496  0.6237 -0.3132
15992TIP3    H169467   2.802   0.677   3.103 -1.3172  1.5094  0.4371
15992TIP3    H269468   2.767   0.531   3.088  0.6083  1.0281  0.2970
15993TIP3   OH269469   3.506   3.058  12.111  0.0163  0.4301  0.1713
15993TIP3    H169470   3.581   3.118  12.112  0.1791  0.3390 -2.2453
15993TIP3    H269471   3.511   3.013  12.027 -0.8722 -2.0643  1.3326
15994TIP3   OH269472   5.803   4.070   2.752  0.4754  0.3891  0.6980
15994TIP3    H169473   5.815   4.164   2.739 -0.6043  0.4390 -0.0849
15994TIP3    H269474   5.834   4.054   2.841  0.4749  1.5281  0.9169
15995TIP3   OH269475   6.616   4.494  10.967 -0.7582  0.7136 -0.0990
15995TIP3    H169476   6.618   4.429  10.897  1.3848 -2.3397  2.4575
15995TIP3    H269477   6.549   4.461  11.028 -1.1150  2.1047  0.2987
15996TIP3   OH269478   4.848   2.644  15.805 -0.2759  0.4243 -0.7290
15996TIP3    H169479   4.757   2.673  15.797 -0.6327 -0.1380  1.0061
15996TIP3    H269480   4.898   2.725  15.819 -0.9883  0.5141  1.7860
15997TIP3   OH269481   2.842   0.438   4.694 -0.3828  0.1580 -0.1100
15997TIP3    H169482   2.786   0.384   4.751  1.7904 -2.4018 -0.2034
15997TIP3    H269483   2.908   0.377   4.661  0.1673  2.1906 -3.1287
15998TIP3   OH269484   5.177   0.738   2.940 -0.0342 -0.1233 -0.1800
15998TIP3    H169485   5.099   0.715   2.890  1.0303 -2.3815 -0.9664
15998TIP3    H269486   5.180   0.834   2.937 -2.8409  0.0597  0.0764
15999TIP3   OH269487   4.257   4.352  13.250  0.5188 -0.2333 -0.5042
15999TIP3    H169488   4.210   4.422  13.206 -0.4602 -0.7069 -0.2280
15999TIP3    H269489   4.297   4.394  13.327  2.9447  0.7896 -2.2091
16000TIP3   OH269490   0.576   5.574  13.311  0.6778  0.0063 -0.5878
16000TIP3    H169491   0.551   5.482  13.324  1.9459 -0.2691  0.0577
16000TIP3    H269492   0.589   5.607  13.400  0.4758  0.7579 -0.8303
16001TIP3   OH269493   4.235   2.349   2.116 -0.7676  0.0227 -0.2178
16001TIP3    H169494   4.272   2.261   2.125 -0.3413  0.3231  1.2504
16001TIP3    H269495   4.183   2.346   2.035  0.7636 -1.0154 -1.2043
16002TIP3   OH269496   1.892   1.797   4.690  0.7468 -0.1825 -0.1250
16002TIP3    H169497   1.960   1.809   4.756  2.0253 -1.0138 -1.2422
16002TIP3    H269498   1.936   1.753   4.617 -0.8575 -0.2303 -1.1234
16003TIP3   OH269499   2.104   0.763   0.592  0.2277  0.7039 -0.1492
16003TIP3    H169500   2.090   0.721   0.676 -0.2778 -0.6089 -0.8507
16003TIP3    H269501   2.017   0.774   0.555  0.3379  2.5228  0.0469
16004TIP3   OH269502   6.045   2.065   6.292 -0.2522  0.3234 -0.2804
16004TIP3    H169503   6.091   2.149   6.292 -0.9425  0.7773 -2.5724
16004TIP3    H269504   5.955   2.088   6.269 -0.8331 -0.9166  0.6477
16005TIP3   OH269505   6.566   3.982  12.719  0.3746 -0.4916  0.2477
16005TIP3    H169506   6.570   4.035  12.799  0.2706  0.4777 -0.3678
16005TIP3    H269507   6.654   3.990  12.682  0.0439  0.1552 -0.4089
16006TIP3   OH269508   6.151   0.214   0.094 -0.2621 -0.2372  0.0832
16006TIP3    H169509   6.205   0.139   0.120  1.3003  0.3459 -1.3189
16006TIP3    H269510   6.086   0.177   0.035  0.0099 -0.6086  0.0111
16007TIP3   OH269511   1.492   4.120   3.942 -0.0822  0.0163 -0.7893
16007TIP3    H169512   1.572   4.121   3.993 -0.8333 -0.2797  0.4297
16007TIP3    H269513   1.454   4.034   3.957 -1.3900  0.6837 -0.1131
16008TIP3   OH269514   4.426   3.273   1.682  0.2602  0.4055 -0.3915
16008TIP3    H169515   4.416   3.216   1.758  0.2890 -1.6627 -1.8502
16008TIP3    H269516   4.521   3.276   1.667  0.1939 -0.1051 -0.9647
16009TIP3   OH269517   6.633   4.961   0.261  0.2230  0.0858 -0.2504
16009TIP3    H169518   6.640   4.894   0.193 -1.5447 -0.5042  0.0927
16009TIP3    H269519   6.722   4.968   0.298  0.5473 -1.7218 -0.6116
16010TIP3   OH269520   4.310   2.307   5.692  0.0002 -0.3151 -0.2716
16010TIP3    H169521   4.286   2.373   5.627 -0.3491  0.0457  0.2169
16010TIP3    H269522   4.382   2.258   5.652 -0.2990 -0.1793 -0.9769
16011TIP3   OH269523   4.686   6.428   2.549  0.0011 -0.2467  0.1753
16011TIP3    H169524   4.759   6.366   2.547 -0.5925 -1.1635  2.7975
16011TIP3    H269525   4.709   6.490   2.618 -1.5255 -0.3409  0.7989
16012TIP3   OH269526   3.815   5.500   4.070  0.4198 -0.2752  0.1143
16012TIP3    H169527   3.789   5.412   4.044  0.5263 -0.1628 -0.3820
16012TIP3    H269528   3.805   5.501   4.165 -0.2558 -0.6024  0.0501
16013TIP3   OH269529   2.477   4.683   1.195 -0.3937 -0.0869  0.4292
16013TIP3    H169530   2.407   4.740   1.162  1.7064  1.7683 -1.1521
16013TIP3    H269531   2.499   4.719   1.281 -1.6650 -1.0269  1.1912
16014TIP3   OH269532   4.097   0.414   1.448 -0.5510 -0.6709 -0.3503
16014TIP3    H169533   4.103   0.412   1.544 -1.8955  0.3454 -0.2177
16014TIP3    H269534   4.132   0.500   1.423  1.4255 -1.5728 -0.9681
16015TIP3   OH269535   1.346   3.144  11.099 -0.0007  0.0116  0.3679
16015TIP3    H169536   1.322   3.236  11.083 -1.9440  0.1077  3.1005
16015TIP3    H269537   1.436   3.148  11.131  0.7498  0.6548 -1.6601
16016TIP3   OH269538   0.702   2.975  12.388 -0.0444  0.2881  0.3243
16016TIP3    H169539   0.679   2.883  12.374 -1.2896  0.5759  0.3444
16016TIP3    H269540   0.669   2.995  12.475 -2.8727  1.6211 -0.9243
16017TIP3   OH269541   4.109   1.192  11.996 -0.3597  0.3649  0.0102
16017TIP3    H169542   4.047   1.147  12.053 -0.1996  1.0573  0.7545
16017TIP3    H269543   4.140   1.267  12.048  0.6749  0.3527 -0.5532
16018TIP3   OH269544   2.118   3.693   1.943  0.7623  0.0138 -0.4189
16018TIP3    H169545   2.124   3.788   1.952 -0.8998  0.1461 -0.3759
16018TIP3    H269546   2.038   3.670   1.990  2.0461 -1.6463  1.0913
16019TIP3   OH269547   4.014   1.193  16.821  0.8284 -0.0610  0.8143
16019TIP3    H169548   3.981   1.282  16.831  0.1202 -0.4918  2.6929
16019TIP3    H269549   4.052   1.191  16.733  1.1575  2.1832  0.8520
16020TIP3   OH269550   5.577   2.562  16.676  0.1156 -0.5507 -0.2184
16020TIP3    H169551   5.624   2.590  16.597 -1.5563 -1.7963 -1.7222
16020TIP3    H269552   5.634   2.589  16.748  2.5437 -0.8933 -1.8838
16021TIP3   OH269553   5.610   0.206   6.624  0.1603  0.4402 -0.3697
16021TIP3    H169554   5.683   0.187   6.683  0.3524  0.2515 -0.6674
16021TIP3    H269555   5.538   0.152   6.657  0.3375  0.1512 -0.4545
16022TIP3   OH269556   5.398   1.267   2.901 -0.1057  0.0071 -0.1242
16022TIP3    H169557   5.320   1.251   2.847 -0.2833  0.0027  0.1303
16022TIP3    H269558   5.451   1.188   2.889 -0.1141  0.0325 -0.3416
16023TIP3   OH269559   1.704   2.052   0.514  0.4710  0.4235  0.3866
16023TIP3    H169560   1.727   2.089   0.429 -2.8674  2.0606  0.0289
16023TIP3    H269561   1.716   1.958   0.504  0.9502  0.6672 -1.6191
16024TIP3   OH269562   5.733   5.968   5.238  0.5492 -0.0845 -0.0314
16024TIP3    H169563   5.807   5.916   5.270 -0.6679 -2.4705 -0.8202
16024TIP3    H269564   5.661   5.944   5.297 -0.4351 -0.5593 -1.3867
16025TIP3   OH269565   1.090   1.392  12.890  0.4474  0.1025 -0.5590
16025TIP3    H169566   1.105   1.299  12.910  0.2274 -0.0652 -1.1463
16025TIP3    H269567   1.085   1.395  12.795 -0.3940  0.5859 -0.5032
16026TIP3   OH269568   6.199   0.993  14.804 -0.4111 -0.1118 -0.0445
16026TIP3    H169569   6.254   1.027  14.874  0.3434  1.6954 -1.4494
16026TIP3    H269570   6.259   0.979  14.730 -1.6598  1.1360 -1.3630
16027TIP3   OH269571   0.568   2.614   5.208 -0.1771  1.2447  0.2316
16027TIP3    H169572   0.536   2.536   5.253 -1.7783 -1.4806 -4.8723
16027TIP3    H269573   0.498   2.679   5.219 -1.4391 -0.0396  0.0245
16028TIP3   OH269574   1.615   0.066   2.591 -0.0074 -0.4783 -0.0486
16028TIP3    H169575   1.594   0.087   2.500 -1.3115  0.5010  0.4500
16028TIP3    H269576   1.661   0.143   2.624  0.0759 -0.6514  0.2438
16029TIP3   OH269577   5.184   6.022   1.215  0.1076  0.7405  0.1264
16029TIP3    H169578   5.231   5.991   1.137  0.9045 -0.6434  1.1287
16029TIP3    H269579   5.238   6.093   1.249  1.5810 -0.8621  1.2930
16030TIP3   OH269580   6.053   5.101   4.736  0.1556 -0.4803 -0.0569
16030TIP3    H169581   6.125   5.139   4.686  0.4867  0.1634  0.8761
16030TIP3    H269582   6.085   5.015   4.762  0.9101  0.0883  0.9769
16031TIP3   OH269583   5.893   1.859  16.604 -0.5246 -0.1424  0.4936
16031TIP3    H169584   5.921   1.824  16.689 -0.7133 -0.8929  0.2454
16031TIP3    H269585   5.902   1.954  16.614  0.5252 -0.2790  0.9830
16032TIP3   OH269586   0.878   3.679  11.899  0.6816 -0.2705  0.6800
16032TIP3    H169587   0.947   3.704  11.837  1.1009 -1.3743  0.6727
16032TIP3    H269588   0.876   3.583  11.894 -2.3280 -0.2571 -0.9380
16033TIP3   OH269589   4.003   0.956   3.428 -0.7329 -0.3668 -0.0742
16033TIP3    H169590   4.077   1.016   3.441 -2.9040  2.5803 -0.3620
16033TIP3    H269591   4.018   0.918   3.341  1.0647 -0.8552  0.4129
16034TIP3   OH269592   3.312   4.781   6.285 -0.3779 -0.9959  0.3420
16034TIP3    H169593   3.328   4.721   6.211  0.4710  0.3193 -0.5846
16034TIP3    H269594   3.387   4.766   6.344  0.2143 -0.3600 -0.2339
16035TIP3   OH269595   5.810   6.590  11.271  0.0308 -0.0270 -0.8223
16035TIP3    H169596   5.716   6.577  11.275 -0.5992  3.5475 -0.4359
16035TIP3    H269597   5.842   6.570  11.359 -0.7300  0.6842 -0.3741
16036TIP3   OH269598   6.340   5.996  14.037  0.0684  0.2231  0.7201
16036TIP3    H169599   6.361   5.931  13.970 -0.4626  0.2548  0.5180
16036TIP3    H269600   6.244   5.999  14.039  0.0857  1.2977  0.4413
16037TIP3   OH269601   6.771   6.300  11.814 -0.0698  0.3791  0.1390
16037TIP3    H169602   6.783   6.313  11.720 -0.0299  0.0574  0.1000
16037TIP3    H269603   6.810   6.378  11.854 -2.0691  1.6555 -0.2040
16038TIP3   OH269604   2.272   4.069  11.372 -0.2867 -0.3560 -0.3084
16038TIP3    H169605   2.360   4.044  11.400  1.2697 -1.2388 -5.0930
16038TIP3    H269606   2.272   4.165  11.375  1.0131 -0.3285 -0.5653
16039TIP3   OH269607   3.511   0.768   1.753 -0.1977  0.2800  0.4892
16039TIP3    H169608   3.468   0.733   1.831 -1.5614 -0.0446 -0.3792
16039TIP3    H269609   3.486   0.708   1.683 -1.0463  1.9213 -0.6738
16040TIP3   OH269610   5.832   1.573   4.446 -0.4778  0.9093  0.3292
16040TIP3    H169611   5.864   1.617   4.525  2.5375  0.1025 -0.3483
16040TIP3    H269612   5.819   1.482   4.473  0.7439  0.5919 -0.1302
16041TIP3   OH269613   4.411   4.628  14.146 -0.0313  0.3413 -0.6041
16041TIP3    H169614   4.468   4.591  14.213 -1.8029  1.4771  1.6934
16041TIP3    H269615   4.355   4.555  14.118 -0.4819  0.2238  0.5474
16042TIP3   OH269616   4.920   5.858   3.064  0.6052  0.1825  0.4276
16042TIP3    H169617   4.953   5.773   3.093 -0.1574 -0.4390 -0.4496
16042TIP3    H269618   4.824   5.849   3.070  0.4675  0.4315 -1.1370
16043TIP3   OH269619   6.183   1.348   1.008 -0.6612 -0.0157 -0.2495
16043TIP3    H169620   6.231   1.282   0.958  1.0548 -0.3160  1.6841
16043TIP3    H269621   6.216   1.432   0.975  1.1701 -0.2164  0.9240
16044TIP3   OH269622   5.344   3.534   5.662  0.5546  0.4410  0.0371
16044TIP3    H169623   5.252   3.513   5.678  0.2260  0.0102 -2.1532
16044TIP3    H269624   5.389   3.507   5.742 -1.0116 -0.7854  0.5452
16045TIP3   OH269625   4.002   4.577   3.906 -0.3814 -0.3474 -0.1597
16045TIP3    H169626   3.944   4.649   3.881 -0.4079  0.0146  0.9006
16045TIP3    H269627   4.089   4.606   3.877 -0.0181  1.1472  2.1648
16046TIP3   OH269628   6.440   6.485   5.684  0.2232  0.5455  0.1944
16046TIP3    H169629   6.520   6.512   5.730  0.4032  2.3527 -1.0515
16046TIP3    H269630   6.453   6.392   5.665  1.3390  0.4363  1.3469
16047TIP3   OH269631   4.779   6.723  13.629  0.5093 -0.2067  0.4889
16047TIP3    H169632   4.743   6.812  13.637  1.6078  0.4843 -1.4722
16047TIP3    H269633   4.860   6.735  13.580  0.0639 -2.4272 -0.9116
16048TIP3   OH269634   3.131   3.670   5.511  0.2874 -0.0235 -0.8958
16048TIP3    H169635   3.205   3.723   5.484 -0.1268  1.1779  0.1935
16048TIP3    H269636   3.060   3.734   5.526 -0.2611 -0.8738  0.3374
16049TIP3   OH269637   6.254   5.075  12.374  0.3623 -0.0396 -0.6100
16049TIP3    H169638   6.230   5.167  12.363 -1.0744 -0.3925 -0.5866
16049TIP3    H269639   6.349   5.077  12.386  0.1293  1.6454  1.5439
16050TIP3   OH269640   6.122   3.986  17.052  0.1177  0.4252  0.2971
16050TIP3    H169641   6.215   3.998  17.072  0.7266 -0.4650 -1.6684
16050TIP3    H269642   6.114   4.012  16.960 -1.1663 -1.2415 -0.1268
16051TIP3   OH269643   2.286   1.368   6.247 -0.7249 -0.3311 -0.0610
16051TIP3    H169644   2.199   1.377   6.209  0.1963 -2.5187 -3.0598
16051TIP3    H269645   2.288   1.278   6.281  0.4623 -0.4113 -0.3066
16052TIP3   OH269646   0.315   4.026  12.258 -0.1648 -0.0746 -0.5369
16052TIP3    H169647   0.388   3.977  12.222  0.3293  0.3303 -0.1029
16052TIP3    H269648   0.351   4.112  12.278 -0.4652 -0.2129  0.7188
16053TIP3   OH269649   3.938   1.111   4.683 -0.3225  0.3814 -0.0055
16053TIP3    H169650   3.958   1.148   4.769  2.1150 -0.9264  0.0969
16053TIP3    H269651   4.020   1.121   4.634 -1.5372  0.7358 -2.0665
16054TIP3   OH269652   5.395   3.158   5.587  0.1922  0.0976 -0.2902
16054TIP3    H169653   5.413   3.240   5.633 -2.3891  0.2401  0.6618
16054TIP3    H269654   5.328   3.181   5.523 -0.0024 -1.1198 -0.5423
16055TIP3   OH269655   2.738   5.306   4.428 -0.1134  0.4299  0.3971
16055TIP3    H169656   2.706   5.254   4.355 -0.6219  0.6202  0.4818
16055TIP3    H269657   2.811   5.256   4.463 -1.9185 -1.3420  1.8415
16056TIP3   OH269658   5.299   4.725   1.327  0.4311 -0.3043  0.0017
16056TIP3    H169659   5.313   4.726   1.421  0.2048 -1.9734  0.0813
16056TIP3    H269660   5.386   4.716   1.289  0.4633 -0.2443  0.0616
16057TIP3   OH269661   0.108   3.111  13.615 -0.5857 -0.6811  0.0925
16057TIP3    H169662   0.082   3.080  13.701 -2.8262  0.1774 -0.2000
16057TIP3    H269663   0.196   3.147  13.627  0.1106 -2.7028  1.4523
16058TIP3   OH269664   5.387   5.099   0.897  0.4514  0.2992 -0.3208
16058TIP3    H169665   5.315   5.037   0.904  0.2447  0.5542 -0.1648
16058TIP3    H269666   5.465   5.045   0.888  0.3922 -0.0020  0.8540
16059TIP3   OH269667   5.329   1.442  16.629 -0.0073  0.7926 -0.7473
16059TIP3    H169668   5.279   1.395  16.562 -0.9110 -1.3855  1.2953
16059TIP3    H269669   5.410   1.391  16.638 -0.3723  0.3811  0.5070
16060TIP3   OH269670   3.416   6.467  10.635 -0.0050  0.7532  0.4096
16060TIP3    H169671   3.336   6.518  10.651 -0.7633 -0.4276  0.5430
16060TIP3    H269672   3.392   6.408  10.564 -0.0018 -1.1314  1.8767
16061TIP3   OH269673   3.859   5.730   5.050 -0.3081  0.2617 -0.1619
16061TIP3    H169674   3.765   5.736   5.069 -0.5415 -0.0196 -1.1922
16061TIP3    H269675   3.890   5.658   5.106 -0.8077  0.0103 -0.2024
16062TIP3   OH269676   1.207   1.711   3.006  0.0409 -0.5295  0.4253
16062TIP3    H169677   1.295   1.716   3.044  0.2502  0.6308 -0.1770
16062TIP3    H269678   1.154   1.765   3.065 -0.2591 -1.1718  0.7472
16063TIP3   OH269679   5.170   5.143  16.123 -0.0914  0.4990  0.1638
16063TIP3    H169680   5.233   5.116  16.057  0.2209 -1.0053  1.0478
16063TIP3    H269681   5.188   5.236  16.136  0.5758  0.5629 -1.0435
16064TIP3   OH269682   5.629   3.937  15.550  0.0073  0.2158  0.1999
16064TIP3    H169683   5.685   3.940  15.628  0.0605 -0.1269  0.1793
16064TIP3    H269684   5.546   3.976  15.578  0.3750  1.0684  0.1288
16065TIP3   OH269685   0.832   2.630   2.908 -0.2299 -0.1319 -0.0263
16065TIP3    H169686   0.913   2.679   2.921  0.4140 -1.3844  0.9403
16065TIP3    H269687   0.774   2.691   2.862 -0.4052  2.5220  3.3193
16066TIP3   OH269688   0.487   2.784   4.486  0.1448  0.0471 -0.1858
16066TIP3    H169689   0.474   2.803   4.579  0.4780 -0.6347  0.0082
16066TIP3    H269690   0.474   2.868   4.442  0.9051  0.5677  0.5610
16067TIP3   OH269691   3.394   5.301  14.055 -0.2044 -0.1761 -0.3225
16067TIP3    H169692   3.437   5.338  13.977 -0.1184  1.3613  0.4234
16067TIP3    H269693   3.301   5.314  14.039 -0.1896  0.0933 -0.1762
16068TIP3   OH269694   5.473   5.706   5.343  0.0264 -0.6008 -0.2700
16068TIP3    H169695   5.491   5.618   5.308 -0.4195 -0.0347 -2.0197
16068TIP3    H269696   5.410   5.691   5.413  0.9199 -1.7801  0.3233
16069TIP3   OH269697   1.105   2.716  13.374  0.4506  0.1490 -0.1706
16069TIP3    H169698   1.119   2.769  13.296 -1.0032 -1.0408 -1.2938
16069TIP3    H269699   1.090   2.628  13.341 -1.0470 -0.2436  1.3831
16070TIP3   OH269700   5.509   6.111   5.523  0.4131 -0.1769  0.1669
16070TIP3    H169701   5.478   6.141   5.608 -0.5824  1.0518 -0.5995
16070TIP3    H269702   5.449   6.040   5.498 -0.7917  1.0505 -0.5444
16071TIP3   OH269703   3.203   3.360   1.471  0.4431  0.3539  0.0130
16071TIP3    H169704   3.145   3.288   1.496  1.1195 -1.0229 -2.0632
16071TIP3    H269705   3.191   3.426   1.539 -3.0095 -0.1366  0.0363
16072TIP3   OH269706   0.580   0.117   3.582 -0.1081  0.1126 -0.1899
16072TIP3    H169707   0.652   0.179   3.585 -0.6539  0.7679 -0.3599
16072TIP3    H269708   0.598   0.056   3.653 -0.4262  1.4587  1.0985
16073TIP3   OH269709   5.710   2.879   5.253 -0.1505  0.2496  0.1872
16073TIP3    H169710   5.713   2.948   5.187  0.8981  0.3584  0.3328
16073TIP3    H269711   5.670   2.920   5.329  3.7084  1.9030  1.5665
16074TIP3   OH269712   4.178   3.767  15.257  0.1763 -0.1348  0.5480
16074TIP3    H169713   4.173   3.738  15.166  2.6541 -0.9038  0.5873
16074TIP3    H269714   4.227   3.850  15.252  0.6935 -0.3940  1.1857
16075TIP3   OH269715   1.756   1.948  16.771  0.0585  0.1373 -0.0408
16075TIP3    H169716   1.762   2.031  16.724 -0.7187  0.1593 -0.1226
16075TIP3    H269717   1.694   1.965  16.842  0.3944 -0.1973  0.3394
16076TIP3   OH269718   2.704   5.254   6.084  0.1789  0.2972 -0.2615
16076TIP3    H169719   2.733   5.164   6.069  1.2247  0.0662  2.4966
16076TIP3    H269720   2.751   5.305   6.017  0.8822 -1.0033 -0.8132
16077TIP3   OH269721   0.946   5.424  13.391  0.3054  0.2182 -0.3858
16077TIP3    H169722   1.011   5.409  13.322 -0.8229 -3.4044 -0.9121
16077TIP3    H269723   0.965   5.357  13.457 -0.0093  2.1786  1.7969
16078TIP3   OH269724   4.179   0.846  17.153 -0.2288 -0.2559 -0.2525
16078TIP3    H169725   4.218   0.926  17.189 -1.1261 -0.6147  1.6140
16078TIP3    H269726   4.251   0.804  17.106  1.3049 -0.1784  1.8677
16079TIP3   OH269727   0.423   4.643   4.193 -0.3875  0.0100 -0.0624
16079TIP3    H169728   0.344   4.595   4.218  0.6259 -2.5219 -1.3419
16079TIP3    H269729   0.479   4.641   4.270 -1.0864  0.8075  0.4793
16080TIP3   OH269730   4.054   1.984   0.265 -0.3148 -0.3367  0.2365
16080TIP3    H169731   3.968   1.945   0.252  0.0128 -0.8336 -0.5124
16080TIP3    H269732   4.038   2.078   0.264 -0.7192 -0.4022 -0.9337
16081TIP3   OH269733   5.310   5.450  15.076 -0.3182  0.3215  0.2331
16081TIP3    H169734   5.401   5.422  15.089 -0.1933 -0.6218 -2.2607
16081TIP3    H269735   5.315   5.545  15.067  0.7534  0.1057 -1.9590
16082TIP3   OH269736   4.998   3.562   1.722 -0.0095 -0.5527 -0.4817
16082TIP3    H169737   4.921   3.585   1.774 -0.4502 -3.0492  0.0875
16082TIP3    H269738   5.068   3.617   1.758 -0.9627 -0.0546  0.6994
16083TIP3   OH269739   2.243   3.062  14.247 -0.2475 -0.4799 -0.2953
16083TIP3    H169740   2.283   3.147  14.228  0.2784 -0.9760 -1.4889
16083TIP3    H269741   2.150   3.075  14.232 -0.0197 -0.4511 -1.8467
16084TIP3   OH269742   6.420   0.523   5.994 -0.0143  0.4236 -0.1876
16084TIP3    H169743   6.399   0.459   6.063  0.7355  1.0855  0.6888
16084TIP3    H269744   6.336   0.557   5.966 -0.3715 -0.3287 -0.0614
16085TIP3   OH269745   5.695   0.043  16.622 -0.1366 -0.0409  0.3842
16085TIP3    H169746   5.658   0.006  16.542  0.3004  0.7766 -0.2076
16085TIP3    H269747   5.785   0.067  16.598  0.0127  0.1812  1.1364
16086TIP3   OH269748   1.132   5.136  11.165  0.1603 -0.4147 -0.6460
16086TIP3    H169749   1.216   5.097  11.141  1.0347  1.3079 -0.5609
16086TIP3    H269750   1.066   5.081  11.122  1.4109 -0.9080 -1.9908
16087TIP3   OH269751   0.313   0.072  17.013  0.3349  0.7939 -0.3386
16087TIP3    H169752   0.347   0.158  17.037 -0.7447  1.1117  0.1269
16087TIP3    H269753   0.293   0.079  16.920  3.9823 -0.2554 -1.3909
16088TIP3   OH269754   6.202   2.866   0.414 -0.2417  0.2852 -0.8194
16088TIP3    H169755   6.171   2.824   0.495 -0.4462 -1.2656 -1.6620
16088TIP3    H269756   6.224   2.955   0.441  0.1798 -0.3308  1.0573
16089TIP3   OH269757   2.436   5.175  17.035  0.1920 -0.4338  0.5368
16089TIP3    H169758   2.443   5.228  17.115 -1.6127  0.9105 -0.1215
16089TIP3    H269759   2.446   5.238  16.964  0.2466 -1.3587 -0.2928
16090TIP3   OH269760   6.247   2.344   3.498 -0.2930  0.2125  0.1994
16090TIP3    H169761   6.186   2.323   3.569 -1.4647  0.0523 -0.8180
16090TIP3    H269762   6.265   2.261   3.456 -1.6773  0.6073 -1.2739
16091TIP3   OH269763   0.062   4.555  11.499  0.3623 -0.2641 -0.1626
16091TIP3    H169764   0.142   4.529  11.453  0.9993 -0.3941  0.9973
16091TIP3    H269765   0.079   4.643  11.531  0.7249 -0.9202  1.5553
16092TIP3   OH269766   3.464   1.318   0.739  0.1746 -0.1018  0.5856
16092TIP3    H169767   3.458   1.288   0.829 -0.2251 -1.7484  0.0542
16092TIP3    H269768   3.388   1.277   0.696  0.5600  0.3632 -0.5671
16093TIP3   OH269769   0.018   1.880  13.433  0.2570  0.1000 -0.0096
16093TIP3    H169770   0.027   1.825  13.511  0.0307  0.7629  0.4849
16093TIP3    H269771   0.016   1.817  13.360  0.6678 -0.5103  0.4958
16094TIP3   OH269772   5.914   2.327   1.933 -0.2488 -0.5668  0.2607
16094TIP3    H169773   5.957   2.403   1.894 -0.6823  0.5777  1.9025
16094TIP3    H269774   5.893   2.271   1.858  2.6606 -0.4944 -0.7486
16095TIP3   OH269775   1.578   3.318  13.580  0.4636  0.0997 -0.2657
16095TIP3    H169776   1.534   3.249  13.628 -0.2837  1.3165  0.8468
16095TIP3    H269777   1.597   3.385  13.645 -0.7459  1.8847 -1.6553
16096TIP3   OH269778   4.312   4.223  16.974  0.1671 -0.3416  0.4914
16096TIP3    H169779   4.388   4.173  16.945  2.0291  4.0279 -3.5079
16096TIP3    H269780   4.349   4.288  17.035 -0.8898  0.1828  0.5901
16097TIP3   OH269781   1.858   1.853   5.652 -0.6566  0.1836 -0.4202
16097TIP3    H169782   1.797   1.797   5.700 -1.3255  0.4288 -0.9494
16097TIP3    H269783   1.889   1.916   5.717 -1.9280  0.8190 -0.3774
16098TIP3   OH269784   3.202   2.218  15.400  0.1615  0.0140 -0.0201
16098TIP3    H169785   3.151   2.228  15.320  0.4102  0.0679 -0.1742
16098TIP3    H269786   3.211   2.124  15.412  0.8392  0.0072 -0.5219
16099TIP3   OH269787   6.026   4.833  12.953 -0.5137  0.5533  0.4013
16099TIP3    H169788   5.992   4.775  13.022 -1.2195  0.2839 -0.1554
16099TIP3    H269789   5.977   4.808  12.875 -0.9232  1.9899  0.1715
16100TIP3   OH269790   0.200   6.619  11.581  0.3296 -0.3229 -0.1456
16100TIP3    H169791   0.223   6.527  11.594  0.2325 -0.7298 -2.4894
16100TIP3    H269792   0.239   6.642  11.496 -2.2320  0.8773 -1.0916
16101TIP3   OH269793   1.587   3.253  11.719 -0.1599  0.6195 -0.7232
16101TIP3    H169794   1.624   3.315  11.782  1.1975 -0.0266 -0.8610
16101TIP3    H269795   1.492   3.266  11.726 -0.0462  0.7418  1.2847
16102TIP3   OH269796   4.203   4.708   3.374  0.1966  0.3245  0.4278
16102TIP3    H169797   4.196   4.778   3.438 -0.2514  0.4231  0.2708
16102TIP3    H269798   4.145   4.734   3.302 -0.3146 -0.4114  0.5598
16103TIP3   OH269799   0.650   6.140   4.623  0.3031 -0.2268  0.3072
16103TIP3    H169800   0.667   6.232   4.607 -0.0017 -0.0878  0.7663
16103TIP3    H269801   0.715   6.114   4.688  0.1514 -0.2453  0.4507
16104TIP3   OH269802   4.121   5.541   1.674  0.2740  0.2369  0.7745
16104TIP3    H169803   4.196   5.601   1.670 -0.1311  0.6990 -1.7484
16104TIP3    H269804   4.124   5.494   1.591 -2.2445  0.3141  0.5594
16105TIP3   OH269805   5.764   0.528   1.209  0.0912  0.6204  0.0183
16105TIP3    H169806   5.807   0.612   1.228 -1.4322  1.0342  1.9896
16105TIP3    H269807   5.823   0.462   1.244  0.8082  0.9227 -0.5970
16106TIP3   OH269808   4.083   4.597   1.065 -0.0353  0.0359 -0.0227
16106TIP3    H169809   4.048   4.670   1.117 -0.8305 -2.0281  2.5216
16106TIP3    H269810   4.011   4.574   1.006 -0.2033  0.5887 -0.0385
16107TIP3   OH269811   6.359   6.088   0.904  0.2705 -0.2030 -0.2533
16107TIP3    H169812   6.336   5.995   0.910  1.4480 -0.4440  0.7787
16107TIP3    H269813   6.331   6.125   0.988 -1.8348  0.7947 -1.3161
16108TIP3   OH269814   6.740   4.194  11.057  0.1264 -0.0080 -0.1768
16108TIP3    H169815   6.668   4.160  11.109 -1.1913 -0.5907 -2.2866
16108TIP3    H269816   6.730   4.154  10.971  2.1968  0.9311 -0.9439
16109TIP3   OH269817   1.606   1.381  16.057  0.1236  0.6196 -0.6725
16109TIP3    H169818   1.591   1.466  16.015 -1.6362  0.7426  0.1371
16109TIP3    H269819   1.696   1.386  16.090 -0.1910  2.4706  0.0032
16110TIP3   OH269820   3.926   1.669   0.794  0.2661 -0.1290 -0.1845
16110TIP3    H169821   4.007   1.628   0.762 -0.7402 -0.4506 -2.4644
16110TIP3    H269822   3.858   1.603   0.778 -0.5006  0.1523  1.6632
16111TIP3   OH269823   6.675   6.157   4.325  0.0990  0.4604  0.3051
16111TIP3    H169824   6.650   6.080   4.377 -0.4806  0.3330 -0.1505
16111TIP3    H269825   6.630   6.230   4.367  1.3636  0.7120  1.2832
16112TIP3   OH269826   1.887   4.277   0.832 -0.4758 -0.2702  0.0740
16112TIP3    H169827   1.805   4.325   0.842  0.4829  1.9926 -1.8734
16112TIP3    H269828   1.954   4.345   0.822  1.3928 -2.0338 -0.1590
16113TIP3   OH269829   1.758   1.903  16.023  0.0379 -0.1732  0.6404
16113TIP3    H169830   1.795   1.821  15.988  0.2379  0.0623  0.2999
16113TIP3    H269831   1.697   1.933  15.956  1.2167  0.8458 -0.0145
16114TIP3   OH269832   5.297   6.658  12.164  0.2161  0.2834  0.9241
16114TIP3    H169833   5.324   6.731  12.219 -0.3158  1.2763 -0.0977
16114TIP3    H269834   5.317   6.580  12.216  1.4771  1.1150  1.7373
16115TIP3   OH269835   2.536   0.245   4.123 -0.0033  0.1031  0.5044
16115TIP3    H169836   2.503   0.184   4.057 -1.5192  1.2661  0.1111
16115TIP3    H269837   2.548   0.192   4.201  0.8018 -1.0957 -0.3923
16116TIP3   OH269838   3.361   6.641  12.111 -0.4105 -0.2796 -0.1069
16116TIP3    H169839   3.280   6.688  12.092  0.6364  0.6287 -2.8257
16116TIP3    H269840   3.351   6.557  12.066  0.2379 -0.0118 -0.7915
16117TIP3   OH269841   2.513   1.023  12.927 -0.2094  0.4912 -0.1538
16117TIP3    H169842   2.532   1.047  12.836  1.5903 -3.3369 -0.9785
16117TIP3    H269843   2.447   0.953  12.920  0.6517 -0.5230  1.3690
16118TIP3   OH269844   0.515   0.393   1.221 -0.6033  0.2219  0.1836
16118TIP3    H169845   0.526   0.384   1.126 -0.0519 -0.3615  0.2875
16118TIP3    H269846   0.582   0.456   1.247 -0.1798 -0.2645  0.2903
16119TIP3   OH269847   6.334   5.687  14.949  0.0569  0.3261 -0.1103
16119TIP3    H169848   6.390   5.630  14.897  0.9191  1.3277 -0.3069
16119TIP3    H269849   6.321   5.640  15.031  1.5257  0.2391  0.0962
16120TIP3   OH269850   4.158   4.570  13.107 -0.4687 -0.8368  0.5210
16120TIP3    H169851   4.133   4.554  13.016 -0.1043 -1.2157  0.4836
16120TIP3    H269852   4.123   4.657  13.126  0.7281 -0.1148 -0.4462
16121TIP3   OH269853   2.439   1.542  12.187  0.3250  0.3046 -0.0595
16121TIP3    H169854   2.385   1.621  12.176 -0.7818 -0.3374  0.6056
16121TIP3    H269855   2.502   1.566  12.255  0.3642  0.7982 -0.2628
16122TIP3   OH269856   3.557   6.262   6.520 -0.1214  0.3200 -0.1082
16122TIP3    H169857   3.602   6.334   6.477 -1.8512 -0.4857 -3.6709
16122TIP3    H269858   3.486   6.303   6.570  1.5268  1.2523  1.5716
16123TIP3   OH269859   0.179   1.300  11.485  0.3390 -0.3232  0.2907
16123TIP3    H169860   0.260   1.350  11.498 -0.0570  0.9325 -1.5757
16123TIP3    H269861   0.149   1.327  11.398 -2.1991 -0.5765  1.0218
16124TIP3   OH269862   1.805   5.817   1.334 -0.0104  0.0488 -0.0753
16124TIP3    H169863   1.781   5.845   1.422  0.1261  3.2015 -0.9282
16124TIP3    H269864   1.900   5.801   1.339 -0.2209 -1.1556  0.6045
16125TIP3   OH269865   5.795   0.711   0.111 -0.4160  0.0680  0.6007
16125TIP3    H169866   5.843   0.711   0.194 -1.1401 -0.7725  1.0394
16125TIP3    H269867   5.862   0.725   0.044  0.4565 -1.1878  1.1799
16126TIP3   OH269868   4.298   1.869  15.235 -0.1227  0.5151  0.4583
16126TIP3    H169869   4.231   1.929  15.266 -0.7389 -0.4304  0.9824
16126TIP3    H269870   4.294   1.795  15.294  1.4561  0.4702  0.5614
16127TIP3   OH269871   5.043   5.402   4.800 -0.6342  0.0826  0.2414
16127TIP3    H169872   5.117   5.399   4.861  0.3927 -0.2608 -0.9747
16127TIP3    H269873   5.030   5.495   4.783 -0.4252  0.1415  0.3973
16128TIP3   OH269874   4.918   3.634   3.262  0.4678 -0.3118 -0.4382
16128TIP3    H169875   4.883   3.665   3.345  0.4158 -0.5804 -0.3592
16128TIP3    H269876   4.888   3.543   3.256  1.2016 -0.5677 -0.3320
16129TIP3   OH269877   2.407   6.502  13.865 -0.6022 -0.5678  0.2024
16129TIP3    H169878   2.466   6.533  13.934 -0.1487  0.1214 -0.4731
16129TIP3    H269879   2.451   6.424  13.830  0.1380  0.1615 -0.5571
16130TIP3   OH269880   5.073   4.901   4.657  0.0599 -0.1031 -0.3936
16130TIP3    H169881   5.025   4.856   4.726  1.9735 -2.1998 -0.3334
16130TIP3    H269882   5.006   4.924   4.592 -1.3146 -0.8572  0.7163
16131TIP3   OH269883   0.661   2.096  11.604 -0.7240 -0.0604 -0.2939
16131TIP3    H169884   0.606   2.106  11.681  0.2029  1.4033  0.2191
16131TIP3    H269885   0.727   2.031  11.630  0.4813  1.5019  0.7280
16132TIP3   OH269886   6.230   5.080   1.474 -0.1420 -0.3873 -0.1193
16132TIP3    H169887   6.234   5.106   1.566 -0.5685 -0.8009  0.0175
16132TIP3    H269888   6.142   5.104   1.445 -0.4165 -1.3235 -0.0908
16133TIP3   OH269889   1.864   6.821   1.530  0.1766 -0.2217 -0.2429
16133TIP3    H169890   1.776   6.798   1.499 -0.0585 -0.9006  0.8871
16133TIP3    H269891   1.876   6.912   1.500  0.0214 -0.8465 -2.3623
16134TIP3   OH269892   0.848   2.112   5.568  0.0257 -0.0530 -0.5476
16134TIP3    H169893   0.830   2.194   5.522 -2.4192 -1.1087 -1.6677
16134TIP3    H269894   0.806   2.122   5.653 -0.0259 -0.0329 -0.5754
16135TIP3   OH269895   3.039   3.667  11.327  0.0605 -0.7678  0.3994
16135TIP3    H169896   3.029   3.649  11.234  2.1918 -0.5508  0.0842
16135TIP3    H269897   3.125   3.709  11.335  0.2520 -1.4325  2.5321
16136TIP3   OH269898   6.543   2.377  12.323 -0.4738  0.5635 -0.3147
16136TIP3    H169899   6.454   2.349  12.301 -0.0446 -0.9868 -0.1894
16136TIP3    H269900   6.547   2.373  12.418  0.2494 -1.1192 -0.3953
16137TIP3   OH269901   3.895   1.627   2.085  0.7796  0.7451 -0.6279
16137TIP3    H169902   3.872   1.665   2.000  1.0906  1.9875 -0.1803
16137TIP3    H269903   3.953   1.553   2.063  1.4092  1.4620 -1.4720
16138TIP3   OH269904   1.265   4.633   0.072 -0.4742  0.1436 -0.0653
16138TIP3    H169905   1.266   4.580  -0.007 -0.2668 -0.0858  0.0908
16138TIP3    H269906   1.188   4.604   0.120  0.1048 -0.6170  0.4221
16139TIP3   OH269907   4.290   2.361  12.084 -0.0788  0.4302  0.1988
16139TIP3    H169908   4.341   2.398  12.156 -0.1621  0.1802  0.3912
16139TIP3    H269909   4.347   2.294  12.046 -1.0752 -1.5119  1.8960
16140TIP3   OH269910   4.453   6.697   2.559  0.5099  0.5579  0.9844
16140TIP3    H169911   4.464   6.603   2.572 -1.7944  0.2596  1.2153
16140TIP3    H269912   4.430   6.707   2.467 -3.4177  0.3111  1.7713
16141TIP3   OH269913   5.335   5.924   1.493 -0.1422 -0.2544  0.2663
16141TIP3    H169914   5.285   5.952   1.569 -0.9874 -1.0401  0.0318
16141TIP3    H269915   5.269   5.912   1.424  0.8340  2.6403 -1.3144
16142TIP3   OH269916   2.594   2.706   2.570  0.1471 -1.2534 -0.0034
16142TIP3    H169917   2.563   2.675   2.485 -0.4388 -1.0568  0.1357
16142TIP3    H269918   2.576   2.634   2.630 -2.6280 -0.1562  0.6296
16143TIP3   OH269919   3.707   3.162   1.328 -0.4545 -0.5186 -0.0567
16143TIP3    H169920   3.726   3.127   1.415 -0.5759 -0.0084  0.1776
16143TIP3    H269921   3.612   3.161   1.322 -0.4466 -0.5372 -0.1811
16144TIP3   OH269922   3.412   5.572   1.552 -0.3312 -0.5259  0.1723
16144TIP3    H169923   3.413   5.631   1.476 -1.2213 -1.6810 -0.7792
16144TIP3    H269924   3.336   5.516   1.537 -0.4413 -0.8694  1.8722
16145TIP3   OH269925   3.227   1.463   2.648  0.2853  0.0174  0.4581
16145TIP3    H169926   3.260   1.470   2.559  1.1591 -1.4970  0.6275
16145TIP3    H269927   3.132   1.472   2.640  0.4225  0.6008 -0.5278
16146TIP3   OH269928   3.459   0.861  14.337 -0.2043 -0.2724 -0.0582
16146TIP3    H169929   3.380   0.861  14.283  0.3166 -0.7308 -0.8291
16146TIP3    H269930   3.429   0.892  14.422 -0.9921  0.7648 -0.6770
16147TIP3   OH269931   6.384   1.952  12.492  0.1352  0.6967 -0.6162
16147TIP3    H169932   6.451   2.007  12.532 -0.3900  0.5530  0.4910
16147TIP3    H269933   6.434   1.890  12.439  1.1916 -1.2954  2.4254
16148TIP3   OH269934   2.377   0.987  11.064  0.1175  0.8060 -0.1019
16148TIP3    H169935   2.329   1.053  11.013  0.8643  1.0827 -0.4607
16148TIP3    H269936   2.444   0.955  11.004 -0.2941 -0.3662  0.0345
16149TIP3   OH269937   5.134   1.657  11.814 -0.2296  0.0457  0.5514
16149TIP3    H169938   5.112   1.750  11.809 -0.9316 -0.1686 -1.1460
16149TIP3    H269939   5.214   1.649  11.761  0.4118 -0.1803  1.5218
16150TIP3   OH269940   3.395   1.572   2.920  0.0043 -0.5033  0.4837
16150TIP3    H169941   3.358   1.576   3.008 -0.9355 -1.9214  0.1820
16150TIP3    H269942   3.340   1.509   2.874 -0.0142  0.7921 -1.3560
16151TIP3   OH269943   5.212   4.300  15.571 -0.1828  0.0149 -0.0706
16151TIP3    H169944   5.262   4.368  15.526  0.1764  0.5586  1.1264
16151TIP3    H269945   5.277   4.250  15.620 -0.5565 -0.6474 -0.2274
16152TIP3   OH269946   1.985   4.524   4.347  0.1432  0.2114  0.3736
16152TIP3    H169947   1.930   4.467   4.401 -0.6607 -2.1611 -2.6902
16152TIP3    H269948   2.052   4.556   4.408 -1.7448 -0.7166  3.1532
16153TIP3   OH269949   0.217   3.734   1.469  0.3791  0.9870 -0.0560
16153TIP3    H169950   0.125   3.760   1.475  0.4260  0.8206  1.9250
16153TIP3    H269951   0.215   3.638   1.465  0.4645  0.8629  1.7660
16154TIP3   OH269952   5.529   6.517  11.219 -0.7266 -0.7165 -0.1482
16154TIP3    H169953   5.509   6.539  11.128  1.9357  1.2054 -0.3727
16154TIP3    H269954   5.459   6.557  11.270 -1.1132 -0.0066 -1.2158
16155TIP3   OH269955   3.303   5.836   1.939  0.0155 -0.1198 -0.1005
16155TIP3    H169956   3.252   5.914   1.918 -0.2647  0.5118  2.5236
16155TIP3    H269957   3.392   5.868   1.953 -0.1359 -0.1754  1.1682
16156TIP3   OH269958   4.066   1.740   4.352  0.2168  0.1688  0.1916
16156TIP3    H169959   4.079   1.830   4.323 -0.7614  0.4065  0.4396
16156TIP3    H269960   4.069   1.687   4.272 -0.3179  0.5586 -0.0865
16157TIP3   OH269961   1.594   1.657   1.217 -0.0931 -0.4124 -0.0310
16157TIP3    H169962   1.510   1.611   1.223  0.6572 -1.7514  0.5237
16157TIP3    H269963   1.586   1.730   1.279 -1.4166  0.4334 -1.1603
16158TIP3   OH269964   2.407   3.737  13.045  0.2588 -0.0240  0.1778
16158TIP3    H169965   2.364   3.694  13.119  1.4578 -0.2707  0.7630
16158TIP3    H269966   2.360   3.819  13.033  0.1045  0.0639  1.2936
16159TIP3   OH269967   6.729   0.645  16.239 -0.1274  0.0749 -0.6813
16159TIP3    H169968   6.742   0.646  16.144  0.3039  0.5910 -0.6191
16159TIP3    H269969   6.674   0.568  16.254  0.8799 -0.7792 -1.2086
16160TIP3   OH269970   3.060   1.502   0.224  0.3706 -0.4458 -0.0598
16160TIP3    H169971   2.987   1.560   0.242  1.0400  0.2643  0.4428
16160TIP3    H269972   3.138   1.557   0.237  1.0582 -1.6879  1.4147
16161TIP3   OH269973   1.223   5.402   3.785 -0.0009 -0.0922 -1.1041
16161TIP3    H169974   1.196   5.414   3.694  2.4590  0.7052 -1.7968
16161TIP3    H269975   1.310   5.363   3.780  0.1628 -0.1029  0.9065
16162TIP3   OH269976   0.691   1.322   2.926 -0.5718  0.2148 -0.4569
16162TIP3    H169977   0.666   1.389   2.862  0.6715  0.6378 -0.5305
16162TIP3    H269978   0.690   1.367   3.010 -3.2019 -0.5901  0.0334
16163TIP3   OH269979   2.391   0.119   2.444 -0.0550  0.1728  0.3038
16163TIP3    H169980   2.358   0.183   2.381 -0.3671  0.6976  0.9885
16163TIP3    H269981   2.430   0.050   2.390 -0.8032  0.3443 -0.4758
16164TIP3   OH269982   0.434   1.017   0.179 -0.2349  0.6536 -0.0361
16164TIP3    H169983   0.372   0.944   0.172 -0.6807  0.9915  0.3048
16164TIP3    H269984   0.464   1.032   0.089  2.0934 -1.8170  0.2330
16165TIP3   OH269985   0.597   6.002   1.261  0.3165  0.0586 -0.1709
16165TIP3    H169986   0.526   5.939   1.246  0.7786 -0.5806  0.2760
16165TIP3    H269987   0.591   6.062   1.186 -0.4371 -0.2250 -0.3533
16166TIP3   OH269988   1.383   5.215   1.862 -0.0259  1.0195 -0.0096
16166TIP3    H169989   1.300   5.197   1.907  0.3538 -0.8084  0.0448
16166TIP3    H269990   1.357   5.254   1.779 -1.0703 -0.7739 -0.5963
16167TIP3   OH269991   6.357   6.403   0.339 -0.0606  0.0237 -0.0776
16167TIP3    H169992   6.293   6.334   0.351 -0.2330  0.0826 -0.6286
16167TIP3    H269993   6.365   6.444   0.425  0.8066 -1.3297  0.5147
16168TIP3   OH269994   0.917   3.532  14.017  0.1876 -0.1034  0.0772
16168TIP3    H169995   0.921   3.613  14.067 -0.8421 -1.0885  1.8286
16168TIP3    H269996   0.991   3.480  14.048  0.2959 -0.2129 -0.3559
16169TIP3   OH269997   4.659   0.939   3.946 -0.2393 -0.3603 -0.3928
16169TIP3    H169998   4.604   0.869   3.909 -0.6932 -0.5733  0.6681
16169TIP3    H269999   4.618   0.960   4.029  1.6533 -1.0038  0.7645
16170TIP3   OH270000   0.815   6.682   1.515  0.0440  0.3889 -0.6886
16170TIP3    H170001   0.900   6.671   1.558 -0.8185  0.5432  1.1799
16170TIP3    H270002   0.792   6.773   1.529 -0.3204  0.4200 -1.4233
16171TIP3   OH270003   3.372   0.493   4.915 -0.3571  0.6476  0.2498
16171TIP3    H170004   3.364   0.588   4.920  0.0080  0.6148  2.6391
16171TIP3    H270005   3.464   0.475   4.937 -0.8526 -0.3139  1.6916
16172TIP3   OH270006   2.497   0.439   2.376  0.0214 -0.1980 -0.3067
16172TIP3    H170007   2.458   0.475   2.455  2.2815 -0.5555  1.0713
16172TIP3    H270008   2.423   0.409   2.323 -1.6297  1.4409  0.9503
16173TIP3   OH270009   1.168   4.250  15.866  0.3587  0.2789  0.1516
16173TIP3    H170010   1.205   4.303  15.937 -1.0926 -0.6759  1.6781
16173TIP3    H270011   1.139   4.170  15.908  0.4945 -0.8174 -1.7470
16174TIP3   OH270012   5.729   6.667   4.666 -0.0159  0.3971  0.0566
16174TIP3    H170013   5.727   6.701   4.755 -1.1175  2.7126 -0.7820
16174TIP3    H270014   5.780   6.731   4.617 -0.0195 -0.4820 -1.1271
16175TIP3   OH270015   5.590   2.368  12.001  0.1260  0.5537 -0.5144
16175TIP3    H170016   5.616   2.451  12.042  1.2579  0.7301 -1.5320
16175TIP3    H270017   5.666   2.342  11.949 -0.4764 -0.7708 -0.7846
16176TIP3   OH270018   1.817   6.347  16.436 -0.2248 -0.0563  0.1407
16176TIP3    H170019   1.855   6.278  16.381  2.6315 -0.2709  2.1591
16176TIP3    H270020   1.741   6.306  16.477 -0.2905 -1.0340 -0.8927
16177TIP3   OH270021   2.944   3.248   4.293  0.5244 -0.3974 -0.6097
16177TIP3    H170022   2.893   3.170   4.270 -1.3613  0.5124  0.3085
16177TIP3    H270023   3.034   3.216   4.300 -0.0751 -2.3188 -1.0748
16178TIP3   OH270024   0.741   0.803  10.651 -0.2158  0.3416  0.1462
16178TIP3    H170025   0.820   0.766  10.613  0.5821  1.1627  0.9688
16178TIP3    H270026   0.669   0.754  10.610  0.5943  0.9602 -2.1555
16179TIP3   OH270027   2.998   2.277  13.993  0.3826  0.4163  0.4384
16179TIP3    H170028   3.010   2.371  13.978  1.2484  0.0454 -1.5398
16179TIP3    H270029   3.062   2.255  14.060 -0.6960  1.4290  1.8671
16180TIP3   OH270030   5.007   2.235   0.125  0.3844 -0.0469 -0.3754
16180TIP3    H170031   4.964   2.264   0.206 -0.3222 -1.6864 -0.1267
16180TIP3    H270032   4.989   2.304   0.062 -1.5863 -0.0932  0.0677
16181TIP3   OH270033   1.004   1.999  13.928 -0.3487 -0.1198  0.0983
16181TIP3    H170034   1.076   2.004  13.865  1.4942 -1.2357  2.0031
16181TIP3    H270035   1.001   2.086  13.967  0.2415 -0.1748  0.2794
16182TIP3   OH270036   5.273   5.293  16.378 -0.0144 -0.5681 -0.7093
16182TIP3    H170037   5.286   5.198  16.380 -0.2226 -0.5944  0.6063
16182TIP3    H270038   5.253   5.316  16.469  1.2567  0.9122 -0.7749
16183TIP3   OH270039   5.465   2.177  10.628  0.0123 -0.5506  0.2215
16183TIP3    H170040   5.410   2.247  10.664  0.6325  0.2579 -0.3598
16183TIP3    H270041   5.554   2.205  10.647  0.2532 -1.5586  0.6343
16184TIP3   OH270042   1.080   5.412   5.325 -0.3257  0.1259 -0.0553
16184TIP3    H170043   1.125   5.328   5.318 -1.6624 -0.5324 -1.5108
16184TIP3    H270044   1.149   5.475   5.346  0.9141 -1.1442 -0.1618
16185TIP3   OH270045   5.375   6.702   1.441  0.1246  0.4968 -0.5066
16185TIP3    H170046   5.318   6.774   1.469  0.8222  0.7919  0.2034
16185TIP3    H270047   5.363   6.697   1.346  0.4484  1.9022 -0.6420
16186TIP3   OH270048   5.800   6.415   0.235 -0.0160 -0.3203 -0.4520
16186TIP3    H170049   5.869   6.482   0.240  1.1983 -1.5817  0.3828
16186TIP3    H270050   5.720   6.465   0.222  1.1803  1.1288 -3.0007
16187TIP3   OH270051   3.928   5.941  13.382 -0.4703  0.0630  0.1900
16187TIP3    H170052   3.861   5.947  13.314 -0.5576  0.6733  0.3220
16187TIP3    H270053   3.980   5.865  13.357 -1.5223 -0.7491  0.3684
16188TIP3   OH270054   2.908   2.151   3.086  0.1805  0.3601 -0.2544
16188TIP3    H170055   2.919   2.146   3.181 -2.1403  1.8332  0.1956
16188TIP3    H270056   2.991   2.120   3.050  0.6881 -1.4592  2.2068
16189TIP3   OH270057   0.359   3.516   5.994  0.0849  0.4582 -0.1682
16189TIP3    H170058   0.396   3.490   6.078 -0.1306  0.3242 -0.1132
16189TIP3    H270059   0.346   3.611   6.001  1.1043  0.6289 -0.4572
16190TIP3   OH270060   4.439   3.965   3.968  0.1185 -0.6557  0.0678
16190TIP3    H170061   4.415   3.944   3.878  2.0059  0.8989 -0.8577
16190TIP3    H270062   4.355   3.987   4.010 -0.5310  2.0205 -2.2962
16191TIP3   OH270063   3.955   6.508   3.959  0.3797 -0.9153  0.3962
16191TIP3    H170064   3.936   6.578   4.021  0.4561 -0.6770  0.1581
16191TIP3    H270065   4.050   6.497   3.964  0.8473  1.1695 -1.7833
16192TIP3   OH270066   0.115   4.359   3.733  0.4302  0.1136  0.8474
16192TIP3    H170067   0.151   4.374   3.646 -2.0315 -1.5933 -0.5903
16192TIP3    H270068   0.055   4.432   3.747  1.5605  0.9219  1.5838
16193TIP3   OH270069   2.648   0.344   3.787 -0.0375 -0.4637  0.6198
16193TIP3    H170070   2.608   0.324   3.702 -0.1723  1.4279  0.2014
16193TIP3    H270071   2.688   0.261   3.814  0.4587 -0.9915 -1.5291
16194TIP3   OH270072   2.594   3.258   0.250 -0.4472  0.5953  0.0262
16194TIP3    H170073   2.535   3.187   0.275 -0.5464  1.1645  1.5338
16194TIP3    H270074   2.537   3.334   0.241 -0.0819  0.9197  0.4240
16195TIP3   OH270075   4.074   5.418   2.878  0.1695 -0.0457  0.0856
16195TIP3    H170076   4.118   5.441   2.960 -0.2076 -0.9006  0.5350
16195TIP3    H270077   4.130   5.455   2.810  0.6815  0.3518  0.7100
16196TIP3   OH270078   1.233   3.807   6.113 -0.5926  0.0665 -0.3451
16196TIP3    H170079   1.317   3.762   6.114  1.2683  3.2096 -0.0484
16196TIP3    H270080   1.191   3.783   6.196 -0.0359 -1.5497 -0.5053
16197TIP3   OH270081   2.580   2.965  12.101 -0.4405 -0.0482 -0.1318
16197TIP3    H170082   2.544   2.892  12.052 -1.5834  0.1756  0.3583
16197TIP3    H270083   2.625   3.019  12.035 -2.2513  0.4427 -1.0179
16198TIP3   OH270084   3.565   3.212  16.118 -0.0899 -0.0467 -0.5885
16198TIP3    H170085   3.473   3.234  16.129 -0.3688 -0.5442 -1.7472
16198TIP3    H270086   3.601   3.213  16.207 -1.5990 -1.5682  0.0986
16199TIP3   OH270087   3.946   5.202   5.367 -0.0685  0.5868 -0.4767
16199TIP3    H170088   4.015   5.136   5.373 -0.1558  0.5201 -0.2157
16199TIP3    H270089   3.883   5.166   5.305  0.9814  1.4086 -2.1182
16200TIP3   OH270090   1.789   1.281   3.449  0.5752  0.2251 -0.2685
16200TIP3    H170091   1.763   1.299   3.540 -0.0858  2.4576 -0.8315
16200TIP3    H270092   1.849   1.206   3.455 -0.1350 -0.2422  1.8934
16201TIP3   OH270093   3.087   6.819  14.883  0.0313 -0.8212  0.2220
16201TIP3    H170094   3.100   6.807  14.789  1.6995  3.4890 -0.3231
16201TIP3    H270095   3.007   6.770  14.902 -0.9562 -1.0622 -3.6461
16202TIP3   OH270096   4.616   2.730  12.829 -0.3257  0.2798  0.4948
16202TIP3    H170097   4.663   2.782  12.764 -0.0883 -0.1712  0.3040
16202TIP3    H270098   4.525   2.731  12.800 -0.2980  0.4637  0.4105
16203TIP3   OH270099   5.263   5.731  13.115  0.2939 -0.3019 -0.3154
16203TIP3    H170100   5.201   5.763  13.180 -0.0230 -0.8699 -0.3356
16203TIP3    H270101   5.286   5.809  13.063  1.0595  0.3031  0.8747
16204TIP3   OH270102   4.003   0.699  15.287  0.3351 -0.4317  0.2453
16204TIP3    H170103   3.928   0.748  15.319  0.4724 -0.6367  0.8978
16204TIP3    H270104   3.966   0.620  15.249  0.1425 -0.0197 -0.4290
16205TIP3   OH270105   2.813   3.855  14.720  0.3547 -0.0041 -0.7035
16205TIP3    H170106   2.863   3.819  14.793 -0.4692  0.5632  0.1717
16205TIP3    H270107   2.866   3.928  14.687  1.1543 -0.8322 -1.2787
16206TIP3   OH270108   3.264   6.333  14.428  0.1512 -0.0680 -0.5249
16206TIP3    H170109   3.214   6.259  14.392 -0.4785  0.7108 -1.3147
16206TIP3    H270110   3.354   6.315  14.403  0.2139 -1.2454  0.4776
16207TIP3   OH270111   6.279   2.347   1.338 -0.2777 -0.0790 -0.1269
16207TIP3    H170112   6.284   2.393   1.254 -1.1289  0.3479  0.0444
16207TIP3    H270113   6.342   2.276   1.330 -0.4467 -0.1329 -1.1878
16208TIP3   OH270114   3.396   6.274  10.386 -0.0093 -0.2399  0.0817
16208TIP3    H170115   3.365   6.342  10.326  0.3223  0.0818  0.2774
16208TIP3    H270116   3.335   6.201  10.371  0.0368 -0.1491 -0.6130
16209TIP3   OH270117   3.228   5.768   6.207 -0.2049  0.1553 -0.4665
16209TIP3    H170118   3.214   5.859   6.182  0.7422  0.9860  1.7583
16209TIP3    H270119   3.316   5.747   6.174 -0.9709 -0.5003 -2.2499
16210TIP3   OH270120   3.510   3.909   2.711  0.2994  0.3107 -0.3742
16210TIP3    H170121   3.445   3.949   2.653  1.3421  2.3409 -0.2322
16210TIP3    H270122   3.577   3.876   2.651  0.5075  0.7948 -0.4133
16211TIP3   OH270123   1.959   6.304   4.433 -0.2403 -0.0045 -0.5759
16211TIP3    H170124   2.029   6.343   4.381  0.6765  0.7139  1.1153
16211TIP3    H270125   1.982   6.325   4.523 -1.1385 -2.2099  0.2255
16212TIP3   OH270126   0.406   5.554  14.959  0.4637  0.2261  0.2196
16212TIP3    H170127   0.353   5.478  14.981 -1.0618  1.3265  0.4784
16212TIP3    H270128   0.479   5.552  15.021 -0.6876  0.1166  1.6190
16213TIP3   OH270129   6.360   3.613  11.839 -0.0901  0.3958  0.2390
16213TIP3    H170130   6.368   3.587  11.931  0.2875 -0.0026  0.0943
16213TIP3    H270131   6.343   3.531  11.792  1.5457  0.3204 -0.2732
16214TIP3   OH270132   2.475   6.600   1.576 -0.2378 -0.1640  0.3596
16214TIP3    H170133   2.428   6.682   1.560 -0.0998  0.1392  1.4125
16214TIP3    H270134   2.528   6.618   1.654  1.0559 -0.7357 -0.3469
16215TIP3   OH270135   3.301   2.395  15.775 -0.5107 -0.4070 -0.1403
16215TIP3    H170136   3.244   2.431  15.707  0.8621  1.3282 -0.4292
16215TIP3    H270137   3.315   2.304  15.749 -1.1561 -0.1631 -1.3918
16216TIP3   OH270138   1.622   0.738  14.029 -0.1729 -0.0036  0.1812
16216TIP3    H170139   1.716   0.728  14.017 -0.1785 -1.2710  0.9748
16216TIP3    H270140   1.611   0.829  14.056  0.6437  0.5759 -1.3100
16217TIP3   OH270141   1.958   5.301   6.408  0.1221  0.3699  0.2444
16217TIP3    H170142   1.954   5.292   6.313 -0.5825  0.6446  0.2393
16217TIP3    H270143   1.909   5.381   6.427 -0.9835 -0.4403  0.9368
16218TIP3   OH270144   0.439   3.133   2.538 -0.4216 -0.0691  0.1827
16218TIP3    H170145   0.353   3.098   2.514  0.7082 -2.0791 -1.2426
16218TIP3    H270146   0.423   3.226   2.555 -2.6968 -0.1586 -1.0374
16219TIP3   OH270147   1.877   0.530  12.737 -0.3097  0.6401 -0.4361
16219TIP3    H170148   1.970   0.536  12.758  0.3266  1.7845 -3.1742
16219TIP3    H270149   1.834   0.584  12.804  1.6516  4.9151 -2.2826
16220TIP3   OH270150   5.249   3.862   1.197  0.4552  0.2381 -0.0660
16220TIP3    H170151   5.207   3.935   1.150  2.5960  1.9526  0.5293
16220TIP3    H270152   5.334   3.852   1.155  1.3618  0.0334  1.7138
16221TIP3   OH270153   5.183   6.510   6.271  0.3194 -0.1775 -0.1818
16221TIP3    H170154   5.135   6.568   6.329  1.1213  1.0540 -0.7223
16221TIP3    H270155   5.125   6.499   6.195  0.8376  1.2719 -0.8149
16222TIP3   OH270156   4.455   2.225  12.662  1.0774 -0.3191  0.0460
16222TIP3    H170157   4.489   2.298  12.610 -0.3228  0.5382  0.2921
16222TIP3    H270158   4.520   2.211  12.730  1.4966  0.5127 -0.1744
16223TIP3   OH270159   1.966   1.179   0.504  0.7314 -0.2656  0.2577
16223TIP3    H170160   2.061   1.168   0.506  0.9452  1.3600  1.8540
16223TIP3    H270161   1.941   1.155   0.415  2.6103 -0.8428 -0.1635
16224TIP3   OH270162   4.816   4.059   5.425 -0.3914  0.3595  0.1044
16224TIP3    H170163   4.882   4.014   5.372 -1.0671 -0.9692  0.3566
16224TIP3    H270164   4.818   4.014   5.509 -0.8353  1.0615  0.5031
16225TIP3   OH270165   2.130   2.513  14.841  0.1022  0.4585  0.4181
16225TIP3    H170166   2.094   2.443  14.787 -0.9845  1.2816  0.0470
16225TIP3    H270167   2.078   2.590  14.819  0.8988  1.2583  1.2393
16226TIP3   OH270168   5.492   4.440   1.569 -0.0162  0.3992  0.1087
16226TIP3    H170169   5.548   4.399   1.503 -2.2864 -0.4783 -1.4030
16226TIP3    H270170   5.432   4.495   1.518 -0.2406  1.6750  1.6991
16227TIP3   OH270171   2.314   6.802  16.294  0.8929 -0.2533  0.4266
16227TIP3    H170172   2.399   6.834  16.264  0.6039  0.4044  0.3093
16227TIP3    H270173   2.325   6.707  16.298  0.4876 -0.5852 -3.3309
16228TIP3   OH270174   5.640   2.544   1.167  0.2244 -0.1542 -0.3987
16228TIP3    H170175   5.547   2.538   1.187  0.3476  0.6246  0.4685
16228TIP3    H270176   5.651   2.630   1.127  0.7206  0.1697  0.4102
16229TIP3   OH270177   0.532   2.361  12.975 -0.7183 -0.3446  0.0989
16229TIP3    H170178   0.532   2.363  12.879  1.5331 -0.0338  0.0486
16229TIP3    H270179   0.555   2.271  12.997 -3.3529 -1.0196  0.4592
16230TIP3   OH270180   4.906   0.845   5.377 -0.1950  0.5146 -0.2848
16230TIP3    H170181   4.937   0.762   5.340  0.2310  1.0539 -1.1463
16230TIP3    H270182   4.811   0.836   5.378 -0.2099  0.4569 -1.4388
16231TIP3   OH270183   4.033   0.668  16.250  0.1822  0.2740  0.7500
16231TIP3    H170184   3.945   0.689  16.220 -0.4866 -0.1794  2.2946
16231TIP3    H270185   4.059   0.592  16.197 -0.8020 -0.2686  1.0155
16232TIP3   OH270186   2.930   2.526  15.227 -0.1895 -0.0380 -0.3417
16232TIP3    H170187   2.869   2.539  15.154  0.1353  1.2969 -0.4037
16232TIP3    H270188   2.894   2.452  15.276  0.0262 -1.5047 -2.2929
16233TIP3   OH270189   1.249   5.945  15.100 -0.1078 -0.3515 -0.4620
16233TIP3    H170190   1.216   6.031  15.076  1.2106  0.0833 -0.8039
16233TIP3    H270191   1.251   5.896  15.018 -0.5625 -0.6056 -0.3219
16234TIP3   OH270192   1.903   2.530  15.043 -0.0871  0.0572  0.1003
16234TIP3    H170193   1.915   2.555  14.951 -0.4039  0.9632  0.2878
16234TIP3    H270194   1.965   2.584  15.091  2.4749 -2.7522  0.1892
16235TIP3   OH270195   5.904   1.142  14.723  0.2350 -0.0374  0.2830
16235TIP3    H170196   5.934   1.150  14.633  0.3679  0.2799  0.3523
16235TIP3    H270197   5.964   1.078  14.762  2.4422  2.3198  1.0731
16236TIP3   OH270198   5.638   3.510  14.771 -0.2450  0.4650 -0.0267
16236TIP3    H170199   5.657   3.485  14.862 -0.9494  0.9210  0.2525
16236TIP3    H270200   5.546   3.534  14.771 -0.1471  0.8831 -0.7756
16237TIP3   OH270201   3.919   3.412   0.092 -0.4695  0.2144 -0.5388
16237TIP3    H170202   3.940   3.492   0.140 -0.7885 -1.2160  2.1857
16237TIP3    H270203   3.825   3.400   0.103 -0.2381 -1.1593  0.1740
16238TIP3   OH270204   0.328   1.029  16.994  0.2562 -0.3872  0.4369
16238TIP3    H170205   0.246   1.065  16.960  0.4986 -0.1743  0.0628
16238TIP3    H270206   0.343   0.949  16.942 -1.4593 -2.3871  2.7876
16239TIP3   OH270207   1.293   1.186   6.318 -0.4626 -0.5920 -0.3645
16239TIP3    H170208   1.204   1.170   6.287 -0.3686 -1.9044  0.0136
16239TIP3    H270209   1.348   1.131   6.262  0.0363 -0.3829 -0.0867
16240TIP3   OH270210   6.248   3.594   4.997 -0.2470 -0.1227  0.1904
16240TIP3    H170211   6.317   3.651   5.033 -0.7693 -0.4531  1.8195
16240TIP3    H270212   6.228   3.533   5.068 -2.0407 -0.2008 -0.3245
16241TIP3   OH270213   6.760   1.590   2.124 -1.1905 -0.5047 -0.2851
16241TIP3    H170214   6.754   1.503   2.084  0.4802 -0.5814 -0.4482
16241TIP3    H270215   6.744   1.574   2.217 -1.5592 -0.8776 -0.4087
16242TIP3   OH270216   3.290   5.033  13.994 -0.0416 -0.9639 -0.0665
16242TIP3    H170217   3.355   4.963  13.986  1.8028  0.8520 -2.0475
16242TIP3    H270218   3.340   5.109  14.021 -1.5796  0.1982 -0.3734
16243TIP3   OH270219   3.813   5.784   2.856 -0.0016  0.1833  0.1312
16243TIP3    H170220   3.874   5.725   2.900 -0.3351 -1.4789 -1.4985
16243TIP3    H270221   3.747   5.725   2.818  0.1180  1.4956 -2.3014
16244TIP3   OH270222   4.689   1.880  16.822 -0.2630  0.2697  0.2504
16244TIP3    H170223   4.599   1.886  16.791 -1.0737  0.5073  2.5145
16244TIP3    H270224   4.683   1.890  16.917  2.3528  2.4972  0.3111
16245TIP3   OH270225   1.536   6.026   0.890  0.1440 -0.6594 -0.4735
16245TIP3    H170226   1.573   5.966   0.955  0.2031  0.4047  0.4998
16245TIP3    H270227   1.609   6.046   0.831  1.5004  2.1005  1.9201
16246TIP3   OH270228   3.017   2.662  12.445  0.3825 -0.0582 -0.8033
16246TIP3    H170229   3.061   2.747  12.439 -0.8133  1.1555  3.6392
16246TIP3    H270230   3.075   2.609  12.500 -1.3589 -0.0290  1.1971
16247TIP3   OH270231   5.664   5.510  16.873  0.4588 -0.0213  0.1547
16247TIP3    H170232   5.735   5.470  16.824 -0.5807 -1.6724 -0.0772
16247TIP3    H270233   5.611   5.437  16.903 -0.8580  1.1323  0.7687
16248TIP3   OH270234   1.968   4.718  15.665 -0.3197 -0.2472  0.4025
16248TIP3    H170235   1.903   4.676  15.722  0.8026 -0.7549  1.3518
16248TIP3    H270236   2.036   4.750  15.725 -0.3583  1.5421 -0.4410
16249TIP3   OH270237   0.490   0.294   1.703  0.2279  0.3250  0.4064
16249TIP3    H170238   0.399   0.288   1.674  0.4792  2.9424 -1.3231
16249TIP3    H270239   0.490   0.258   1.791 -2.2604 -0.6524  0.0901
16250TIP3   OH270240   3.663   4.286  11.930  0.1262 -0.1396 -0.7822
16250TIP3    H170241   3.619   4.272  12.014  0.8947 -2.1965 -0.6525
16250TIP3    H270242   3.598   4.263  11.864 -0.1223  0.3939 -0.7308
16251TIP3   OH270243   6.817   1.021   5.234 -0.3194 -0.4424  0.7976
16251TIP3    H170244   6.886   1.087   5.229 -0.9023  0.1087 -0.2961
16251TIP3    H270245   6.839   0.968   5.311  1.7285 -0.7589  0.0331
16252TIP3   OH270246   4.779   0.506  14.992 -0.6896  0.3612 -0.1376
16252TIP3    H170247   4.800   0.597  14.971  1.9737 -0.9762 -4.7105
16252TIP3    H270248   4.856   0.474  15.039 -0.9621  0.0607  0.1066
16253TIP3   OH270249   4.724   4.236   3.848 -0.0083  0.1072  0.3055
16253TIP3    H170250   4.629   4.237   3.862 -0.1146  0.0975 -0.3917
16253TIP3    H270251   4.754   4.159   3.896 -0.1451  0.9174  1.7693
16254TIP3   OH270252   2.237   2.332   4.389  0.5469  0.2967  0.1529
16254TIP3    H170253   2.143   2.344   4.383  0.4133 -0.7514 -0.0008
16254TIP3    H270254   2.268   2.408   4.439 -0.7070 -0.6655  2.5334
16255TIP3   OH270255   1.095   1.345   0.349 -0.1413 -1.0492  0.6543
16255TIP3    H170256   1.163   1.373   0.412 -0.3123 -1.0888  0.8591
16255TIP3    H270257   1.033   1.296   0.402 -1.5556  0.9360  0.9444
16256TIP3   OH270258   0.755   6.381   3.172  0.3873  0.2247  0.4384
16256TIP3    H170259   0.737   6.305   3.227 -0.7083  1.1299  1.3770
16256TIP3    H270260   0.730   6.456   3.226 -0.9049  1.1550 -1.3464
16257TIP3   OH270261   6.389   3.941   3.319  1.1609  0.1390 -0.0342
16257TIP3    H170262   6.315   4.000   3.304 -0.7602 -2.0612  0.1272
16257TIP3    H270263   6.402   3.942   3.413  0.5186 -0.3196  0.0714
16258TIP3   OH270264   2.611   6.599   5.386 -0.0604  0.7584  0.3953
16258TIP3    H170265   2.557   6.668   5.345  1.1546  0.5843 -1.6446
16258TIP3    H270266   2.576   6.518   5.350  1.2939  0.6254 -0.6818
16259TIP3   OH270267   3.126   2.351  16.252 -0.0991 -0.4079  0.1732
16259TIP3    H170268   3.211   2.311  16.235  0.1273  0.5393 -1.0599
16259TIP3    H270269   3.095   2.378  16.165 -0.7876  0.9853  0.8216
16260TIP3   OH270270   2.592   4.664  11.862 -0.0625  0.0670 -0.2435
16260TIP3    H170271   2.670   4.682  11.810  0.0945  0.0012 -0.0333
16260TIP3    H270272   2.617   4.689  11.952 -0.9341  2.0104 -0.4801
16261TIP3   OH270273   3.793   1.342  15.229 -0.2441 -0.6960 -0.8782
16261TIP3    H170274   3.778   1.434  15.207 -0.9124 -1.0542 -2.0099
16261TIP3    H270275   3.708   1.300  15.215 -0.5099 -1.1421  1.6576
16262TIP3   OH270276   6.470   3.809  11.652  0.2497  0.0890 -0.0943
16262TIP3    H170277   6.500   3.770  11.570 -1.1657  1.3207 -1.2553
16262TIP3    H270278   6.459   3.734  11.711  0.6181 -0.9123 -1.2475
16263TIP3   OH270279   0.263   5.205   0.478 -0.1836 -0.3807  0.4640
16263TIP3    H170280   0.319   5.276   0.445  1.3797 -1.9076 -0.3167
16263TIP3    H270281   0.254   5.146   0.404  1.0615 -2.4895  1.9009
16264TIP3   OH270282   5.400   0.630   6.326 -0.3253  0.1236 -0.1872
16264TIP3    H170283   5.482   0.589   6.353  0.0157  2.0791  2.0823
16264TIP3    H270284   5.418   0.665   6.238  0.7486 -0.7675 -0.3419
16265TIP3   OH270285   5.141   6.703   1.024  0.4200 -1.0744 -0.6026
16265TIP3    H170286   5.154   6.610   1.041  1.3593 -0.9703 -0.6598
16265TIP3    H270287   5.064   6.727   1.076  1.2762 -1.4834  0.9259
16266TIP3   OH270288   6.826   6.695   0.697 -0.2804 -0.2302  0.6568
16266TIP3    H170289   6.765   6.656   0.760 -0.4040  0.0706  0.7252
16266TIP3    H270290   6.896   6.732   0.751 -0.8394  0.8337  0.6902
16267TIP3   OH270291   4.668   0.003   2.687  0.0218  0.4413 -0.1581
16267TIP3    H170292   4.592  -0.024   2.635  0.0539  1.6629 -0.8674
16267TIP3    H270293   4.632   0.059   2.755  0.2421  0.6799 -0.2374
16268TIP3   OH270294   2.548   1.180   5.603  0.1158 -0.2294  0.0316
16268TIP3    H170295   2.588   1.248   5.549  1.3455 -0.6493  0.3711
16268TIP3    H270296   2.610   1.167   5.675 -0.4712 -1.1631  0.3927
16269TIP3   OH270297   0.971   5.170  11.837 -0.1750 -0.1078 -0.0965
16269TIP3    H170298   0.951   5.140  11.925 -1.4511 -0.3816 -0.4629
16269TIP3    H270299   0.919   5.249  11.825  1.2052  0.8508 -0.0589
16270TIP3   OH270300   4.265   2.100   1.192 -0.4490 -0.5676  0.6689
16270TIP3    H170301   4.288   2.110   1.100  1.2258  0.0371  1.1206
16270TIP3    H270302   4.196   2.165   1.207 -0.7201 -0.6588 -0.1437
16271TIP3   OH270303   1.799   5.551   6.188 -0.4457 -0.3773 -0.0897
16271TIP3    H170304   1.865   5.482   6.181  0.2872  0.4383 -1.6844
16271TIP3    H270305   1.776   5.552   6.281  2.0138 -0.4776  0.5988
16272TIP3   OH270306   6.827   3.438  11.374 -0.4733 -0.2148  0.2981
16272TIP3    H170307   6.736   3.426  11.346 -0.4104  0.2752 -0.1179
16272TIP3    H270308   6.821   3.456  11.468 -0.7450 -0.9849  0.4322
16273TIP3   OH270309   3.135   5.395  13.975 -0.6136  0.1010  0.8297
16273TIP3    H170310   3.052   5.356  14.000 -0.2136 -0.7230  0.9001
16273TIP3    H270311   3.124   5.489  13.993 -1.3303 -0.0742  1.3348
16274TIP3   OH270312   4.995   4.284   1.602  0.1751 -0.1469 -0.1246
16274TIP3    H170313   4.925   4.349   1.589 -2.2430 -2.6431 -0.4076
16274TIP3    H270314   5.017   4.255   1.514  0.2884 -0.6287  0.0588
16275TIP3   OH270315   2.533   3.985   5.097  0.1753  0.4645  0.4052
16275TIP3    H170316   2.560   3.965   5.186 -0.5731  0.3941  0.6198
16275TIP3    H270317   2.439   3.965   5.095  0.2185  0.3021 -0.4398
16276TIP3   OH270318   3.452   0.994  10.562  0.2662  0.5066  0.0814
16276TIP3    H170319   3.517   1.042  10.614  1.0915 -0.5915  0.0962
16276TIP3    H270320   3.406   1.062  10.513  0.8258  1.3873  0.7385
16277TIP3   OH270321   3.513   2.814   5.871  0.2023  0.0211 -0.0680
16277TIP3    H170322   3.513   2.878   5.800  1.2537  0.3018  0.1684
16277TIP3    H270323   3.422   2.809   5.899  0.2926  2.5953  0.9548
16278TIP3   OH270324   5.184   6.108   5.983 -0.7672  0.0194  0.2543
16278TIP3    H170325   5.145   6.117   6.070 -0.1621 -0.5168  0.5884
16278TIP3    H270326   5.251   6.040   5.993 -0.2968  0.3583 -0.4994
16279TIP3   OH270327   5.817   4.300  10.567 -0.0279 -0.2954  0.5265
16279TIP3    H170328   5.883   4.237  10.597 -0.0217 -0.6576 -0.2277
16279TIP3    H270329   5.741   4.246  10.545 -0.3269  0.0494  0.7103
16280TIP3   OH270330   1.037   5.712   5.838 -0.2653 -0.0524  0.1382
16280TIP3    H170331   1.125   5.682   5.818 -0.4539 -1.2749  0.9967
16280TIP3    H270332   1.045   5.754   5.924 -0.5136 -0.1236  0.1966
16281TIP3   OH270333   5.880   3.772   0.597 -0.0892  0.0672 -0.2634
16281TIP3    H170334   5.883   3.839   0.666  0.0463 -0.7865  0.5766
16281TIP3    H270335   5.827   3.701   0.635  0.8777 -0.8669 -0.6149
16282TIP3   OH270336   1.811   1.087   5.283 -0.0340 -0.4157  0.4469
16282TIP3    H170337   1.729   1.082   5.233 -0.0411 -1.8240  0.5502
16282TIP3    H270338   1.789   1.140   5.360 -0.6493 -0.1639  0.1032
16283TIP3   OH270339   3.238   1.010   5.935 -0.0407  0.2551 -0.5611
16283TIP3    H170340   3.321   1.016   5.888  0.8073  4.0428  1.0362
16283TIP3    H270341   3.258   0.956   6.011 -0.4337 -2.7821 -2.4774
16284TIP3   OH270342   3.047   0.149   1.597 -0.1419  0.0912  0.3117
16284TIP3    H170343   3.130   0.101   1.604 -0.8243 -1.0478  0.8815
16284TIP3    H270344   3.045   0.180   1.506  1.2752  0.8620  0.5114
16285TIP3   OH270345   4.087   4.929   1.682  0.2346  0.0041  0.7782
16285TIP3    H170346   4.132   4.957   1.602 -0.0643 -0.3606  0.4832
16285TIP3    H270347   4.028   4.859   1.654 -1.3968  1.2697  0.9584
16286TIP3   OH270348   6.281   2.273  16.166 -0.1388 -0.1522 -0.0952
16286TIP3    H170349   6.203   2.273  16.222 -0.3183  1.6807 -0.2740
16286TIP3    H270350   6.334   2.346  16.200  1.9212 -1.8297  0.5490
16287TIP3   OH270351   6.750   3.759   1.020 -0.5751 -0.2704  0.3344
16287TIP3    H170352   6.797   3.727   0.943 -0.5476  0.8888 -0.1424
16287TIP3    H270353   6.660   3.726   1.008 -0.6359  0.1240 -0.3319
16288TIP3   OH270354   5.419   3.868   2.193 -0.4349  0.5746 -0.1787
16288TIP3    H170355   5.502   3.865   2.146 -0.9042  1.0009 -1.0582
16288TIP3    H270356   5.442   3.854   2.285  0.3836 -1.4694 -0.6487
16289TIP3   OH270357   5.832   1.780   5.243 -0.0826 -0.0443  0.1141
16289TIP3    H170358   5.909   1.827   5.211 -0.8030  1.5625  0.6509
16289TIP3    H270359   5.760   1.841   5.230 -1.0265 -0.9204  1.0722
16290TIP3   OH270360   4.496   0.976  14.443  0.5648  0.4964  0.3167
16290TIP3    H170361   4.532   0.918  14.376  1.8353 -0.5728  1.8207
16290TIP3    H270362   4.491   1.062  14.401  1.5571 -0.0783 -1.0658
16291TIP3   OH270363   2.783   5.888  11.091  0.1503 -0.3088  0.1061
16291TIP3    H170364   2.859   5.830  11.088  1.1860  0.8488  1.8749
16291TIP3    H270365   2.820   5.976  11.097 -1.0091  0.1637  5.4157
16292TIP3   OH270366   5.478   2.346   0.926 -0.2982  0.1764 -0.8283
16292TIP3    H170367   5.461   2.386   1.011  0.6176 -0.8096 -0.1725
16292TIP3    H270368   5.481   2.252   0.943 -0.0134 -0.0293 -1.9346
16293TIP3   OH270369   0.706   3.535   0.215  0.0615  0.3972  0.3436
16293TIP3    H170370   0.631   3.556   0.159  0.4748  0.7898 -0.0676
16293TIP3    H270371   0.707   3.604   0.281  1.0015  1.3312 -0.5960
16294TIP3   OH270372   1.534   6.040  16.320  0.8688  0.6901 -0.3821
16294TIP3    H170373   1.450   6.055  16.277  0.1818  0.7832  0.9419
16294TIP3    H270374   1.518   5.966  16.378  2.1433 -0.2946 -1.2474
16295TIP3   OH270375   0.228   4.183  15.821  0.6185 -0.4862  0.0626
16295TIP3    H170376   0.315   4.168  15.784  0.7095  0.2374 -0.0415
16295TIP3    H270377   0.244   4.234  15.901  0.2049  1.4369 -1.0052
16296TIP3   OH270378   3.170   1.942  10.817 -0.4639 -0.5695  0.3169
16296TIP3    H170379   3.091   1.976  10.775 -0.8690 -0.3383  1.2403
16296TIP3    H270380   3.216   2.020  10.849 -0.7469 -0.7835  1.2998
16297TIP3   OH270381   3.349   4.728   2.276 -0.2579 -0.2842 -0.2561
16297TIP3    H170382   3.269   4.767   2.310 -0.9343 -2.7166  1.1407
16297TIP3    H270383   3.418   4.763   2.332 -0.6178  0.1334 -0.0646
16298TIP3   OH270384   3.010   5.248   4.864  0.7037  0.2539  0.1559
16298TIP3    H170385   2.955   5.275   4.937  1.4049  2.3090 -0.0142
16298TIP3    H270386   3.061   5.175   4.897 -1.2942 -0.9898  0.6547
16299TIP3   OH270387   0.002   3.997   1.984  0.2061  0.1250 -0.4694
16299TIP3    H170388   0.052   3.966   1.909  0.7136 -1.7270  0.5857
16299TIP3    H270389   0.068   4.026   2.047 -0.1348 -0.1678  0.0268
16300TIP3   OH270390   4.796   6.559  14.397  0.5314 -0.0376  0.4897
16300TIP3    H170391   4.728   6.553  14.464  0.7712 -1.3828  0.6304
16300TIP3    H270392   4.785   6.647  14.361  1.0639  1.1405  2.9743
16301TIP3   OH270393   0.704   0.570   1.300 -0.3632 -0.1564 -0.0766
16301TIP3    H170394   0.741   0.526   1.377 -0.0477 -0.0729 -0.1800
16301TIP3    H270395   0.776   0.623   1.266 -1.2600  1.9538  1.1594
16302TIP3   OH270396   3.013   2.052   4.520  0.1838  0.2226 -0.7862
16302TIP3    H170397   2.999   2.088   4.433 -0.4903  1.6782 -0.1157
16302TIP3    H270398   2.928   2.059   4.564 -0.0113 -2.3084 -0.6031
16303TIP3   OH270399   0.971   2.836   1.711  0.5830 -0.3651  0.0460
16303TIP3    H170400   1.041   2.862   1.770  0.1082  0.2342  0.3623
16303TIP3    H270401   0.987   2.744   1.693  1.5411 -0.1946 -0.0178
16304TIP3   OH270402   1.465   3.689  10.771 -0.2023  0.2636  0.2201
16304TIP3    H170403   1.439   3.755  10.708  1.2139  1.1160  0.4875
16304TIP3    H270404   1.428   3.719  10.855 -0.0257  0.4170  0.2418
16305TIP3   OH270405   5.803   1.721   6.134  0.0211  0.2116 -0.3338
16305TIP3    H170406   5.734   1.698   6.197  0.0965  1.7195  0.3544
16305TIP3    H270407   5.868   1.767   6.187  2.7506 -3.1107 -0.5065
16306TIP3   OH270408   0.319   4.201   1.850  0.0608 -0.0375  0.4013
16306TIP3    H170409   0.375   4.236   1.780  1.8699 -2.3771  0.5408
16306TIP3    H270410   0.284   4.278   1.894  0.1885  1.5224 -2.0122
16307TIP3   OH270411   3.088   1.351   4.305  0.5858  0.3031  0.8727
16307TIP3    H170412   3.043   1.278   4.263  1.3053 -0.3890  1.2879
16307TIP3    H270413   3.084   1.422   4.240  1.1859 -0.5663 -0.1387
16308TIP3   OH270414   5.312   4.731  11.622  0.6485 -0.2444  0.1727
16308TIP3    H170415   5.366   4.753  11.698  0.7733 -0.8912  0.2784
16308TIP3    H270416   5.265   4.811  11.601 -1.4475 -0.7497  2.5751
16309TIP3   OH270417   1.158   2.072  15.890 -0.1567 -0.7143 -0.4782
16309TIP3    H170418   1.162   2.111  15.978 -1.0766 -0.2899 -0.6138
16309TIP3    H270419   1.166   1.978  15.905  0.8145 -0.5828 -0.0389
16310TIP3   OH270420   6.692   0.219   3.150 -0.2776 -0.2338 -0.1193
16310TIP3    H170421   6.669   0.311   3.165 -1.5853 -0.5091 -0.2759
16310TIP3    H270422   6.779   0.222   3.110 -0.0878  0.9039  0.3226
16311TIP3   OH270423   0.506   0.122  11.651 -0.2394  0.7669 -0.3852
16311TIP3    H170424   0.579   0.117  11.588 -0.2893  1.5972 -0.5200
16311TIP3    H270425   0.526   0.199  11.704 -0.3316  0.2171  0.4639
16312TIP3   OH270426   3.244   5.666  16.872 -0.6878 -0.0103 -0.6290
16312TIP3    H170427   3.216   5.740  16.818  0.1085  3.2092  2.9490
16312TIP3    H270428   3.333   5.687  16.898 -0.8457 -1.6195  1.4831
16313TIP3   OH270429   3.040   5.943  12.115 -0.2211 -0.6134 -0.2300
16313TIP3    H170430   2.967   5.885  12.094 -1.7779  1.1514  0.0341
16313TIP3    H270431   3.008   5.997  12.188  1.9203 -0.8073  0.9420
16314TIP3   OH270432   3.390   3.542  14.416 -0.2325 -0.2224  0.3810
16314TIP3    H170433   3.352   3.530  14.503 -2.1024 -0.6739 -0.4604
16314TIP3    H270434   3.360   3.467  14.366 -0.2792  0.7148 -1.0293
16315TIP3   OH270435   5.928   4.644   0.712 -0.0256 -0.8473 -0.2084
16315TIP3    H170436   6.022   4.646   0.697 -0.2132 -1.8046 -1.8342
16315TIP3    H270437   5.890   4.677   0.630 -1.1141 -1.7179 -0.0883
16316TIP3   OH270438   4.643   6.365   2.928 -0.4305 -0.1177  0.0369
16316TIP3    H170439   4.730   6.324   2.929  0.4520  1.6680  0.0632
16316TIP3    H270440   4.638   6.409   2.843 -0.7138  0.9527  0.5835
16317TIP3   OH270441   6.642   2.348   1.595 -0.1898  0.4626 -0.1434
16317TIP3    H170442   6.673   2.275   1.541 -0.4383  0.8226 -0.7795
16317TIP3    H270443   6.711   2.414   1.588  0.1014  0.2362  0.5476
16318TIP3   OH270444   4.921   6.778   4.665 -0.1758  0.8610 -0.1899
16318TIP3    H170445   4.851   6.776   4.600  0.7323 -1.3734 -1.1979
16318TIP3    H270446   4.881   6.744   4.745 -1.2154  3.3290  0.4116
16319TIP3   OH270447   0.348   6.414   4.302  0.3995  0.7543 -0.3133
16319TIP3    H170448   0.262   6.421   4.343  0.2329 -1.2664 -0.2263
16319TIP3    H270449   0.409   6.448   4.368 -0.2839  2.0488 -0.3167
16320TIP3   OH270450   4.693   3.939   2.930  0.0872 -0.0515  0.0030
16320TIP3    H170451   4.695   3.869   2.864 -1.1044  0.3127 -0.4623
16320TIP3    H270452   4.612   3.924   2.979 -0.6048  1.4074 -0.6062
16321TIP3   OH270453   3.344   4.926  12.611 -0.3376 -0.0567 -0.3666
16321TIP3    H170454   3.296   4.844  12.613  1.4152 -1.1423 -1.0669
16321TIP3    H270455   3.285   4.988  12.568 -1.1434 -1.3095 -1.0918
16322TIP3   OH270456   1.125   3.707   4.775 -0.5804  0.3968  0.3282
16322TIP3    H170457   1.092   3.656   4.701 -0.1236  0.1023  0.3253
16322TIP3    H270458   1.176   3.645   4.827 -1.0510  0.5540  0.9996
16323TIP3   OH270459   4.682   5.745  16.387 -0.1395 -0.0771 -0.2033
16323TIP3    H170460   4.777   5.743  16.386 -0.1249 -1.2160  0.4897
16323TIP3    H270461   4.656   5.659  16.353 -0.9353  0.4250 -0.9008
16324TIP3   OH270462   1.034   1.739   5.665  0.0859  0.1252 -0.4454
16324TIP3    H170463   1.066   1.814   5.716  0.3826 -0.6977  0.6180
16324TIP3    H270464   1.093   1.735   5.589  2.1988 -0.9600  1.1314
16325TIP3   OH270465   3.149   1.776  11.869  0.8572  0.0481 -0.6183
16325TIP3    H170466   3.064   1.737  11.887  0.6493 -0.1100 -1.8460
16325TIP3    H270467   3.212   1.708  11.891  0.7486  0.4575  1.1201
16326TIP3   OH270468   6.803   2.757  10.487  0.0060 -0.3421  0.3075
16326TIP3    H170469   6.873   2.819  10.505  0.3379  0.0973 -2.1423
16326TIP3    H270470   6.832   2.676  10.528  2.0887 -0.2295 -0.7961
16327TIP3   OH270471   0.972   2.793   5.673 -0.3140  0.2484 -0.1570
16327TIP3    H170472   1.000   2.885   5.666 -0.7141  0.6929  2.6505
16327TIP3    H270473   0.887   2.791   5.630  0.1096  0.9592 -1.0737
16328TIP3   OH270474   1.690   4.352  12.688  0.0642 -0.2708  0.1760
16328TIP3    H170475   1.643   4.368  12.606  1.6928 -0.9741 -0.9506
16328TIP3    H270476   1.775   4.316  12.661  0.8851  0.0183  2.1526
16329TIP3   OH270477   0.765   4.318   1.598  0.1751  0.2857  0.2347
16329TIP3    H170478   0.789   4.240   1.648 -0.6695  0.6743  1.2912
16329TIP3    H270479   0.844   4.373   1.601 -0.2234  0.8452  2.2670
16330TIP3   OH270480   5.712   0.646   6.750  0.5388  0.4216 -0.2513
16330TIP3    H170481   5.631   0.596   6.761  1.4394 -1.2077 -0.6243
16330TIP3    H270482   5.686   0.723   6.700 -0.7498 -0.2072 -0.6008
16331TIP3   OH270483   2.451   4.653   3.911 -0.3372 -0.5931  0.4662
16331TIP3    H170484   2.385   4.697   3.964  0.5755  0.0989  1.0482
16331TIP3    H270485   2.407   4.638   3.827 -0.9030  0.8176  0.4748
16332TIP3   OH270486   2.258   4.685  16.885  0.5328 -0.0264 -0.1079
16332TIP3    H170487   2.301   4.765  16.855  2.8203 -1.0838  0.1550
16332TIP3    H270488   2.313   4.653  16.956 -0.6676 -1.5170  0.2042
16333TIP3   OH270489   5.078   1.530  15.385  0.5317  0.0600 -0.7930
16333TIP3    H170490   4.992   1.490  15.374  0.4440 -0.3667  1.1418
16333TIP3    H270491   5.069   1.587  15.461  2.2125 -0.8232  0.1328
16334TIP3   OH270492   1.098   6.062  16.062  0.1572  0.1426  0.1131
16334TIP3    H170493   1.078   5.970  16.082  0.8537  0.1160  0.7308
16334TIP3    H270494   1.041   6.083  15.988  1.8119 -1.5917 -1.8116
16335TIP3   OH270495   5.137   2.055  14.719 -0.0101 -0.4085  0.8211
16335TIP3    H170496   5.174   2.134  14.760 -0.1841  0.8068 -1.2119
16335TIP3    H270497   5.059   2.036  14.771  1.5951 -1.0541  3.1502
16336TIP3   OH270498   6.367   6.544   2.332  0.6224  0.0251  0.3982
16336TIP3    H170499   6.345   6.555   2.425  1.3068  3.7682  0.2585
16336TIP3    H270500   6.448   6.594   2.321  0.0885  0.3994 -2.3855
16337TIP3   OH270501   0.112   4.585  14.046 -0.2278  0.7592  0.1987
16337TIP3    H170502   0.030   4.568  14.000 -0.3493  0.4659  0.5253
16337TIP3    H270503   0.164   4.506  14.033 -0.9527 -0.0773  2.0733
16338TIP3   OH270504   4.968   2.172   4.110 -0.3591 -0.0512 -0.2907
16338TIP3    H170505   4.907   2.165   4.037 -1.8314 -2.9523  1.0553
16338TIP3    H270506   4.972   2.084   4.147  2.8747  0.5521  1.1648
16339TIP3   OH270507   6.796   6.332  13.218 -0.2385  0.7528  0.3983
16339TIP3    H170508   6.742   6.361  13.292  0.0706  1.9862  0.1613
16339TIP3    H270509   6.759   6.377  13.142 -0.5647 -0.5239 -0.2219
16340TIP3   OH270510   3.660   4.713   3.212 -0.1035 -0.1514 -0.1362
16340TIP3    H170511   3.752   4.740   3.209 -0.2588  0.3617 -0.4960
16340TIP3    H270512   3.662   4.619   3.198  0.3125 -0.0179 -1.0649
16341TIP3   OH270513   4.363   2.103   4.105  0.0345 -0.0607 -0.3647
16341TIP3    H170514   4.390   2.152   4.028  0.6183  0.0266 -0.1110
16341TIP3    H270515   4.421   2.027   4.107  1.0327  0.6970  0.7948
16342TIP3   OH270516   5.831   6.198   2.138  0.1479 -0.2752  0.5003
16342TIP3    H170517   5.856   6.162   2.223 -0.5964  0.0849  0.8781
16342TIP3    H270518   5.885   6.277   2.128  0.1226 -0.2310  0.7118
16343TIP3   OH270519   4.499   0.025  13.653 -0.3680 -0.2668 -0.3024
16343TIP3    H170520   4.494   0.044  13.747  1.6215  0.7108 -0.3432
16343TIP3    H270521   4.454   0.098  13.611 -2.0451 -1.1493 -0.1271
16344TIP3   OH270522   0.598   1.448  17.150 -0.4485 -0.8036 -0.1951
16344TIP3    H170523   0.567   1.468  17.238 -0.5181  4.1162 -1.0397
16344TIP3    H270524   0.524   1.469  17.093  0.1665 -2.1012 -1.5328
16345TIP3   OH270525   0.334   4.243  15.063  0.2507  0.6736  0.5687
16345TIP3    H170526   0.297   4.327  15.092  0.0574  0.4603  0.9500
16345TIP3    H270527   0.274   4.211  14.996 -0.0488  0.5133  0.9119
16346TIP3   OH270528   6.348   5.650   5.464 -0.1148  0.4988  0.0584
16346TIP3    H170529   6.271   5.658   5.408  0.2007  0.6000 -0.3602
16346TIP3    H270530   6.415   5.702   5.422  0.1123  0.6249  0.5619
16347TIP3   OH270531   0.026   4.922  11.992  0.5513  0.4739 -0.2787
16347TIP3    H170532   0.077   4.987  12.041 -0.6140  1.3851 -0.2445
16347TIP3    H270533   0.007   4.853  12.057  1.9754 -0.0423 -0.3722
16348TIP3   OH270534   3.275   0.909  11.422  0.2720 -0.5986 -0.1008
16348TIP3    H170535   3.338   0.841  11.443 -0.0580 -1.3769 -1.5006
16348TIP3    H270536   3.197   0.862  11.394 -0.2104  0.3534 -0.3944
16349TIP3   OH270537   1.869   1.760  13.397 -0.9554  0.2772 -0.1475
16349TIP3    H170538   1.774   1.748  13.398 -0.8809 -0.3122  0.3882
16349TIP3    H270539   1.884   1.832  13.458 -1.0165  0.0069  0.1914
16350TIP3   OH270540   6.721   4.279   4.728 -0.5334 -0.0236  0.0898
16350TIP3    H170541   6.676   4.208   4.774 -1.2467  0.1118 -0.3697
16350TIP3    H270542   6.795   4.237   4.685 -0.5069 -0.3489  0.4427
16351TIP3   OH270543   0.841   2.977  14.983 -0.5281 -0.5036  0.3926
16351TIP3    H170544   0.761   3.014  14.946 -1.2587 -1.2605  1.1876
16351TIP3    H270545   0.851   3.022  15.068  0.0098 -0.2616  0.2060
16352TIP3   OH270546   5.886   0.991  13.411 -0.0569  0.7604 -0.3745
16352TIP3    H170547   5.814   0.928  13.404 -1.0576  1.9059 -0.6521
16352TIP3    H270548   5.844   1.076  13.419  1.2691  1.5500 -1.2660
16353TIP3   OH270549   6.087   3.655   3.927 -0.3493  0.4879 -0.1549
16353TIP3    H170550   6.153   3.695   3.870 -0.3735 -1.4703 -1.6554
16353TIP3    H270551   6.132   3.641   4.010  0.4562  1.1655 -0.4684
16354TIP3   OH270552   4.945   1.685   4.852  0.3188  0.5910  0.3230
16354TIP3    H170553   4.899   1.628   4.914  1.4815 -0.8574 -0.0650
16354TIP3    H270554   4.880   1.708   4.786  0.1329 -1.6024 -0.3489
16355TIP3   OH270555   2.756   2.932  16.825 -0.4445 -0.5318 -0.3185
16355TIP3    H170556   2.815   2.859  16.845  0.1750  0.3619  1.3210
16355TIP3    H270557   2.726   2.963  16.911  0.3786  1.9694 -0.8351
16356TIP3   OH270558   3.129   4.543   0.776  0.4688  0.1042 -0.4744
16356TIP3    H170559   3.127   4.527   0.870  0.0985 -1.2340 -0.6826
16356TIP3    H270560   3.221   4.534   0.751  0.5705  0.4893 -0.2404
16357TIP3   OH270561   6.220   5.018  12.109 -0.6817  0.0830 -0.5522
16357TIP3    H170562   6.234   5.047  12.199  1.2757  0.6190 -0.9658
16357TIP3    H270563   6.218   4.922  12.115  1.1132  0.0262 -0.0800
16358TIP3   OH270564   5.765   1.178   1.487  0.4061 -0.0423  0.3455
16358TIP3    H170565   5.851   1.136   1.489  1.2255  1.5112 -0.1105
16358TIP3    H270566   5.781   1.262   1.445 -1.2161  0.5744  0.8827
16359TIP3   OH270567   3.211   3.230  16.327  0.1005 -0.8093 -0.2076
16359TIP3    H170568   3.245   3.281  16.253  0.3754  0.2874  0.6331
16359TIP3    H270569   3.285   3.175  16.354  0.3963 -0.3244 -0.0073
16360TIP3   OH270570   4.853   3.809  12.796 -0.0788 -0.5986  0.7859
16360TIP3    H170571   4.889   3.782  12.881  0.2137  0.3958  0.9885
16360TIP3    H270572   4.926   3.852  12.752  0.3565 -2.7848 -0.7993
16361TIP3   OH270573   4.318   4.224   2.785  0.2263 -0.1445  0.0798
16361TIP3    H170574   4.383   4.217   2.856  0.2245  0.4480  0.1512
16361TIP3    H270575   4.235   4.201   2.827  0.2167  0.2564  0.2881
16362TIP3   OH270576   2.914   1.793  14.557 -0.7567 -0.5442  0.1235
16362TIP3    H170577   2.820   1.793  14.538 -0.6578 -0.5714 -0.3808
16362TIP3    H270578   2.955   1.789  14.471 -0.2895 -0.1000  0.3256
16363TIP3   OH270579   6.382   5.124   3.425  0.0894  0.2081 -0.6038
16363TIP3    H170580   6.431   5.047   3.454 -1.1320 -0.7360 -0.9988
16363TIP3    H270581   6.418   5.196   3.478  2.1629 -0.3499 -1.1458
16364TIP3   OH270582   3.224   5.711   0.125  0.3062  0.0837  0.4617
16364TIP3    H170583   3.170   5.738   0.199  1.4048  1.0847  0.9394
16364TIP3    H270584   3.273   5.635   0.158 -0.7345 -0.7891  0.0462
16365TIP3   OH270585   0.774   0.096  12.076 -0.4844 -0.1246  0.1166
16365TIP3    H170586   0.766   0.111  12.170  0.8315 -0.6340  0.3354
16365TIP3    H270587   0.753   0.180  12.036  1.6731  0.9475  1.0392
16366TIP3   OH270588   2.745   0.123  15.028 -0.0093  0.9871  0.3940
16366TIP3    H170589   2.800   0.067  15.082  1.1066  3.1327  1.6377
16366TIP3    H270590   2.682   0.162  15.089 -1.2945  0.5136 -0.5762
16367TIP3   OH270591   3.128   4.278  11.428  0.4876 -0.4660  0.2883
16367TIP3    H170592   3.129   4.238  11.341 -2.1463  1.1221 -0.5950
16367TIP3    H270593   3.188   4.225  11.480  0.9364 -2.4427 -2.0757
16368TIP3   OH270594   3.873   0.491  13.100 -0.4253  0.4622  0.2804
16368TIP3    H170595   3.871   0.466  13.008 -0.8566  2.2784 -0.2337
16368TIP3    H270596   3.783   0.476  13.131 -0.6006  1.0684  0.0631
16369TIP3   OH270597   4.629   3.859  15.715  0.2789  0.4046 -0.3080
16369TIP3    H170598   4.565   3.925  15.689 -1.3366 -1.2948 -0.9075
16369TIP3    H270599   4.707   3.909  15.739 -1.1492  2.5537  0.1584
16370TIP3   OH270600   1.012   2.534  16.800 -0.0564  0.4509  0.3031
16370TIP3    H170601   1.028   2.613  16.748  0.1849 -0.2041 -0.6651
16370TIP3    H270602   0.961   2.478  16.742  0.3658 -0.3763  0.7121
16371TIP3   OH270603   1.383   6.336  13.813  0.1433 -0.7965 -0.3628
16371TIP3    H170604   1.430   6.417  13.795 -1.3617  0.1725 -0.0939
16371TIP3    H270605   1.338   6.353  13.896 -0.9129 -1.5726 -0.7625
16372TIP3   OH270606   2.904   5.449  10.226  0.2366 -0.6798 -0.1103
16372TIP3    H170607   2.851   5.518  10.267 -0.9169 -0.9284 -1.1244
16372TIP3    H270608   2.994   5.481  10.233 -0.1456  0.2735  0.6938
16373TIP3   OH270609   6.618   2.682  11.387 -0.1383 -0.3033 -0.2162
16373TIP3    H170610   6.555   2.737  11.341 -0.0957  0.0694  0.1602
16373TIP3    H270611   6.700   2.694  11.338 -0.0614  0.1944  0.0220
16374TIP3   OH270612   5.456   1.714   6.500  0.2842  0.2360  0.9238
16374TIP3    H170613   5.487   1.804   6.496 -1.3205  0.7757 -0.2922
16374TIP3    H270614   5.395   1.712   6.573 -0.4160  0.4055  0.3567
16375TIP3   OH270615   1.102   2.661   6.282  0.2298  0.2040  0.1728
16375TIP3    H170616   1.014   2.657   6.245  0.7816  1.4492 -1.4296
16375TIP3    H270617   1.102   2.742   6.333  0.3698  0.0851  0.3601
16376TIP3   OH270618   5.451   0.684  16.326 -0.4507 -0.0733 -0.0165
16376TIP3    H170619   5.438   0.606  16.380  4.1746 -1.7751 -0.9077
16376TIP3    H270620   5.460   0.755  16.389 -0.2763 -1.0688  1.1246
16377TIP3   OH270621   6.383   5.704   0.396  0.4214  0.4574 -0.2875
16377TIP3    H170622   6.468   5.743   0.414  0.1759  1.1407 -0.5636
16377TIP3    H270623   6.402   5.615   0.366  0.9254 -0.1783  1.7584
16378TIP3   OH270624   2.066   1.756  15.756 -0.5290  0.5870 -0.0492
16378TIP3    H170625   1.981   1.713  15.767 -0.8544  0.9835 -0.9317
16378TIP3    H270626   2.050   1.825  15.693  0.6113  0.2095 -0.7818
16379TIP3   OH270627   5.354   4.232   3.152 -0.3813  0.6933 -0.3812
16379TIP3    H170628   5.326   4.324   3.156  0.2125  0.8899 -0.7049
16379TIP3    H270629   5.284   4.184   3.196  0.5299  1.5808  2.2224
16380TIP3   OH270630   6.447   6.334   1.326 -0.3683 -0.3797 -0.0567
16380TIP3    H170631   6.485   6.391   1.393  1.1750  0.1431 -1.3325
16380TIP3    H270632   6.460   6.245   1.360  0.5694 -0.1307  0.2469
16381TIP3   OH270633   6.488   4.933  13.040 -0.3133 -0.2572  0.3473
16381TIP3    H170634   6.450   4.896  12.960 -1.1831  0.7943  0.2485
16381TIP3    H270635   6.565   4.880  13.057 -0.1904 -0.5911 -1.1240
16382TIP3   OH270636   1.943   5.675   3.245 -0.0317  0.2092  0.2100
16382TIP3    H170637   1.943   5.763   3.208  0.6243  0.5329  0.9528
16382TIP3    H270638   1.898   5.622   3.179 -0.0784  1.0164 -0.4327
16383TIP3   OH270639   0.605   6.506  15.736 -0.5609 -0.0269 -0.0001
16383TIP3    H170640   0.620   6.416  15.707 -1.4927 -0.8338  1.8536
16383TIP3    H270641   0.608   6.501  15.831  0.8477  2.2037  0.1386
16384TIP3   OH270642   6.164   0.473   1.370  0.4029 -1.0466 -0.0023
16384TIP3    H170643   6.216   0.393   1.364  1.5263 -0.2998 -0.9918
16384TIP3    H270644   6.079   0.450   1.332  0.8917 -1.6344 -0.7786
16385TIP3   OH270645   4.188   2.043   3.694  0.0073  0.1593  0.3672
16385TIP3    H170646   4.221   1.997   3.771 -0.2712  0.6009  0.7580
16385TIP3    H270647   4.222   1.994   3.619  0.8876  0.1485  0.7633
16386TIP3   OH270648   2.106   6.209  14.250 -0.8120  0.3358  0.4224
16386TIP3    H170649   2.106   6.297  14.287  0.7179  0.0166  1.2885
16386TIP3    H270650   2.056   6.156  14.312  0.4843  0.1050  1.3220
16387TIP3   OH270651   6.363   4.347   4.975  0.4272  0.0470  0.3531
16387TIP3    H170652   6.292   4.320   5.032 -0.0909  1.3965  0.3753
16387TIP3    H270653   6.437   4.363   5.034 -0.3469  2.2695  0.8107
16388TIP3   OH270654   4.104   2.192   3.102  0.0632 -0.5169  0.3334
16388TIP3    H170655   4.104   2.191   3.007  2.7500  1.7717  0.1864
16388TIP3    H270656   4.136   2.106   3.128  0.3596 -0.7802 -0.8806
16389TIP3   OH270657   0.822   0.029   0.753  0.1354 -0.0763  0.6932
16389TIP3    H170658   0.865   0.013   0.669  0.8748  0.9156  0.8658
16389TIP3    H270659   0.761   0.100   0.735 -0.9426 -0.9876  0.6224
16390TIP3   OH270660   3.205   3.433   5.169 -0.3858  0.1747  0.1820
16390TIP3    H170661   3.149   3.506   5.196 -0.1574  0.3114  0.2849
16390TIP3    H270662   3.265   3.472   5.106 -0.9982 -0.1681 -0.6277
16391TIP3   OH270663   3.520   0.379  11.972  0.0552  0.3660  0.2726
16391TIP3    H170664   3.576   0.349  11.901 -0.1028  2.1300 -0.6618
16391TIP3    H270665   3.579   0.427  12.030  0.1590 -0.9539  1.3059
16392TIP3   OH270666   1.273   5.131   3.592 -0.0887  0.0762 -0.1452
16392TIP3    H170667   1.362   5.113   3.623 -0.3962 -1.9331 -0.2582
16392TIP3    H270668   1.278   5.120   3.497 -0.7169 -1.5610 -0.0240
16393TIP3   OH270669   3.219   5.066   4.875 -0.6865  0.4345  0.3201
16393TIP3    H170670   3.281   5.106   4.814 -1.5352  1.2596 -0.0295
16393TIP3    H270671   3.247   4.975   4.883 -1.3279 -0.0671 -2.3651
16394TIP3   OH270672   4.263   0.548   2.438 -0.3034  0.3751 -0.4253
16394TIP3    H170673   4.231   0.458   2.434 -1.7029  0.8132  0.3592
16394TIP3    H270674   4.333   0.551   2.372 -1.7184 -0.6909 -2.0605
16395TIP3   OH270675   2.451   5.374  16.481 -0.2005 -0.7744 -0.3406
16395TIP3    H170676   2.523   5.313  16.467  0.4541  0.0394 -0.5993
16395TIP3    H270677   2.490   5.447  16.528 -1.0723 -0.7452  0.3566
16396TIP3   OH270678   2.102   5.352   5.338 -0.5865 -0.1742 -0.0643
16396TIP3    H170679   2.057   5.392   5.264 -0.4551 -1.4195 -0.8274
16396TIP3    H270680   2.076   5.407   5.413  0.6132  2.1214 -1.2276
16397TIP3   OH270681   4.906   0.580   3.983 -0.0206  0.4378  0.4463
16397TIP3    H170682   4.973   0.592   4.050  1.0060 -0.3434 -0.3977
16397TIP3    H270683   4.850   0.510   4.017  1.3837 -1.0318 -0.1215
16398TIP3   OH270684   1.336   3.966   3.643 -0.6905 -0.2504  0.4544
16398TIP3    H170685   1.410   4.013   3.604 -1.8329  1.5605  0.3245
16398TIP3    H270686   1.335   3.882   3.598  0.0811  0.4649 -1.0056
16399TIP3   OH270687   2.745   6.010  13.010 -0.2580  0.0365 -0.2816
16399TIP3    H170688   2.814   5.965  13.059 -1.9038 -0.5186  1.6808
16399TIP3    H270689   2.671   5.949  13.012 -1.6895  1.7174  0.0882
16400TIP3   OH270690   1.380   5.032  11.094  0.1443 -0.4374  0.4888
16400TIP3    H170691   1.472   5.009  11.103 -0.1873 -2.0941  0.0208
16400TIP3    H270692   1.338   4.952  11.063 -1.6340 -0.0365  1.6716
16401TIP3   OH270693   3.961   5.735  13.092 -0.2343 -0.4769 -0.2103
16401TIP3    H170694   3.871   5.702  13.088 -0.4380  0.1511 -1.8216
16401TIP3    H270695   3.977   5.771  13.005  1.2156  0.4042  0.3777
16402TIP3   OH270696   0.670   6.654   0.795  0.3449  0.5406  0.0933
16402TIP3    H170697   0.654   6.669   0.702  1.7396 -1.1178 -0.4596
16402TIP3    H270698   0.750   6.704   0.814 -0.7762  2.1401  0.8269
16403TIP3   OH270699   1.009   3.815  16.522  0.1854 -0.2236 -0.6504
16403TIP3    H170700   0.927   3.860  16.502 -0.9287 -0.6269  2.4063
16403TIP3    H270701   1.077   3.879  16.503 -1.1253  1.5119  0.2033
16404TIP3   OH270702   4.655   0.051  14.048  0.4437  0.2818 -0.3507
16404TIP3    H170703   4.745   0.056  14.080  0.7206 -0.6762 -0.9504
16404TIP3    H270704   4.653   0.112  13.974  0.3530  0.9617  0.2009
16405TIP3   OH270705   3.269   5.317   0.434 -0.0788  0.3117  0.3660
16405TIP3    H170706   3.224   5.333   0.516  0.6109 -0.1382  0.8378
16405TIP3    H270707   3.295   5.404   0.403 -0.7667  0.5261  0.3601
16406TIP3   OH270708   2.992   4.085   1.041  0.3195 -0.4156 -0.4644
16406TIP3    H170709   2.942   4.004   1.041  1.2682 -1.0164  0.2930
16406TIP3    H270710   3.053   4.076   0.968  0.8323 -0.6433 -0.0092
16407TIP3   OH270711   2.840   6.101   2.630  0.0039 -0.1852 -0.1286
16407TIP3    H170712   2.863   6.090   2.538  1.6212 -0.3566  0.2601
16407TIP3    H270713   2.890   6.178   2.658  1.6522 -1.6680  1.2320
16408TIP3   OH270714   6.544   4.970  14.780  0.0131  0.0152  0.5077
16408TIP3    H170715   6.541   4.932  14.868 -0.1220 -0.7819  0.1658
16408TIP3    H270716   6.637   4.982  14.762  0.1459 -1.5151  0.0584
16409TIP3   OH270717   2.577   5.721  15.481  0.4854 -0.2501 -0.0396
16409TIP3    H170718   2.605   5.712  15.572 -2.6027 -0.4805  1.0076
16409TIP3    H270719   2.657   5.713  15.430  2.3494  0.0942  2.6501
16410TIP3   OH270720   1.950   4.097   5.420  0.3334  0.1317  0.3866
16410TIP3    H170721   1.858   4.106   5.444 -0.0750 -0.1037 -0.9667
16410TIP3    H270722   1.972   4.006   5.441  0.0996  0.0385  0.2337
16411TIP3   OH270723   3.121   5.079  16.739  0.0212 -0.5387  0.1086
16411TIP3    H170724   3.084   5.028  16.811  2.1771 -0.7416  1.1522
16411TIP3    H270725   3.197   5.124  16.777  0.4580  0.3871 -1.7205
16412TIP3   OH270726   5.388   6.216  16.755  0.2264  0.1019 -0.1385
16412TIP3    H170727   5.322   6.281  16.735  0.7460  0.3940 -0.9500
16412TIP3    H270728   5.381   6.151  16.685  1.4249  0.6375 -0.7876
16413TIP3   OH270729   2.269   0.191   1.764 -0.2620 -0.0488  0.1138
16413TIP3    H170730   2.237   0.119   1.710 -0.1873  0.4313 -0.5782
16413TIP3    H270731   2.193   0.219   1.815 -0.2462 -0.7344  0.5263
16414TIP3   OH270732   2.341   3.465   2.349  0.4711 -0.2258  0.0246
16414TIP3    H170733   2.266   3.434   2.297  1.4266 -3.0418  0.1332
16414TIP3    H270734   2.414   3.412   2.318  1.9355  0.8619  1.4919
16415TIP3   OH270735   3.719   6.521   5.583  0.0020 -0.1519 -0.1141
16415TIP3    H170736   3.717   6.614   5.602  1.5367 -0.0720 -0.2158
16415TIP3    H270737   3.714   6.516   5.487  0.9657 -0.1155 -0.1700
16416TIP3   OH270738   3.261   2.650  11.265 -0.3293  0.8303  0.5826
16416TIP3    H170739   3.228   2.731  11.228 -1.6433  0.2816  0.5022
16416TIP3    H270740   3.246   2.658  11.359  0.0957  0.9292  0.6422
16417TIP3   OH270741   1.549   5.607  14.038 -0.2538  0.2368 -0.0532
16417TIP3    H170742   1.474   5.666  14.031 -0.2842  0.2611  0.4545
16417TIP3    H270743   1.562   5.595  14.132 -2.1072 -2.9075 -0.0237
16418TIP3   OH270744   6.486   6.081   1.728 -0.3350  0.6538  0.0555
16418TIP3    H170745   6.546   6.046   1.662  1.6757  1.4865  1.3192
16418TIP3    H270746   6.523   6.167   1.750  0.3359 -0.3770  3.6244
16419TIP3   OH270747   3.163   0.941  12.210 -0.5297  0.2293 -0.1245
16419TIP3    H170748   3.087   0.918  12.264 -0.1242 -1.3873 -0.2046
16419TIP3    H270749   3.150   0.894  12.128  1.0790 -0.9454  0.2581
16420TIP3   OH270750   0.151   1.456   2.492 -0.3328 -0.0059  0.1598
16420TIP3    H170751   0.165   1.526   2.556 -0.8319 -0.0183  0.2808
16420TIP3    H270752   0.200   1.484   2.414 -1.2949  0.9376 -0.1239
16421TIP3   OH270753   4.543   3.815  12.676  0.6625 -0.0726 -0.0508
16421TIP3    H170754   4.513   3.735  12.635  0.2768  0.3007 -0.5096
16421TIP3    H270755   4.465   3.871  12.680  0.8384  0.1364  0.6100
16422TIP3   OH270756   4.785   1.910   1.697  0.3299  0.0129  0.7945
16422TIP3    H170757   4.832   1.853   1.636 -1.7707 -0.2385 -0.6867
16422TIP3    H270758   4.711   1.858   1.727 -0.2746  1.1462  1.3170
16423TIP3   OH270759   2.574   5.082  16.755  0.3322 -0.0287  0.0006
16423TIP3    H170760   2.660   5.103  16.791  0.3602  0.2911 -0.2440
16423TIP3    H270761   2.523   5.163  16.765  0.9119  0.7052 -2.3414
16424TIP3   OH270762   6.718   4.759   0.097  1.0351 -0.2512  0.1271
16424TIP3    H170763   6.699   4.697   0.168  0.0176  0.3733  0.4257
16424TIP3    H270764   6.801   4.728   0.060  1.6911 -0.4964  1.6923
16425TIP3   OH270765   6.739   4.958   6.026  0.0423  0.2700  0.4291
16425TIP3    H170766   6.822   4.945   6.071  1.1914 -1.8748 -2.0604
16425TIP3    H270767   6.745   5.045   5.986  1.8971 -0.5220 -1.1475
16426TIP3   OH270768   6.804   2.997  14.690 -0.8020 -0.3080 -0.0196
16426TIP3    H170769   6.785   3.084  14.726 -0.2635 -0.6026  1.0195
16426TIP3    H270770   6.826   3.014  14.598  1.3702  0.9424  0.6522
16427TIP3   OH270771   3.902   6.627   4.879 -0.7281  0.0415 -0.3365
16427TIP3    H170772   3.926   6.704   4.932  0.6321  0.0554 -0.9267
16427TIP3    H270773   3.981   6.609   4.828 -1.0479 -1.7234 -0.2451
16428TIP3   OH270774   3.581   6.610   3.912 -0.0387 -0.0741  0.0694
16428TIP3    H170775   3.500   6.654   3.888 -0.6350 -1.2457 -0.1124
16428TIP3    H270776   3.574   6.595   4.006 -0.6245 -1.3132 -0.1527
16429TIP3   OH270777   2.588   1.254   1.129 -0.1393  0.0133 -0.2690
16429TIP3    H170778   2.595   1.225   1.038  0.3515  1.0972 -0.5876
16429TIP3    H270779   2.514   1.315   1.129 -0.5055 -0.4231  0.1815
16430TIP3   OH270780   0.266   4.061  11.975  0.5333  0.0435 -0.2364
16430TIP3    H170781   0.264   4.065  12.070 -1.3417  1.8381 -0.2718
16430TIP3    H270782   0.355   4.088  11.951  1.0643 -0.5684  0.9803
16431TIP3   OH270783   0.717   3.943  14.412  0.2441  0.2831 -0.4947
16431TIP3    H170784   0.671   4.014  14.367  0.4561 -0.1181 -1.3741
16431TIP3    H270785   0.790   3.922  14.354  0.6307 -0.1351  0.1345
16432TIP3   OH270786   1.373   4.591  15.145 -0.2826  0.1595 -0.0837
16432TIP3    H170787   1.348   4.540  15.068 -0.5177  0.9513 -0.5396
16432TIP3    H270788   1.395   4.677  15.110 -0.9846  0.7137  0.8064
16433TIP3   OH270789   0.958   6.199  15.432 -0.5130  0.7258  0.2043
16433TIP3    H170790   1.018   6.182  15.504  0.3459 -1.8724 -1.0028
16433TIP3    H270791   0.875   6.163  15.461 -0.7080  1.4897  0.6340
16434TIP3   OH270792   1.550   6.438   0.715  0.6773  0.0785 -0.4560
16434TIP3    H170793   1.513   6.468   0.632 -1.0198  0.7673  0.5059
16434TIP3    H270794   1.503   6.357   0.734  0.6931  0.1930  0.0789
16435TIP3   OH270795   2.951   2.219  11.772  0.1199 -0.1324 -0.8886
16435TIP3    H170796   3.033   2.195  11.729  0.6303 -0.2146  0.0909
16435TIP3    H270797   2.928   2.141  11.824 -0.6375 -0.1509 -1.2350
16436TIP3   OH270798   3.980   6.348   4.390 -0.5766 -0.3538  0.4468
16436TIP3    H170799   4.025   6.423   4.350 -2.4851  0.7778  0.3053
16436TIP3    H270800   3.980   6.281   4.322  2.1303 -0.9894  0.9374
16437TIP3   OH270801   0.389   2.016  16.536  0.2533 -0.1287  0.5043
16437TIP3    H170802   0.382   2.036  16.443  1.3771  0.9885  0.6225
16437TIP3    H270803   0.355   1.927  16.545  1.5245 -0.8398 -1.2347
16438TIP3   OH270804   0.063   3.326   5.544 -0.2844  0.0029  0.8232
16438TIP3    H170805  -0.020   3.372   5.554 -0.6094  0.0897 -1.6502
16438TIP3    H270806   0.120   3.389   5.500  0.5525 -0.6327  0.9760
16439TIP3   OH270807   6.684   2.372   4.009  0.4394  0.1310  0.1168
16439TIP3    H170808   6.630   2.451   4.015 -0.0590 -0.1885 -0.0771
16439TIP3    H270809   6.723   2.363   4.096 -0.1598  0.1342  0.3962
16440TIP3   OH270810   1.119   2.647  11.896 -0.1632  0.5659 -0.2138
16440TIP3    H170811   1.162   2.671  11.814 -0.7389 -1.1884 -1.0884
16440TIP3    H270812   1.167   2.694  11.963  1.4748  0.6730 -1.3955
16441TIP3   OH270813   5.128   4.925  14.509  0.1421 -0.2948 -0.2078
16441TIP3    H170814   5.212   4.956  14.477 -0.1766  0.0424 -0.7418
16441TIP3    H270815   5.088   5.002  14.549  0.4901 -0.6884  0.9161
16442TIP3   OH270816   6.330   5.412   0.725  0.3349  0.8022 -0.0441
16442TIP3    H170817   6.394   5.448   0.663 -0.2989  0.5067 -0.8890
16442TIP3    H270818   6.254   5.470   0.717 -1.2772 -1.4365 -2.5032
16443TIP3   OH270819   3.912   1.166  13.164  0.6824 -0.1898 -0.3120
16443TIP3    H170820   3.945   1.255  13.156 -1.6823  0.8113  0.1613
16443TIP3    H270821   3.934   1.140  13.254 -0.1622  0.6312  0.1500
16444TIP3   OH270822   3.098   3.633  11.915 -0.0811 -0.5385  0.1946
16444TIP3    H170823   3.190   3.615  11.934 -0.3043 -1.8250  0.1653
16444TIP3    H270824   3.050   3.585  11.982 -0.7493 -0.3373 -0.1286
16445TIP3   OH270825   3.862   6.769  13.443  0.7438 -0.0693  0.3284
16445TIP3    H170826   3.837   6.859  13.461  0.4187 -0.1449  0.2648
16445TIP3    H270827   3.782   6.728  13.410  0.7347 -0.5249  0.8879
16446TIP3   OH270828   6.201   2.496  13.855 -0.0811 -0.2845 -0.1612
16446TIP3    H170829   6.107   2.502  13.873 -0.0336 -1.5011  0.5941
16446TIP3    H270830   6.222   2.404  13.870  0.7406 -0.6154 -2.7965
16447TIP3   OH270831   2.227   5.074   0.814 -0.3410  0.2950 -0.0786
16447TIP3    H170832   2.321   5.081   0.804 -0.3222  0.2938  0.0998
16447TIP3    H270833   2.213   4.985   0.847 -0.4048  0.2926 -0.1121
16448TIP3   OH270834   0.100   4.734  13.458  0.1071 -0.6334 -0.4298
16448TIP3    H170835   0.184   4.774  13.436  0.7505 -0.3397  2.1820
16448TIP3    H270836   0.062   4.793  13.523 -0.6773 -2.3237  0.7125
16449TIP3   OH270837   6.296   3.102   3.399 -0.1952  0.3231 -0.1289
16449TIP3    H170838   6.241   3.153   3.340 -0.0700  0.0978 -0.4437
16449TIP3    H270839   6.274   3.134   3.487  0.2068  1.2185 -0.3513
16450TIP3   OH270840   5.337   6.057   2.435 -0.0174 -0.1310  0.1712
16450TIP3    H170841   5.252   6.037   2.398  0.2113  0.0155 -0.4379
16450TIP3    H270842   5.394   6.073   2.360  0.0416  1.8636  0.5801
16451TIP3   OH270843   6.383   3.938  15.223  0.5492  0.2986 -0.5675
16451TIP3    H170844   6.407   4.014  15.275  1.2317  0.7342 -1.5047
16451TIP3    H270845   6.442   3.869  15.252 -0.6078 -0.1473  0.8716
16452TIP3   OH270846   1.369   6.091  13.713  0.4020  0.4705  0.1580
16452TIP3    H170847   1.371   6.099  13.618  2.4020 -0.3204  0.0776
16452TIP3    H270848   1.384   6.179  13.746  0.1150  0.6756 -0.2571
16453TIP3   OH270849   3.128   2.657   5.744  0.2115 -0.1121  0.4623
16453TIP3    H170850   3.079   2.677   5.824 -0.9179 -2.2410  0.3695
16453TIP3    H270851   3.115   2.734   5.688 -0.2849  0.7486  1.7165
16454TIP3   OH270852   0.880   6.374  15.677  0.7095 -0.3150 -0.2338
16454TIP3    H170853   0.921   6.444  15.627 -1.2699  0.6109 -0.6540
16454TIP3    H270854   0.795   6.361  15.635 -0.0225 -1.1801  1.4135
16455TIP3   OH270855   6.691   2.152  12.241  0.0939 -0.1607 -0.2628
16455TIP3    H170856   6.722   2.121  12.326  0.4240 -0.0777 -0.3530
16455TIP3    H270857   6.647   2.235  12.261  2.3398  1.1723 -0.4723
16456TIP3   OH270858   0.342   0.506   5.069  0.4004 -0.2954  0.5839
16456TIP3    H170859   0.404   0.558   5.119  0.5720  1.7026 -1.5294
16456TIP3    H270860   0.259   0.553   5.078  0.5668  0.4627 -1.4093
16457TIP3   OH270861   4.748   4.162   6.387  0.2777 -0.8321  0.1937
16457TIP3    H170862   4.795   4.233   6.344  0.7731 -0.5719  1.1272
16457TIP3    H270863   4.769   4.084   6.336  0.9350 -0.5519  0.0223
16458TIP3   OH270864   1.980   5.138   6.625 -0.1611 -0.6279 -0.0379
16458TIP3    H170865   1.950   5.173   6.542 -1.5150  2.9582  1.7439
16458TIP3    H270866   2.075   5.133   6.616 -0.2744 -0.3166 -1.7467
16459TIP3   OH270867   2.815   6.666   3.060 -0.1646  0.8031  0.1470
16459TIP3    H170868   2.870   6.738   3.091  1.3552 -0.8426  1.4591
16459TIP3    H270869   2.741   6.665   3.121 -0.3674  1.4240 -0.0742
16460TIP3   OH270870   0.332   4.791   0.721 -0.0443  0.7829  0.1219
16460TIP3    H170871   0.417   4.783   0.765  0.2287  1.2576 -0.3005
16460TIP3    H270872   0.355   4.803   0.629 -0.6093 -0.3622 -0.1826
16461TIP3   OH270873   0.103   4.708   4.838  0.2708 -0.3287  0.4556
16461TIP3    H170874   0.044   4.708   4.914 -0.8268 -1.4702 -0.3506
16461TIP3    H270875   0.188   4.685   4.874 -0.3647 -1.5152  1.2696
16462TIP3   OH270876   0.222   6.570  10.987 -0.1316 -0.1155 -0.1767
16462TIP3    H170877   0.175   6.629  10.928 -0.8625 -1.9104 -1.4700
16462TIP3    H270878   0.313   6.600  10.983 -0.4316  0.7278 -1.0119
16463TIP3   OH270879   4.392   1.352   0.769  0.5400 -0.6165 -0.1068
16463TIP3    H170880   4.445   1.360   0.849  0.5954  0.7935 -0.2588
16463TIP3    H270881   4.304   1.379   0.796  0.2199 -1.5183 -0.2061
16464TIP3   OH270882   5.622   6.755  12.764 -0.2681 -0.0123  0.3221
16464TIP3    H170883   5.679   6.825  12.796 -0.6452 -0.1753  1.3903
16464TIP3    H270884   5.681   6.695  12.719 -0.0206  1.2941 -1.2022
16465TIP3   OH270885   4.162   5.801   2.896 -0.0555 -0.6508 -0.2492
16465TIP3    H170886   4.148   5.747   2.974 -0.2655 -0.8070 -0.3916
16465TIP3    H270887   4.239   5.853   2.915 -0.3274 -0.4161  0.2140
16466TIP3   OH270888   5.346   2.648   5.161 -0.0359 -0.4073  0.4927
16466TIP3    H170889   5.379   2.558   5.174 -2.1061 -1.3574 -0.4627
16466TIP3    H270890   5.251   2.639   5.165 -0.3611  1.4026 -1.7429
16467TIP3   OH270891   3.478   2.626   1.403  0.4692  0.2684  0.6169
16467TIP3    H170892   3.554   2.596   1.452  1.3707 -0.4065 -1.0845
16467TIP3    H270893   3.450   2.706   1.447  0.3441 -1.0143  3.0242
16468TIP3   OH270894   1.678   6.428  17.027  0.2446  0.3024 -0.1435
16468TIP3    H170895   1.648   6.405  16.939  2.7464  0.9792 -1.2667
16468TIP3    H270896   1.685   6.344  17.072  1.2120 -0.3349 -1.4103
16469TIP3   OH270897   3.897   6.181   3.076 -0.3238 -0.1398  0.0355
16469TIP3    H170898   3.873   6.132   2.997  0.8938 -1.8055  0.6352
16469TIP3    H270899   3.918   6.114   3.141  0.2786  1.1856  1.2784
16470TIP3   OH270900   5.633   1.945  11.277  0.2202  0.0314 -0.0409
16470TIP3    H170901   5.657   1.951  11.369  1.6938  0.0914 -0.3938
16470TIP3    H270902   5.666   1.860  11.249 -0.5806 -0.1646 -0.4250
16471TIP3   OH270903   0.139   3.734   0.525 -0.0231 -0.0037  0.1665
16471TIP3    H170904   0.206   3.680   0.568  1.5058  2.4203  1.0246
16471TIP3    H270905   0.186   3.776   0.452 -0.4799  1.9448  0.9420
16472TIP3   OH270906   6.499   1.386  11.670  0.1359 -0.3292  0.5563
16472TIP3    H170907   6.509   1.392  11.765 -0.3036  1.9587  0.5212
16472TIP3    H270908   6.489   1.477  11.642  1.0869 -0.8822 -1.7840
16473TIP3   OH270909   2.073   5.590   0.001 -0.4199  0.4463  0.3247
16473TIP3    H170910   2.069   5.533  -0.076 -0.6273  1.6834 -0.6029
16473TIP3    H270911   2.167   5.606   0.013 -0.4571  3.2287 -2.0005
16474TIP3   OH270912   2.280   5.925  10.305 -0.3776 -0.6050 -0.4740
16474TIP3    H170913   2.357   5.963  10.348 -0.8177 -0.9611  0.6648
16474TIP3    H270914   2.291   5.947  10.213  0.7197 -0.0182 -0.2223
16475TIP3   OH270915   0.699   1.449  14.038 -0.5453  0.1774 -0.2083
16475TIP3    H170916   0.628   1.386  14.048 -1.7047  1.6936  1.8454
16475TIP3    H270917   0.778   1.394  14.029 -1.4986 -1.5893  1.4499
16476TIP3   OH270918   3.998   3.975   1.152 -0.0234 -0.1865  0.1444
16476TIP3    H170919   3.979   3.906   1.217  2.3179 -0.4408  0.6493
16476TIP3    H270920   3.972   3.936   1.068 -2.5684 -0.0689  0.7665
16477TIP3   OH270921   0.820   0.489   5.521 -0.0181  0.0019 -0.5206
16477TIP3    H170922   0.756   0.434   5.475  0.4289 -1.0999  0.1530
16477TIP3    H270923   0.776   0.515   5.602  0.3121 -0.6136 -0.1378
16478TIP3   OH270924   0.920   2.513   1.368  0.1226  0.0042  0.2279
16478TIP3    H170925   0.924   2.423   1.335  0.8966 -0.1398  0.6816
16478TIP3    H270926   1.011   2.543   1.366 -0.3826  1.6523 -2.2033
16479TIP3   OH270927   0.171   4.843   1.120  0.2967  0.1718  0.2745
16479TIP3    H170928   0.081   4.875   1.118  0.0983 -0.4115 -0.3922
16479TIP3    H270929   0.209   4.871   1.037  1.0508  1.2776  0.9605
16480TIP3   OH270930   0.054   0.397   3.424 -0.2720 -0.0939  0.6640
16480TIP3    H170931   0.064   0.302   3.423 -0.4890 -0.1288  1.1379
16480TIP3    H270932  -0.027   0.414   3.375 -1.4809 -0.3485  2.4459
16481TIP3   OH270933   6.066   0.117   1.884  0.3086 -0.0004  0.2787
16481TIP3    H170934   5.987   0.168   1.896 -0.0185 -0.2475 -0.7768
16481TIP3    H270935   6.122   0.171   1.829 -0.0177 -0.7406 -0.7995
16482TIP3   OH270936   5.396   4.583  10.426  0.3302  0.1925  0.3496
16482TIP3    H170937   5.376   4.580  10.333  1.3881 -0.9754  0.1166
16482TIP3    H270938   5.376   4.494  10.457 -2.0580  1.1279  1.7387
16483TIP3   OH270939   0.285   1.349   6.001 -0.2030 -0.1274  0.4229
16483TIP3    H170940   0.245   1.381   6.082  0.1288  1.9507 -0.1656
16483TIP3    H270941   0.217   1.298   5.958 -0.3451 -1.3769  2.0455
16484TIP3   OH270942   5.071   0.693   4.159  0.6617  0.4425  0.2121
16484TIP3    H170943   5.142   0.632   4.140  0.2964 -0.0001  0.2262
16484TIP3    H270944   5.099   0.740   4.237  1.3237  0.8975 -0.2851
16485TIP3   OH270945   1.288   1.317   5.960  0.6175  0.0282  0.3822
16485TIP3    H170946   1.317   1.405   5.981  1.8193  0.8749 -3.8868
16485TIP3    H270947   1.369   1.267   5.950  0.0716 -0.7383 -0.2913
16486TIP3   OH270948   1.194   6.514  13.675 -0.2112  0.2017  0.5180
16486TIP3    H170949   1.271   6.505  13.731 -1.2911 -1.2612  1.8513
16486TIP3    H270950   1.144   6.585  13.715 -1.6095 -1.6811  2.2741
16487TIP3   OH270951   1.135   1.059   3.602  0.3939  0.5943 -0.4774
16487TIP3    H170952   1.056   1.112   3.615 -0.4663 -0.9696  1.1322
16487TIP3    H270953   1.194   1.087   3.671 -0.0626 -0.4805  0.3780
16488TIP3   OH270954   0.601   1.108   0.566 -0.5413 -0.1928 -0.3784
16488TIP3    H170955   0.638   1.033   0.614 -2.0554 -0.3675  0.5869
16488TIP3    H270956   0.640   1.185   0.608 -0.5145 -0.3910 -0.0373
16489TIP3   OH270957   6.115   3.342  13.047 -1.0794 -0.1158 -0.0352
16489TIP3    H170958   6.158   3.388  13.119 -0.5051  1.1334 -1.1421
16489TIP3    H270959   6.035   3.392  13.030  0.0714  1.2072 -1.9463
16490TIP3   OH270960   3.985   3.381  13.578  0.1442  0.0434 -0.7311
16490TIP3    H170961   4.029   3.463  13.553 -1.2972  0.7858 -0.9519
16490TIP3    H270962   3.929   3.405  13.652 -0.6171 -0.6352 -1.0707
16491TIP3   OH270963   1.816   4.874  10.827 -0.4878 -0.0770  0.1742
16491TIP3    H170964   1.863   4.955  10.844  0.6494 -1.1100  2.2448
16491TIP3    H270965   1.879   4.819  10.780 -0.3822 -0.6491  0.9719
16492TIP3   OH270966   5.998   3.908   1.967 -0.4694  0.5412  0.2168
16492TIP3    H170967   6.061   3.917   2.038  0.6946  1.7480 -0.8945
16492TIP3    H270968   5.925   3.965   1.993 -0.7282 -0.1750  1.1041
16493TIP3   OH270969   4.198   4.047   5.077  0.3080 -0.4532  0.1569
16493TIP3    H170970   4.118   4.093   5.102  0.3690 -0.9251  1.2708
16493TIP3    H270971   4.216   3.988   5.150  0.0322 -2.5284 -1.3586
16494TIP3   OH270972   4.446   3.630  13.032 -0.1479  0.3236 -0.1222
16494TIP3    H170973   4.517   3.611  12.970  1.6364  2.4273  1.1146
16494TIP3    H270974   4.491   3.643  13.115 -2.0565  1.3498  0.7927
16495TIP3   OH270975   4.091   6.370  16.133  0.3977 -0.0257 -0.1081
16495TIP3    H170976   4.034   6.330  16.198 -0.0937  0.4592 -0.2316
16495TIP3    H270977   4.059   6.336  16.049 -0.9151  1.6374 -0.3329
16496TIP3   OH270978   2.858   1.136  14.987  0.4760  0.3808  0.0286
16496TIP3    H170979   2.871   1.090  15.070  0.4034  2.3586  1.2064
16496TIP3    H270980   2.931   1.108  14.931  1.0405 -0.2887  1.0767
16497TIP3   OH270981   2.683   5.621   1.662 -0.0348 -0.0276  0.4839
16497TIP3    H170982   2.686   5.708   1.624  1.0779 -0.0736  0.4369
16497TIP3    H270983   2.596   5.614   1.701 -0.8736  0.3596 -1.2497
16498TIP3   OH270984   6.492   3.357  12.583 -0.2280 -0.5830  0.0221
16498TIP3    H170985   6.478   3.286  12.646 -0.2989 -0.1603  0.4881
16498TIP3    H270986   6.410   3.406  12.584 -0.2291 -0.5710 -0.4035
16499TIP3   OH270987   4.824   3.088   3.822 -0.3921 -0.3073 -0.9405
16499TIP3    H170988   4.778   3.051   3.747 -1.8049 -1.0311  0.2348
16499TIP3    H270989   4.821   3.183   3.808 -1.3604 -0.3911 -1.3856
16500TIP3   OH270990   0.970   1.496   1.818 -0.3918 -0.2808 -0.1635
16500TIP3    H170991   0.903   1.514   1.884  0.2839  0.8446  0.2472
16500TIP3    H270992   1.033   1.439   1.863  0.3819  0.9730  0.3957
16501TIP3   OH270993   4.216   1.292  15.120  0.1058  0.0090  0.3895
16501TIP3    H170994   4.309   1.301  15.140  0.0214 -0.9953  1.3193
16501TIP3    H270995   4.171   1.341  15.190 -0.0778  0.1332  0.1873
16502TIP3   OH270996   0.575   6.743   0.553  0.3654 -0.2589 -0.2197
16502TIP3    H170997   0.562   6.738   0.458  1.6383  0.7344 -0.4776
16502TIP3    H270998   0.574   6.837   0.573 -1.0540 -0.4817  0.9591
16503TIP3   OH270999   0.038   5.976   2.741 -0.0951 -0.5629 -0.3358
16503TIP3    H171000  -0.054   5.953   2.754 -0.0255 -1.0400 -0.6959
16503TIP3    H271001   0.086   5.916   2.798 -0.0804  0.7201  1.0848
16504TIP3   OH271002   5.930   6.802  14.354 -0.3827 -0.3493  0.8213
16504TIP3    H171003   5.888   6.825  14.436 -0.1076  1.2498  0.5609
16504TIP3    H271004   5.887   6.858  14.289 -0.3257 -1.3020 -0.0655
16505TIP3   OH271005   5.894   5.480   5.763 -0.3007  0.9131 -0.2232
16505TIP3    H171006   5.816   5.473   5.818  0.9443  0.7770  1.6034
16505TIP3    H271007   5.939   5.396   5.774  1.8086  2.1582  1.5290
16506TIP3   OH271008   5.465   5.117  11.334  0.2444 -0.1574 -0.9765
16506TIP3    H171009   5.429   5.105  11.246 -0.5786 -0.9704 -0.5397
16506TIP3    H271010   5.541   5.174  11.321 -0.7168  0.9461 -2.0281
16507TIP3   OH271011   2.272   5.485  16.338  0.3153 -0.7475 -0.3328
16507TIP3    H171012   2.348   5.516  16.288  1.8097 -0.6946  1.8263
16507TIP3    H271013   2.310   5.428  16.405 -1.6570 -1.2674  0.4043
16508TIP3   OH271014   4.167   3.735   4.621  0.5025  0.7898  0.7277
16508TIP3    H171015   4.195   3.715   4.710  2.6536  1.3161  0.2335
16508TIP3    H271016   4.228   3.803   4.592 -1.4850  2.1546 -0.4273
16509TIP3   OH271017   4.512   2.581  14.875 -0.1908  0.1626  0.2194
16509TIP3    H171018   4.450   2.654  14.866 -0.6172  0.0172  1.7412
16509TIP3    H271019   4.537   2.560  14.785 -0.8460  1.5157 -0.3042
16510TIP3   OH271020   2.531   4.237   1.087  0.3302 -0.2663 -0.2170
16510TIP3    H171021   2.518   4.331   1.077 -2.4260 -0.1499  2.7024
16510TIP3    H271022   2.492   4.199   1.008 -0.9944  0.9802 -0.2056
16511TIP3   OH271023   4.245   5.352  11.346  0.4319 -0.0275 -0.0082
16511TIP3    H171024   4.256   5.442  11.378 -1.4669 -0.3624  1.7521
16511TIP3    H271025   4.198   5.362  11.263  0.3259  0.5968  0.1236
16512TIP3   OH271026   0.164   2.622  10.817  0.3102 -0.0635  0.5702
16512TIP3    H171027   0.139   2.561  10.747  0.3845 -0.4139  0.8464
16512TIP3    H271028   0.214   2.690  10.772  1.0203 -0.6866  0.3853
16513TIP3   OH271029   1.061   1.201   1.635  0.2729  0.0486 -0.4601
16513TIP3    H171030   1.076   1.293   1.616  0.5164  0.1686  0.2906
16513TIP3    H271031   1.138   1.156   1.601  2.9357  0.7182  3.8909
16514TIP3   OH271032   6.604   6.773  16.206  0.5551 -0.3182 -0.7409
16514TIP3    H171033   6.618   6.697  16.149 -1.3867 -2.6485  1.6655
16514TIP3    H271034   6.558   6.837  16.151  2.4180 -0.6768 -2.8808
16515TIP3   OH271035   1.009   2.324   5.789  0.1159 -0.2757  0.0759
16515TIP3    H171036   1.016   2.418   5.804  1.4912  0.1576 -2.7539
16515TIP3    H271037   1.070   2.285   5.853 -0.2431  0.7262  1.0625
16516TIP3   OH271038   5.528   0.439   1.131 -0.1667  0.4702  0.0941
16516TIP3    H171039   5.500   0.424   1.221 -0.5194 -2.0694 -0.3616
16516TIP3    H271040   5.615   0.478   1.139 -1.0319  2.2370  1.5028
16517TIP3   OH271041   2.370   3.848  15.716  0.0673 -0.4264 -0.4125
16517TIP3    H171042   2.324   3.884  15.640  0.8032  1.3897 -0.0503
16517TIP3    H271043   2.300   3.810  15.770 -1.0826  2.0558  0.0072
16518TIP3   OH271044   4.104   6.048  12.854  0.6197 -0.1245  0.3612
16518TIP3    H171045   4.178   5.991  12.834 -0.2324 -0.6581 -1.4089
16518TIP3    H271046   4.111   6.064  12.948  1.1486 -2.7816  0.8461
16519TIP3   OH271047   5.639   2.566  16.044 -0.1570  0.0628  0.2736
16519TIP3    H171048   5.732   2.573  16.066 -0.2185  1.3974  0.1908
16519TIP3    H271049   5.630   2.616  15.963 -1.1370  0.8764  0.8781
16520TIP3   OH271050   5.383   6.298  13.993  0.4495 -0.9369 -0.0257
16520TIP3    H171051   5.385   6.313  14.087 -1.0166 -0.0546 -0.1113
16520TIP3    H271052   5.320   6.227  13.981 -1.9190  1.1039 -0.5253
16521TIP3   OH271053   3.935   2.703   1.580  0.3045  0.0269 -0.2266
16521TIP3    H171054   4.004   2.644   1.611 -1.8234 -2.4752  0.0233
16521TIP3    H271055   3.874   2.647   1.532 -1.6180  2.1090 -0.3871
16522TIP3   OH271056   5.718   3.042   3.576  0.6660  0.9522 -0.5338
16522TIP3    H171057   5.654   3.110   3.558  1.1634  0.9445 -2.5508
16522TIP3    H271058   5.780   3.046   3.503  2.2730  0.1401  0.6940
16523TIP3   OH271059   4.623   6.266  13.543 -0.0613  0.3478 -0.0297
16523TIP3    H171060   4.594   6.314  13.466  1.0688  1.1994  0.0475
16523TIP3    H271061   4.641   6.178  13.511 -1.1254  0.2506 -0.3947
16524TIP3   OH271062   6.530   1.002   5.274  0.0480 -0.1641  0.8621
16524TIP3    H171063   6.555   0.911   5.289 -0.8532 -0.7955 -1.1256
16524TIP3    H271064   6.609   1.044   5.241 -0.0991 -0.8395 -0.4195
16525TIP3   OH271065   4.323   4.820  15.917  0.4549 -0.0087 -0.2765
16525TIP3    H171066   4.243   4.768  15.923  0.1192  0.5332  0.1000
16525TIP3    H271067   4.293   4.904  15.882  0.8517  0.2118 -0.0902
16526TIP3   OH271068   0.911   0.905   0.403 -0.1254  0.5050  0.1453
16526TIP3    H171069   0.947   0.826   0.363 -1.0482 -0.9486  2.0076
16526TIP3    H271070   0.818   0.902   0.382 -0.2786  0.7355  0.7716
16527TIP3   OH271071   1.302   6.758   3.205 -0.0004 -0.2580  0.1925
16527TIP3    H171072   1.382   6.798   3.171  1.7896 -1.9399  2.0803
16527TIP3    H271073   1.232   6.817   3.179  2.1647  2.8295  0.7998
16528TIP3   OH271074   2.927   4.407  15.265 -0.5601 -0.0741  0.7778
16528TIP3    H171075   2.967   4.326  15.296 -1.3867 -1.2349 -0.9702
16528TIP3    H271076   2.990   4.476  15.286  2.4157 -1.7547 -1.7377
16529TIP3   OH271077   0.612   1.058  14.967 -0.1405  1.4013 -0.2244
16529TIP3    H171078   0.602   1.130  14.905 -0.7603  1.2427 -0.3161
16529TIP3    H271079   0.524   1.020  14.974  0.1370  0.7906 -0.0115
16530TIP3   OH271080   4.372   1.671   2.986  0.4085 -0.2246  0.0954
16530TIP3    H171081   4.461   1.635   2.993  0.7789  0.6942  0.3404
16530TIP3    H271082   4.386   1.764   2.965 -0.5119 -0.3336 -1.1142
16531TIP3   OH271083   2.820   4.376  16.970 -0.0203 -0.1767 -0.0205
16531TIP3    H171084   2.741   4.357  17.020 -1.0641 -0.3493 -1.6402
16531TIP3    H271085   2.817   4.315  16.897  0.9269  0.6844 -0.8094
16532TIP3   OH271086   4.924   3.327   5.053 -0.4543 -0.1485  0.4370
16532TIP3    H171087   4.843   3.371   5.024 -0.2945 -0.9007 -1.2623
16532TIP3    H271088   4.893   3.250   5.101 -0.7759 -0.4691 -0.2609
16533TIP3   OH271089   2.040   5.900   4.914 -0.2864  0.2580  0.3510
16533TIP3    H171090   2.028   5.833   4.846 -3.6211 -0.3623  1.3705
16533TIP3    H271091   2.023   5.853   4.996 -0.6438  1.9095  1.2568
16534TIP3   OH271092   3.660   5.444   5.518  0.0993  0.5105  0.3805
16534TIP3    H171093   3.738   5.396   5.547  0.2211 -0.3658 -1.3238
16534TIP3    H271094   3.680   5.536   5.538  1.9518  0.4039 -0.8000
16535TIP3   OH271095   5.161   0.907  17.161  0.1799  0.5068  0.3487
16535TIP3    H171096   5.124   0.959  17.090 -1.3169  1.0992  1.4906
16535TIP3    H271097   5.196   0.829  17.119 -0.7402  0.8022 -1.0228
16536TIP3   OH271098   1.419   0.231   2.183  0.0287 -0.1606  0.1246
16536TIP3    H171099   1.389   0.177   2.256 -0.6396  1.3131  0.9774
16536TIP3    H271100   1.488   0.286   2.221 -0.6424  0.9392 -0.2131
16537TIP3   OH271101   3.432   0.816  14.930 -0.2389 -0.2628  0.0867
16537TIP3    H171102   3.486   0.833  15.008 -0.7437 -0.6037  0.5171
16537TIP3    H271103   3.491   0.774  14.869  0.3317  0.5757  0.0399
16538TIP3   OH271104   6.609   5.433   2.714 -0.0848 -0.2911  0.6115
16538TIP3    H171105   6.680   5.493   2.734 -0.7320  1.1243 -1.1291
16538TIP3    H271106   6.544   5.486   2.668 -0.7432 -2.2826 -0.9266
16539TIP3   OH271107   6.070   0.075   5.803 -0.4384  0.6924 -0.6715
16539TIP3    H171108   6.161   0.045   5.806 -0.4768  0.6341  0.3923
16539TIP3    H271109   6.035   0.037   5.723  0.3426  0.3052 -0.8385
16540TIP3   OH271110   2.156   4.093   4.433  0.3058  0.2868 -0.0204
16540TIP3    H171111   2.208   4.140   4.367  0.9772 -1.5871 -0.8921
16540TIP3    H271112   2.127   4.014   4.388 -0.9855 -0.0294  1.3312
16541TIP3   OH271113   6.246   5.561   5.132 -0.0892 -0.9981  0.3206
16541TIP3    H171114   6.271   5.472   5.156 -0.5363 -0.9652  0.9530
16541TIP3    H271115   6.204   5.552   5.046  0.0830 -1.3636  0.2743
16542TIP3   OH271116   6.001   5.143  14.949 -0.0562 -0.0313  0.4104
16542TIP3    H171117   6.015   5.110  14.860  1.2109 -0.3345  0.7038
16542TIP3    H271118   5.907   5.132  14.964 -0.4893  0.9891 -1.2680
16543TIP3   OH271119   6.036   1.810  12.143  0.2021  0.1959 -0.7013
16543TIP3    H171120   6.065   1.876  12.207 -0.4578  0.2209 -0.4210
16543TIP3    H271121   6.086   1.830  12.064  2.2770 -0.8200  0.2458
16544TIP3   OH271122   1.922   1.597  15.241  0.8410  0.2122  0.6157
16544TIP3    H171123   1.983   1.620  15.312  0.9527 -0.2038  0.6548
16544TIP3    H271124   1.860   1.670  15.239  1.7287  0.9772  0.1354
16545TIP3   OH271125   0.511   3.292  13.343 -0.1995  0.8940 -0.1073
16545TIP3    H171126   0.435   3.330  13.299  0.1790  0.8908 -0.7767
16545TIP3    H271127   0.492   3.199  13.350 -1.3105  1.2191  1.8995
16546TIP3   OH271128   1.186   6.384  11.006  0.0795 -0.0989 -0.1174
16546TIP3    H171129   1.235   6.302  10.998 -0.9934 -0.8383  0.7213
16546TIP3    H271130   1.142   6.377  11.090 -2.0183  0.2476 -1.1401
16547TIP3   OH271131   6.160   3.495  14.803 -0.6434  0.2036  0.3544
16547TIP3    H171132   6.208   3.417  14.776 -0.7017  1.1185 -2.7206
16547TIP3    H271133   6.116   3.469  14.884 -0.3952 -2.8141 -0.3716
16548TIP3   OH271134   0.967   2.708   3.624 -0.1116  0.0324 -0.4583
16548TIP3    H171135   0.957   2.747   3.711  1.7075 -0.0041 -0.1836
16548TIP3    H271136   0.885   2.660   3.609 -0.6267  0.3955  1.0519
16549TIP3   OH271137   1.810   1.463  16.481 -0.1739  0.3745 -0.0976
16549TIP3    H171138   1.736   1.515  16.513 -1.3288  0.8673 -3.2031
16549TIP3    H271139   1.794   1.375  16.516 -1.5307  0.7642  0.3351
16550TIP3   OH271140   5.820   6.463  13.784 -0.2773 -0.4241 -0.2861
16550TIP3    H171141   5.732   6.498  13.798  0.0420 -0.2281  1.5719
16550TIP3    H271142   5.879   6.531  13.817  0.5233 -1.0187 -0.4530
16551TIP3   OH271143   1.767   2.445   0.939  0.0705  0.0841  0.3098
16551TIP3    H171144   1.814   2.434   1.022 -1.5354  0.3240  1.2856
16551TIP3    H271145   1.740   2.356   0.915  2.7279 -0.3923 -1.3795
16552TIP3   OH271146   4.811   6.309  15.491  0.1093  0.3808  0.1859
16552TIP3    H171147   4.854   6.372  15.433 -0.2930 -0.6010 -1.2258
16552TIP3    H271148   4.856   6.226  15.474  0.4612  0.1836  1.8312
16553TIP3   OH271149   4.891   3.029   2.362  0.4522  0.2216  0.4274
16553TIP3    H171150   4.797   3.032   2.383  0.6013 -0.6173  1.3221
16553TIP3    H271151   4.910   2.935   2.357  1.0256  0.3962 -0.8095
16554TIP3   OH271152   3.583   6.099  13.261  0.2878 -0.1286 -0.1742
16554TIP3    H171153   3.546   6.021  13.302 -0.3647  0.0448 -0.4203
16554TIP3    H271154   3.656   6.066  13.209  1.3214 -0.3147  1.3521
16555TIP3   OH271155   4.700   0.400   3.630 -0.1095  0.0602 -0.0575
16555TIP3    H171156   4.773   0.405   3.691 -0.0465  0.9201 -0.2007
16555TIP3    H271157   4.690   0.306   3.613  0.3464 -0.1297  0.6954
16556TIP3   OH271158   5.895   4.300   2.630  0.0321  0.3371 -0.1490
16556TIP3    H171159   5.845   4.287   2.549  1.2408 -0.9366 -0.7335
16556TIP3    H271160   5.850   4.370   2.675 -2.8500 -1.3345 -0.1989
16557TIP3   OH271161   2.598   2.431  10.953 -0.0468  0.1221 -0.1551
16557TIP3    H171162   2.559   2.412  10.868  1.8956  0.2293 -1.1383
16557TIP3    H271163   2.678   2.378  10.955  0.8994  1.4971  0.7873
16558TIP3   OH271164   0.058   1.784   4.416 -0.1020 -0.4289 -0.0107
16558TIP3    H171165   0.128   1.786   4.481 -0.8133  1.1242  0.7550
16558TIP3    H271166  -0.012   1.734   4.457 -0.7441  0.9819  0.6539
16559TIP3   OH271167   0.655   3.663   2.590  0.0282 -0.2198 -0.6454
16559TIP3    H171168   0.632   3.570   2.596 -3.3713  0.5611  2.3186
16559TIP3    H271169   0.715   3.677   2.663 -2.6485  0.4372  1.6349
16560TIP3   OH271170   3.506   4.737  13.002  0.1582 -0.3659  0.3960
16560TIP3    H171171   3.496   4.663  13.062  0.3832 -0.0357  0.8507
16560TIP3    H271172   3.585   4.718  12.952  0.1078 -0.5242  0.3766
16561TIP3   OH271173   6.230   5.740   3.877  0.3073  0.0326  0.2864
16561TIP3    H171174   6.240   5.812   3.815  1.4175 -0.0318  0.3676
16561TIP3    H271175   6.140   5.710   3.866 -0.5855  2.2444  1.1541
16562TIP3   OH271176   3.869   3.400  15.544 -0.2309  0.2622  0.0998
16562TIP3    H171177   3.913   3.326  15.501 -1.9456  0.2037 -1.6858
16562TIP3    H271178   3.811   3.359  15.608  0.2677  0.1919  0.5145
16563TIP3   OH271179   6.587   6.112  17.002  0.2498 -0.2397 -0.0141
16563TIP3    H171180   6.615   6.087  16.914  0.9335 -1.1082  0.4308
16563TIP3    H271181   6.520   6.179  16.988 -0.5325 -1.2259 -1.2416
16564TIP3   OH271182   4.688   2.487  13.181  0.3142 -0.3970 -0.3673
16564TIP3    H171183   4.728   2.510  13.264 -1.0089  0.7295 -0.0050
16564TIP3    H271184   4.679   2.391  13.185 -1.2301 -0.2515  1.5529
16565TIP3   OH271185   0.100   4.637   5.502 -0.4631  0.8227  0.2082
16565TIP3    H171186   0.166   4.706   5.506  0.7453 -0.3087  0.8043
16565TIP3    H271187   0.110   4.590   5.585 -3.0027  1.4453  0.9479
16566TIP3   OH271188   2.978   6.054   5.053 -0.0139 -0.1599  0.1933
16566TIP3    H171189   2.884   6.043   5.059  0.0444 -0.4265  0.6692
16566TIP3    H271190   2.998   6.123   5.115 -0.1947  1.7175 -1.7179
16567TIP3   OH271191   5.293   5.574  11.793 -0.1585 -0.0365  0.3573
16567TIP3    H171192   5.385   5.592  11.776  0.0588  2.1695  3.0519
16567TIP3    H271193   5.295   5.505  11.860 -0.7301 -2.9390 -2.3632
16568TIP3   OH271194   4.706   2.674   2.532  0.1695  0.9475 -0.1945
16568TIP3    H171195   4.624   2.638   2.501 -0.1394  1.8208 -0.4123
16568TIP3    H271196   4.750   2.600   2.575 -0.4765  0.3442 -0.5516
16569TIP3   OH271197   0.410   2.393  13.853 -0.4453 -0.4995  0.1351
16569TIP3    H171198   0.322   2.410  13.820 -0.0149  1.0099 -0.3186
16569TIP3    H271199   0.468   2.417  13.781  0.3681 -0.7807  0.6804
16570TIP3   OH271200   2.383   1.180   4.939 -0.4027 -0.3083 -0.5057
16570TIP3    H171201   2.465   1.228   4.930 -1.5725  1.8875 -0.1033
16570TIP3    H271202   2.402   1.113   5.005  1.4223 -0.7807 -1.4465
16571TIP3   OH271203   2.659   5.297  12.856 -0.1227  0.0717  0.4137
16571TIP3    H171204   2.636   5.208  12.880  0.2965 -0.1486  0.0052
16571TIP3    H271205   2.593   5.351  12.900  0.4032 -0.3354  1.7669
16572TIP3   OH271206   0.587   4.567   0.305  0.2065 -0.7142  0.0486
16572TIP3    H171207   0.530   4.594   0.234 -0.3222  0.2710  0.8202
16572TIP3    H271208   0.530   4.564   0.382  1.2966  1.1320  1.0170
16573TIP3   OH271209   0.020   4.261   1.564  0.0380  0.0237 -0.6912
16573TIP3    H171210  -0.039   4.239   1.492  0.5336 -0.2493 -1.0158
16573TIP3    H271211   0.107   4.236   1.533  0.5218  1.6476 -0.7343
16574TIP3   OH271212   6.612   6.314  15.845 -0.0222  0.4546 -0.9056
16574TIP3    H171213   6.545   6.253  15.876  0.4045  1.2391  1.8500
16574TIP3    H271214   6.691   6.261  15.838 -0.1885  0.1999 -0.8658
16575TIP3   OH271215   1.159   0.551  13.788  0.1351  0.1784  0.5611
16575TIP3    H171216   1.246   0.550  13.828  0.3351  3.2065  0.4142
16575TIP3    H271217   1.174   0.584  13.699 -1.0233 -0.6715  0.0242
16576TIP3   OH271218   1.214   1.644  13.905 -0.2235 -0.7273  0.5632
16576TIP3    H171219   1.226   1.625  13.812 -1.3200 -0.8537  0.4334
16576TIP3    H271220   1.267   1.721  13.921 -1.2850  0.2760 -0.5488
16577TIP3   OH271221   6.376   4.866  16.332 -0.4483  0.2370  0.1327
16577TIP3    H171222   6.294   4.915  16.323  0.0678  1.1135  0.0871
16577TIP3    H271223   6.420   4.906  16.406  0.4223  0.4915 -0.5036
16578TIP3   OH271224   0.429   5.470   3.744 -0.0892  0.2326  0.4979
16578TIP3    H171225   0.508   5.511   3.780 -0.1378  0.5458  0.2556
16578TIP3    H271226   0.368   5.542   3.732  0.0717  0.1992 -0.5924
16579TIP3   OH271227   4.640   6.124  12.973  0.0012  0.2457  0.0726
16579TIP3    H171228   4.692   6.201  12.995  1.5745 -0.4982 -0.8944
16579TIP3    H271229   4.593   6.148  12.894 -1.4118  1.0217  1.1083
16580TIP3   OH271230   5.165   3.630   3.829 -0.2046 -0.0051  0.7625
16580TIP3    H171231   5.118   3.619   3.746  0.5841 -0.8894  0.4170
16580TIP3    H271232   5.121   3.571   3.890  0.0509 -0.3667  0.6035
16581TIP3   OH271233   5.481   5.310   4.793  0.4261 -0.3081  0.1034
16581TIP3    H171234   5.392   5.291   4.763 -0.2850  1.2558  1.0889
16581TIP3    H271235   5.532   5.323   4.713 -0.6771  0.6136 -0.4779
16582TIP3   OH271236   4.232   2.233  13.439 -0.2648  0.4230 -0.1389
16582TIP3    H171237   4.161   2.186  13.396 -1.7251  2.2701  0.1070
16582TIP3    H271238   4.303   2.169  13.446 -0.8553 -0.6860 -2.9612
16583TIP3   OH271239   1.711   4.401   0.340  0.0342 -0.5040 -0.6067
16583TIP3    H171240   1.657   4.457   0.396 -0.7751 -1.5645 -0.3017
16583TIP3    H271241   1.772   4.462   0.298 -1.3289  0.7158 -0.9115
16584TIP3   OH271242   4.776   6.633   2.159  0.1507 -0.2731 -0.0872
16584TIP3    H171243   4.830   6.662   2.085 -0.7191  0.4878 -0.4442
16584TIP3    H271244   4.737   6.713   2.194  0.8052 -0.5769  1.4323
16585TIP3   OH271245   1.052   6.528   3.831 -0.1730  0.1314  0.3108
16585TIP3    H171246   1.010   6.452   3.791 -1.5548  1.0585 -0.0706
16585TIP3    H271247   1.091   6.576   3.757  2.5802 -1.2346  0.7410
16586TIP3   OH271248   2.666   6.152   1.487 -0.3387  0.0738 -0.4423
16586TIP3    H171249   2.672   6.140   1.393  0.4120  0.1335 -0.4092
16586TIP3    H271250   2.734   6.216   1.508  0.5931 -1.1199  0.3419
16587TIP3   OH271251   5.934   0.440   2.083 -0.0138  0.7230 -0.3345
16587TIP3    H171252   5.846   0.449   2.048  0.2804 -1.1930 -1.7290
16587TIP3    H271253   5.990   0.486   2.020  0.1647  0.3144 -0.4789
16588TIP3   OH271254   6.816   2.260   3.334  0.3042 -0.6480 -0.5169
16588TIP3    H171255   6.786   2.332   3.389 -0.1106 -0.5866 -0.8115
16588TIP3    H271256   6.887   2.297   3.281  0.8716 -0.7768  0.1444
16589TIP3   OH271257   6.343   0.642   2.975 -0.1183 -0.3035 -0.3181
16589TIP3    H171258   6.403   0.583   2.928 -0.3850 -0.7562 -0.0866
16589TIP3    H271259   6.289   0.585   3.029 -0.1333  0.1809  0.1907
16590TIP3   OH271260   6.725   3.467  14.933  0.1128 -0.1669  0.6663
16590TIP3    H171261   6.692   3.542  14.982  0.8464  0.4282  0.2674
16590TIP3    H271262   6.770   3.413  14.998 -1.0544 -0.6598  1.0928
16591TIP3   OH271263   3.859   6.085  13.850 -0.4149  0.7430  0.1529
16591TIP3    H171264   3.840   6.107  13.759 -2.0612 -0.6849  0.1155
16591TIP3    H271265   3.919   6.155  13.879  1.9415  0.0883 -2.6133
16592TIP3   OH271266   0.194   1.116   4.157  0.2193 -0.4448 -0.1658
16592TIP3    H171267   0.133   1.123   4.083  0.0038 -1.0680 -0.0510
16592TIP3    H271268   0.253   1.044   4.132  0.2899 -0.5013  0.1655
16593TIP3   OH271269   1.439   0.276  16.306  0.0909 -0.2426 -0.2540
16593TIP3    H171270   1.415   0.208  16.369  0.1179 -1.0465 -1.0829
16593TIP3    H271271   1.369   0.274  16.241  0.7276 -0.3367 -0.9478
16594TIP3   OH271272   1.686   3.731   0.829 -0.3230 -0.3485 -0.1459
16594TIP3    H171273   1.723   3.652   0.789 -1.9371 -1.2724  0.0922
16594TIP3    H271274   1.624   3.698   0.894 -0.9772  1.1230  0.0191
16595TIP3   OH271275   1.852   1.078  16.392 -0.2227 -0.2059 -0.0535
16595TIP3    H171276   1.859   1.160  16.342  2.1476  1.1297  2.2112
16595TIP3    H271277   1.822   1.106  16.479  0.1861 -1.7982  0.6295
16596TIP3   OH271278   3.961   5.249  14.801  0.7360 -0.3952  0.2765
16596TIP3    H171279   4.035   5.248  14.740  1.9634 -2.3585  1.6966
16596TIP3    H271280   3.928   5.159  14.801  1.1284 -0.6185  2.8377
16597TIP3   OH271281   3.250   1.493   4.536  0.0228 -0.1805  0.9109
16597TIP3    H171282   3.330   1.440   4.531 -1.1604 -1.9791 -0.1501
16597TIP3    H271283   3.185   1.443   4.486 -1.1492  2.4079 -0.3293
16598TIP3   OH271284   0.913   0.099   2.478 -0.1154 -0.1510 -0.0902
16598TIP3    H171285   0.890   0.192   2.477 -1.0945 -0.3904 -0.6349
16598TIP3    H271286   0.914   0.076   2.571  0.9942  0.5994  0.1001
16599TIP3   OH271287   0.805   2.152   3.493 -0.3586  0.0884  0.2093
16599TIP3    H171288   0.755   2.233   3.497 -0.5533 -0.0879  1.8886
16599TIP3    H271289   0.792   2.120   3.403 -0.5473  1.7166 -0.3720
16600TIP3   OH271290   3.004   1.665   4.415 -0.2440 -0.3979 -0.2922
16600TIP3    H171291   3.083   1.704   4.453 -0.5432  0.0837 -0.1546
16600TIP3    H271292   3.020   1.668   4.320 -0.2056 -0.0629 -0.2765
16601TIP3   OH271293   4.426   5.011  12.013 -0.8483  0.0848 -0.3557
16601TIP3    H171294   4.462   5.059  12.087 -0.8113  0.5141 -0.6448
16601TIP3    H271295   4.432   5.072  11.940 -1.2538 -0.1890 -0.6243
16602TIP3   OH271296   3.530   0.822   2.918  0.2073  0.3337  0.2312
16602TIP3    H171297   3.584   0.872   2.980 -0.2815  0.6765  0.3845
16602TIP3    H271298   3.590   0.757   2.881  1.1924  1.8498 -0.9341
16603TIP3   OH271299   6.529   5.085   0.658 -0.1999 -0.0863 -0.4642
16603TIP3    H171300   6.533   5.163   0.602 -1.9317  1.6830  1.6954
16603TIP3    H271301   6.493   5.017   0.601 -1.0898  1.3966 -1.7580
16604TIP3   OH271302   1.529   4.572   3.345  0.0141 -0.1420 -0.8007
16604TIP3    H171303   1.530   4.642   3.279  2.0614 -0.2580 -0.9591
16604TIP3    H271304   1.459   4.514   3.316 -0.8667  1.1490 -1.3925
16605TIP3   OH271305   6.683   5.410  13.372 -0.1594  0.2842  0.2479
16605TIP3    H171306   6.742   5.338  13.391  1.7446  1.8286  0.5353
16605TIP3    H271307   6.662   5.448  13.457 -1.4861 -0.1316  0.1369
16606TIP3   OH271308   4.898   1.594  15.888  0.4459 -0.5749 -0.2688
16606TIP3    H171309   4.900   1.672  15.942 -1.5354  0.0546 -1.0128
16606TIP3    H271310   4.818   1.548  15.914  0.1269 -0.9158 -1.7222
16607TIP3   OH271311   1.117   2.101   3.377 -0.0912  0.2007  0.1897
16607TIP3    H171312   1.037   2.152   3.374 -1.9321 -2.4420  0.6315
16607TIP3    H271313   1.134   2.088   3.471 -0.3631 -0.9431  0.0977
16608TIP3   OH271314   0.455   1.481  13.754  0.1400  0.5228  0.4514
16608TIP3    H171315   0.546   1.511  13.749 -0.2343  2.0512  1.7364
16608TIP3    H271316   0.448   1.412  13.688  1.9313  1.1369 -0.4361
16609TIP3   OH271317   5.914   1.093   5.500  0.5927 -0.0541 -0.1525
16609TIP3    H171318   5.927   1.188   5.506 -0.4037  0.1185 -0.5988
16609TIP3    H271319   6.003   1.058   5.492  1.0245  0.7708  0.7898
16610TIP3   OH271320   3.396   5.106  16.126  0.2740 -0.2415 -0.1268
16610TIP3    H171321   3.312   5.074  16.092 -1.5500  1.6528  2.1397
16610TIP3    H271322   3.417   5.181  16.070 -0.1962 -0.0251 -0.0259
16611TIP3   OH271323   4.419   2.516  13.269 -0.2133  0.2198  0.1903
16611TIP3    H171324   4.491   2.578  13.256 -0.4973  0.5286  0.0705
16611TIP3    H271325   4.461   2.430  13.271  0.6867  0.5611  3.8226
16612TIP3   OH271326   1.533   3.019  15.659  0.3704 -0.0748  0.1608
16612TIP3    H171327   1.594   3.084  15.622  0.0434 -0.0307 -0.3066
16612TIP3    H271328   1.566   2.935  15.628 -0.1629 -0.0041 -0.6096
16613TIP3   OH271329   4.048   0.323   2.963  0.5243 -0.0784  0.4554
16613TIP3    H171330   4.127   0.372   2.989  0.9888 -1.0137  0.8408
16613TIP3    H271331   4.080   0.253   2.907 -0.0341 -0.4393  0.5781
16614TIP3   OH271332   5.515   2.078  15.213  0.1122 -0.8087 -0.2759
16614TIP3    H171333   5.452   2.062  15.143 -0.4195  1.1309 -0.2895
16614TIP3    H271334   5.595   2.105  15.168  0.1617 -0.8043 -0.1861
16615TIP3   OH271335   6.794   0.654  13.066  0.3034 -0.3086 -0.1333
16615TIP3    H171336   6.724   0.719  13.056 -0.2601 -0.3509  2.6783
16615TIP3    H271337   6.875   0.704  13.052 -0.1702  0.7009  0.5678
16616TIP3   OH271338   0.386   4.820  10.952  0.0491  0.1958  0.2816
16616TIP3    H171339   0.317   4.885  10.965  0.6819  0.8808  0.2946
16616TIP3    H271340   0.356   4.766  10.879  0.1984  1.4522 -0.7359
16617TIP3   OH271341   5.129   1.066  12.759 -0.4970 -0.3657 -0.2803
16617TIP3    H171342   5.185   1.113  12.821 -0.2185 -2.7749  1.4279
16617TIP3    H271343   5.187   1.041  12.688 -0.5206  1.2453 -0.9149
16618TIP3   OH271344   4.508   5.401   0.161 -0.1149  0.3409  0.2526
16618TIP3    H171345   4.524   5.434   0.250  1.2284 -0.2069  0.2325
16618TIP3    H271346   4.593   5.408   0.117 -0.6324  0.0774 -0.8200
16619TIP3   OH271347   4.930   2.196   5.315 -0.3278  1.2992 -0.1064
16619TIP3    H171348   4.936   2.257   5.241  0.6048 -0.1407 -1.2852
16619TIP3    H271349   4.988   2.233   5.381  1.8770  0.7048 -1.5981
16620TIP3   OH271350   5.302   5.809  16.705  0.2018  0.1274  0.0683
16620TIP3    H171351   5.344   5.871  16.765  0.8955  0.4193 -0.7009
16620TIP3    H271352   5.210   5.809  16.732  0.2721  1.1657  0.3692
16621TIP3   OH271353   5.824   3.088  12.914  0.1575  0.6456  0.4989
16621TIP3    H171354   5.741   3.041  12.924  0.6409 -0.6036 -1.0112
16621TIP3    H271355   5.835   3.135  12.997 -1.3868 -0.2491  1.2513
16622TIP3   OH271356   0.900   5.389  11.659  0.7130 -0.7753 -0.0172
16622TIP3    H171357   0.905   5.435  11.575 -1.3086  0.4524  0.4704
16622TIP3    H271358   0.926   5.299  11.638  1.6377 -0.1741 -1.6551
16623TIP3   OH271359   4.613   5.670  14.680 -0.1458  0.2760  0.3953
16623TIP3    H171360   4.609   5.692  14.587 -0.5861  0.0649  0.3606
16623TIP3    H271361   4.658   5.585  14.682 -1.7841 -0.6357  0.2046
16624TIP3   OH271362   5.372   2.027  14.559  0.2939 -0.7243 -0.0204
16624TIP3    H171363   5.412   2.110  14.585  0.7817 -0.1853 -2.2770
16624TIP3    H271364   5.287   2.027  14.602  0.7557  0.3904  0.9608
16625TIP3   OH271365   4.343   4.263  15.140 -0.5772 -0.1834  0.4191
16625TIP3    H171366   4.341   4.224  15.053 -0.6866 -0.5034  0.5620
16625TIP3    H271367   4.335   4.357  15.125  0.4319 -0.1532  0.0225
16626TIP3   OH271368   4.927   3.408  12.363 -0.7454 -0.4587  0.3368
16626TIP3    H171369   4.904   3.349  12.291 -1.7844 -0.5430  0.7200
16626TIP3    H271370   4.969   3.482  12.320 -0.9826 -0.6974 -0.3238
16627TIP3   OH271371   4.621   1.199  12.536 -0.5443  0.1417 -0.1997
16627TIP3    H171372   4.666   1.279  12.510 -1.4372  0.1463 -1.9192
16627TIP3    H271373   4.642   1.187  12.628 -0.5498  2.4582  0.1488
16628TIP3   OH271374   0.306   4.457  16.831  0.5047 -0.3731 -0.1763
16628TIP3    H171375   0.240   4.407  16.879 -0.3171 -0.3641 -1.2450
16628TIP3    H271376   0.364   4.391  16.792  0.7650 -0.4026  0.2550
16629TIP3   OH271377   0.090   4.655  12.644 -0.5399 -0.0253  0.3769
16629TIP3    H171378   0.121   4.702  12.566 -1.9971  0.0672 -0.1753
16629TIP3    H271379   0.038   4.582  12.609 -2.2785  0.7510  1.2289
16630TIP3   OH271380   2.945   0.782  16.811  0.1704 -0.1297  0.0675
16630TIP3    H171381   2.991   0.727  16.875  0.5940  1.9006  1.5985
16630TIP3    H271382   2.994   0.864  16.810 -0.0247  0.0592 -2.6818
16631TIP3   OH271383   0.114   5.844  10.535 -0.3298  0.1674  0.1546
16631TIP3    H171384   0.140   5.928  10.497  0.5189 -0.8068 -1.4919
16631TIP3    H271385   0.138   5.779  10.470 -1.4453 -1.3387  1.1732
16632TIP3   OH271386   4.517   4.290  13.216 -0.3499 -0.5209 -0.1698
16632TIP3    H171387   4.429   4.325  13.211  0.4268  1.4273 -1.2289
16632TIP3    H271388   4.559   4.340  13.286  0.5778  0.2262 -1.2279
16633TIP3   OH271389   6.035   5.061   2.774 -0.0624  0.2775  0.1101
16633TIP3    H171390   6.111   5.073   2.831  0.1803  1.3493 -0.4141
16633TIP3    H271391   5.966   5.113   2.814  0.3185  1.6348 -0.9390
16634TIP3   OH271392   1.651   1.786   0.668  0.3531  0.2061  0.3998
16634TIP3    H171393   1.559   1.762   0.675  0.4072  0.3584  2.3240
16634TIP3    H271394   1.679   1.800   0.759  2.2829  0.1246 -0.1282
16635TIP3   OH271395   6.192   3.914   4.482  0.6524 -0.1524  0.2296
16635TIP3    H171396   6.130   3.915   4.409  0.8211 -1.9261  0.0124
16635TIP3    H271397   6.148   3.964   4.551  0.1780  0.9247 -0.8102
16636TIP3   OH271398   1.974   6.200   3.866 -0.0740  0.0245  0.3039
16636TIP3    H171399   1.979   6.134   3.935  1.3980  0.8011  0.9770
16636TIP3    H271400   2.024   6.163   3.793 -2.9862 -1.5286 -1.0700
16637TIP3   OH271401   1.287   0.033   0.029 -0.2316  0.4660  0.2688
16637TIP3    H171402   1.351   0.067   0.092  1.3560  1.8035 -1.9140
16637TIP3    H271403   1.251   0.112  -0.013 -0.9687 -0.3844 -0.7473
16638TIP3   OH271404   3.865   0.873  15.104  0.0308  0.1947  0.5275
16638TIP3    H171405   3.934   0.811  15.128  0.1929 -0.3677 -1.2479
16638TIP3    H271406   3.911   0.941  15.053 -0.4945  0.6234  0.6205
16639TIP3   OH271407   1.703   2.925   4.000  0.1425  0.1515 -0.1348
16639TIP3    H171408   1.674   3.009   4.034  0.3235 -0.3562  1.3322
16639TIP3    H271409   1.646   2.908   3.925 -0.5711  1.0889  0.1876
16640TIP3   OH271410   4.555   0.472  11.073  0.0483 -0.5790 -0.5829
16640TIP3    H171411   4.564   0.463  10.978  2.3727  0.3247 -0.5142
16640TIP3    H271412   4.596   0.394  11.109  0.8348 -0.0577 -0.3187
16641TIP3   OH271413   1.807   0.377   4.456  0.5094  0.0980 -0.4408
16641TIP3    H171414   1.846   0.392   4.370 -0.1184 -0.9302 -0.9297
16641TIP3    H271415   1.714   0.396   4.444 -0.0979 -2.6149 -0.7709
16642TIP3   OH271416   3.713   4.318  16.764  0.5769 -0.2447  0.3461
16642TIP3    H171417   3.670   4.255  16.707  0.0756  0.8350 -0.4988
16642TIP3    H271418   3.668   4.401  16.747  2.1743  0.6536  0.3615
16643TIP3   OH271419   0.360   1.127   3.789  0.2245  0.9903 -0.6102
16643TIP3    H171420   0.337   1.035   3.803  0.7130  1.0909  1.0641
16643TIP3    H271421   0.362   1.137   3.694 -0.6531 -0.5162 -0.8124
16644TIP3   OH271422   3.496   5.791  16.967 -0.8445  0.1586 -0.1274
16644TIP3    H171423   3.549   5.733  17.022  0.9435  0.2595 -1.6455
16644TIP3    H271424   3.493   5.873  17.015  0.7583  0.2736 -0.1574
16645TIP3   OH271425   3.485   6.302  14.659  0.0559 -0.3943  0.0160
16645TIP3    H171426   3.546   6.330  14.727 -0.0968  0.2480 -0.1041
16645TIP3    H271427   3.442   6.382  14.630 -0.7839 -0.8296  0.0283
16646TIP3   OH271428   2.267   1.766   2.257  0.3704 -0.2189  0.0795
16646TIP3    H171429   2.346   1.751   2.309 -0.3036  0.5216  1.4021
16646TIP3    H271430   2.294   1.753   2.166  2.4726  1.7293  0.3332
16647TIP3   OH271431   1.470   0.085   5.276  0.8119 -0.1202  0.2453
16647TIP3    H171432   1.505   0.047   5.356 -0.7399  1.4480  1.7675
16647TIP3    H271433   1.470   0.179   5.292 -1.5555  0.1276 -0.6705
16648TIP3   OH271434   1.456   4.668  11.464  0.2114  0.4731 -0.2446
16648TIP3    H171435   1.465   4.632  11.375  0.1299 -2.2297  0.7276
16648TIP3    H271436   1.367   4.643  11.490  0.7508 -0.1441  1.1038
16649TIP3   OH271437   0.865   5.862  13.110 -0.7080 -0.0160  0.1421
16649TIP3    H171438   0.817   5.780  13.114 -0.2845 -0.3333 -0.8565
16649TIP3    H271439   0.953   5.837  13.079 -0.3853  0.7375  0.4217
16650TIP3   OH271440   6.548   2.371   0.227  0.1369 -0.0391  0.1298
16650TIP3    H171441   6.607   2.355   0.153 -1.7253  0.8592 -1.6516
16650TIP3    H271442   6.460   2.359   0.191 -0.8909  1.6831  1.8648
16651TIP3   OH271443   1.166   5.843   0.472 -0.3476  0.1622  0.5000
16651TIP3    H171444   1.166   5.904   0.398  1.4401  1.7353  1.6882
16651TIP3    H271445   1.102   5.776   0.448 -1.3244  1.7038 -1.5434
16652TIP3   OH271446   2.226   1.791  12.304 -0.3976 -0.1405 -0.4375
16652TIP3    H171447   2.190   1.869  12.263  1.1302  1.3435  0.8910
16652TIP3    H271448   2.178   1.782  12.386 -0.0175 -0.0796 -0.2018
16653TIP3   OH271449   5.803   3.966   0.777 -0.0896  0.1857  0.4261
16653TIP3    H171450   5.814   4.007   0.863  1.2244  0.1791  0.2774
16653TIP3    H271451   5.824   4.036   0.715  1.4681 -0.4778  0.1605
16654TIP3   OH271452   2.024   0.195   6.159 -0.6075  0.1557  0.2007
16654TIP3    H171453   2.114   0.225   6.170 -1.2359  1.7425  1.4360
16654TIP3    H271454   2.031   0.118   6.102  1.5055  0.2471  0.2568
16655TIP3   OH271455   3.650   1.715  13.290 -0.2188  0.3236  0.3973
16655TIP3    H171456   3.705   1.784  13.253  0.3716 -0.7152 -0.7222
16655TIP3    H271457   3.712   1.655  13.332 -0.4543 -0.8945 -0.9301
16656TIP3   OH271458   1.570   0.502   2.539  0.2066  0.3281  0.5056
16656TIP3    H171459   1.496   0.443   2.553 -1.2074  2.0542  0.6878
16656TIP3    H271460   1.583   0.502   2.444 -0.3763  0.3791  0.4211
16657TIP3   OH271461   3.510   4.159   4.973 -0.0368 -0.2394  0.6450
16657TIP3    H171462   3.539   4.144   4.883 -0.2619 -0.1242  0.5525
16657TIP3    H271463   3.431   4.105   4.982 -1.2351  1.3428  0.0992
16658TIP3   OH271464   6.599   6.194   3.263 -0.3850  0.2736  1.1992
16658TIP3    H171465   6.647   6.148   3.195 -2.7456 -1.2716  0.4793
16658TIP3    H271466   6.660   6.199   3.337  2.0972  1.6559 -0.8211
16659TIP3   OH271467   3.691   2.103   1.654  0.0873 -0.0374 -0.2672
16659TIP3    H171468   3.704   2.049   1.577 -2.8511 -0.3193 -0.6767
16659TIP3    H271469   3.596   2.102   1.669  0.3198  1.8707  1.9984
16660TIP3   OH271470   4.025   4.011  11.844  0.4912  0.0538 -0.9385
16660TIP3    H171471   4.074   3.931  11.829 -0.4119 -0.3985 -1.5597
16660TIP3    H271472   4.077   4.080  11.803  1.5492 -0.1120  0.0885
16661TIP3   OH271473   6.632   1.626   5.657 -0.1574  0.1737  0.0612
16661TIP3    H171474   6.699   1.639   5.590 -1.8485  0.9921 -1.5500
16661TIP3    H271475   6.634   1.532   5.676  3.0661  0.4547  1.9191
16662TIP3   OH271476   5.538   3.291  16.844 -0.0746  0.5351  0.2019
16662TIP3    H171477   5.614   3.258  16.892  0.6515 -0.1765 -1.3576
16662TIP3    H271478   5.572   3.368  16.797  0.1540 -0.6575 -1.7016
16663TIP3   OH271479   4.176   2.986   5.583  0.7590 -0.0833 -0.3675
16663TIP3    H171480   4.220   3.025   5.659 -0.3617 -1.6394  1.1608
16663TIP3    H271481   4.091   3.031   5.579  1.7575  1.7827 -2.3261
16664TIP3   OH271482   0.261   5.181  12.823 -0.3682  0.1305 -0.0138
16664TIP3    H171483   0.206   5.131  12.882 -1.2953  0.4594 -0.5767
16664TIP3    H271484   0.223   5.269  12.824  1.4412  0.9677  1.2429
16665TIP3   OH271485   1.274   5.136  12.603  0.5578  0.1269 -0.0800
16665TIP3    H171486   1.253   5.217  12.649  2.6457  1.9052 -2.0605
16665TIP3    H271487   1.369   5.128  12.611  0.4585 -1.8632 -0.4063
16666TIP3   OH271488   2.582   5.043  14.887  0.5133 -0.4157 -0.4097
16666TIP3    H171489   2.593   4.986  14.811  0.5044  1.8956 -2.2446
16666TIP3    H271490   2.524   5.113  14.858 -1.2386 -0.5275  2.4088
16667TIP3   OH271491   1.413   3.143   3.836  0.7073 -0.0172  0.5497
16667TIP3    H171492   1.327   3.102   3.831  0.6045  0.2643 -0.0685
16667TIP3    H271493   1.452   3.127   3.751  1.3903 -0.3932  0.9293
16668TIP3   OH271494   2.494   2.625   5.504  0.1570 -0.4150  0.0102
16668TIP3    H171495   2.563   2.682   5.471 -1.0670  0.4827 -1.1369
16668TIP3    H271496   2.423   2.633   5.439 -0.2773 -2.8433  0.0785
16669TIP3   OH271497   5.611   3.495  11.722 -0.4574 -0.2650  0.8050
16669TIP3    H171498   5.572   3.573  11.684 -1.2302 -1.2586 -0.5233
16669TIP3    H271499   5.548   3.468  11.790  0.0023  0.4659  1.5325
16670TIP3   OH271500   0.294   4.798   3.937 -0.0710 -0.0376 -0.7832
16670TIP3    H171501   0.230   4.761   3.998  0.7765 -0.5305 -0.1672
16670TIP3    H271502   0.369   4.820   3.992 -0.5183  2.6400 -1.1230
16671TIP3   OH271503   1.534   2.095   5.087 -0.2925 -0.2566 -0.3726
16671TIP3    H171504   1.592   2.020   5.100 -1.0287 -0.5437  1.5692
16671TIP3    H271505   1.478   2.070   5.014  0.8815 -0.6764 -1.1548
16672TIP3   OH271506   0.785   3.116   5.079 -0.1611  0.4442  0.3464
16672TIP3    H171507   0.748   3.070   5.155 -0.9677  0.1362 -0.2235
16672TIP3    H271508   0.855   3.170   5.116  0.6191 -1.0181  1.0764
16673TIP3   OH271509   4.329   0.714   5.749 -0.1292 -0.2722  0.1567
16673TIP3    H171510   4.416   0.734   5.783  0.2141 -1.1742 -0.1410
16673TIP3    H271511   4.286   0.667   5.821 -0.0345 -0.6348 -0.0214
16674TIP3   OH271512   4.378   4.697  16.975  0.3049 -0.0082 -0.3878
16674TIP3    H171513   4.381   4.758  16.901 -2.0751 -0.5080 -0.9863
16674TIP3    H271514   4.356   4.613  16.935 -0.2806 -0.4435  0.8204
16675TIP3   OH271515   5.089   2.515   4.769 -0.8291  0.1479  0.1124
16675TIP3    H171516   5.059   2.425   4.753 -0.3161 -0.1247  0.6467
16675TIP3    H271517   5.171   2.521   4.722 -1.2342  0.5872 -0.5516
16676TIP3   OH271518   4.616   3.454   5.026  0.1854  0.4593  0.3039
16676TIP3    H171519   4.524   3.470   5.047  0.3287  2.0594 -0.1436
16676TIP3    H271520   4.619   3.452   4.930  0.5693  0.1065  0.3206
16677TIP3   OH271521   4.952   2.828   4.756 -0.0814  0.0878  0.0788
16677TIP3    H171522   5.020   2.810   4.822 -1.1438  2.1515  1.8701
16677TIP3    H271523   4.907   2.906   4.789 -1.9938  0.0142 -2.1210
16678TIP3   OH271524   3.325   4.885  14.319  0.2553  0.3615 -0.0305
16678TIP3    H171525   3.347   4.978  14.321  1.9153  0.0217 -0.8540
16678TIP3    H271526   3.229   4.883  14.319  0.1896  2.1039 -0.8746
16679TIP3   OH271527   0.594   2.591  13.434 -0.6149  0.2295  0.7240
16679TIP3    H171528   0.566   2.583  13.343  0.0207  0.5249  0.4959
16679TIP3    H271529   0.674   2.643  13.430  0.8015 -1.7611  1.1704
16680TIP3   OH271530   3.193   5.559  14.287 -0.1870  0.2233  0.4241
16680TIP3    H171531   3.192   5.594  14.198 -0.2420  0.6663  0.5983
16680TIP3    H271532   3.261   5.491  14.285  0.4744  0.8789  0.2890
16681TIP3   OH271533   2.724   6.610  11.070  0.2396 -0.0145  0.0644
16681TIP3    H171534   2.768   6.650  10.995  1.1056  1.4408  1.2963
16681TIP3    H271535   2.777   6.635  11.146  0.0085 -2.3479  1.0973
16682TIP3   OH271536   4.932   1.563  13.348  0.1638 -0.4401  0.0442
16682TIP3    H171537   4.891   1.649  13.337 -2.9893 -1.5457  1.9308
16682TIP3    H271538   4.871   1.501  13.308 -0.1997 -2.1977  3.0064
16683TIP3   OH271539   4.248   5.743  12.178  0.2822  0.4773  0.3658
16683TIP3    H171540   4.174   5.771  12.233 -0.4846 -0.3962 -0.1914
16683TIP3    H271541   4.308   5.700  12.239  0.5611  1.5865  0.8989
16684TIP3   OH271542   0.036   0.454  16.854  0.5368 -0.0335 -0.1907
16684TIP3    H171543  -0.041   0.480  16.803 -0.0910  1.5256  1.4609
16684TIP3    H271544   0.106   0.511  16.823 -0.1226  1.7211  1.3978
16685TIP3   OH271545   3.603   3.034  16.590  0.5204  0.2849 -0.0207
16685TIP3    H171546   3.616   2.952  16.638  0.0055  0.0245 -0.3162
16685TIP3    H271547   3.613   3.102  16.657  1.3073  0.0064  0.1558
16686TIP3   OH271548   4.654   5.384  14.736 -0.0345 -0.8156 -0.2331
16686TIP3    H171549   4.651   5.314  14.671 -0.3667 -1.7963  0.8065
16686TIP3    H271550   4.592   5.356  14.804  0.4236  0.1050  0.5872
16687TIP3   OH271551   1.303   4.526  10.964 -0.1977  0.1566  0.4379
16687TIP3    H171552   1.269   4.549  10.878 -2.1649  1.6131  1.5047
16687TIP3    H271553   1.300   4.430  10.966  2.0550 -0.0594 -1.8511
16688TIP3   OH271554   5.171   4.939  15.884 -0.0507  0.1829  0.1314
16688TIP3    H171555   5.106   4.937  15.814  1.7464  0.6451 -1.6356
16688TIP3    H271556   5.227   5.014  15.862 -0.0657  1.0578  2.7175
16689TIP3   OH271557   6.534   3.767  14.589 -0.8709  0.9431  0.4910
16689TIP3    H171558   6.464   3.801  14.534 -1.7122 -0.3529  0.7327
16689TIP3    H271559   6.517   3.673  14.596 -0.0595  0.8611  1.9029
16690TIP3   OH271560   0.463   6.220  15.885 -0.3096  0.3362 -0.0542
16690TIP3    H171561   0.376   6.188  15.906 -0.3558  1.2487  1.3115
16690TIP3    H271562   0.468   6.306  15.928  1.2339  0.3297 -0.1479
16691TIP3   OH271563   4.363   2.467  15.960 -0.0801 -0.0270 -0.2055
16691TIP3    H171564   4.406   2.531  16.017 -2.0772  0.6269  0.6735
16691TIP3    H271565   4.416   2.388  15.969  0.4257  0.4473  1.5249
16692TIP3   OH271566   2.344   5.616   5.251 -0.4985 -0.0225  0.1669
16692TIP3    H171567   2.307   5.607   5.339  0.8775 -0.3434  0.7336
16692TIP3    H271568   2.409   5.685   5.259 -0.8287  0.4161 -0.7704
16693TIP3   OH271569   6.510   5.025   5.680  0.5984 -0.2951  0.7173
16693TIP3    H171570   6.439   4.972   5.646  1.2256 -0.5077 -0.3282
16693TIP3    H271571   6.495   5.030   5.775 -1.8724  1.2922  0.3183
16694TIP3   OH271572   0.136   5.096   1.684  0.2359  0.2977 -0.0297
16694TIP3    H171573   0.095   5.012   1.665 -1.6678  1.2271 -0.1883
16694TIP3    H271574   0.205   5.104   1.618  0.7969 -1.3377  0.3037
16695TIP3   OH271575   1.606   6.202  11.635  0.0472 -0.0814  0.0692
16695TIP3    H171576   1.609   6.118  11.680  0.7248  0.5685  1.2821
16695TIP3    H271577   1.583   6.265  11.704 -0.8839  0.6818 -0.9023
16696TIP3   OH271578   5.952   4.612   1.972 -0.4758  0.3467 -0.0349
16696TIP3    H171579   5.894   4.669   1.922 -1.3917 -0.8212 -0.3502
16696TIP3    H271580   5.896   4.540   2.000  0.8516 -0.9097 -0.5028
16697TIP3   OH271581   1.705   3.537   3.107  0.6181  0.0031  1.2337
16697TIP3    H171582   1.795   3.514   3.084  1.1296  2.6763  0.1786
16697TIP3    H271583   1.659   3.543   3.023 -0.2081 -0.0845  1.6689
16698TIP3   OH271584   5.438   2.934   3.753  0.0977  0.4716 -0.4976
16698TIP3    H171585   5.443   3.029   3.766  1.2581  0.3397  0.1700
16698TIP3    H271586   5.529   2.906   3.746 -0.2695 -0.2599 -3.5382
16699TIP3   OH271587   3.610   2.625  15.648 -0.5049 -0.0071  0.4746
16699TIP3    H171588   3.697   2.665  15.659  0.5376 -1.8229 -0.5503
16699TIP3    H271589   3.567   2.678  15.581 -0.5982  1.4917  1.6788
16700TIP3   OH271590   6.492   1.348   4.580  0.2039 -0.1315  0.2402
16700TIP3    H171591   6.502   1.320   4.489  1.0939 -1.4161  0.6971
16700TIP3    H271592   6.498   1.267   4.631  2.4953  0.7972  1.6347
16701TIP3   OH271593   5.595   6.808  14.686 -0.0128  0.0030 -0.1206
16701TIP3    H171594   5.514   6.787  14.732 -1.0872  2.5022 -0.6926
16701TIP3    H271595   5.586   6.765  14.601 -0.5548 -0.0502 -0.0409
16702TIP3   OH271596   2.130   4.600  12.278 -0.4241 -0.8341  0.2884
16702TIP3    H171597   2.112   4.598  12.372 -0.4217 -0.6813  0.2919
16702TIP3    H271598   2.066   4.540  12.241  0.2086 -1.6569  0.4923
16703TIP3   OH271599   6.157   2.941  12.482 -0.2807  0.4225  0.3517
16703TIP3    H171600   6.064   2.919  12.486 -0.4342 -0.0347 -2.9423
16703TIP3    H271601   6.159   3.036  12.471 -0.3869  0.3774 -0.0591
16704TIP3   OH271602   3.611   6.379  11.211  0.4187 -0.1891  0.4488
16704TIP3    H171603   3.654   6.385  11.296 -1.5254 -0.4185  1.5129
16704TIP3    H271604   3.641   6.296  11.174  0.5631 -0.5359  1.3425
16705TIP3   OH271605   0.039   1.301  14.032 -0.2824  0.2162 -0.0078
16705TIP3    H171606  -0.041   1.348  14.052 -0.7426 -0.5581  0.0072
16705TIP3    H271607   0.017   1.209  14.044  0.1983 -0.1033 -1.3728
16706TIP3   OH271608   0.037   0.001  11.443  0.5587 -0.3861 -0.2754
16706TIP3    H171609   0.040  -0.092  11.420  0.3490 -0.8241  1.3545
16706TIP3    H271610   0.110   0.013  11.505  0.2274  0.4081 -0.0259
16707TIP3   OH271611   6.535   4.408  12.186  0.3702  0.1811  0.6565
16707TIP3    H171612   6.444   4.378  12.177  0.2149 -0.2820  3.1957
16707TIP3    H271613   6.577   4.378  12.105 -1.7207  0.5235 -0.6530
16708TIP3   OH271614   2.938   3.904   0.234 -0.0853  0.3034  0.4509
16708TIP3    H171615   2.849   3.890   0.202 -0.0643 -0.4181  0.7012
16708TIP3    H271616   2.927   3.928   0.326 -0.0209  0.1697  0.4937
16709TIP3   OH271617   4.899   1.914  15.204 -0.1942 -0.3511  0.2115
16709TIP3    H171618   4.956   1.859  15.257 -1.2485 -0.3310  1.4182
16709TIP3    H271619   4.816   1.867  15.202 -0.6835  0.5008  0.0380
16710TIP3   OH271620   0.752   1.090  16.822  0.3931 -0.6952  0.9903
16710TIP3    H171621   0.701   1.010  16.835  0.2333 -0.9458 -0.8703
16710TIP3    H271622   0.757   1.100  16.727  2.0482  0.4715  1.1554
16711TIP3   OH271623   2.697   1.034  11.024 -0.5143 -0.0317  0.5726
16711TIP3    H171624   2.689   1.129  11.013  1.3604  0.1495  0.4029
16711TIP3    H271625   2.613   1.000  10.994 -1.1287  1.5494  0.3569
16712TIP3   OH271626   5.283   4.268   1.751  0.0437 -0.0497 -0.1227
16712TIP3    H171627   5.195   4.265   1.715  0.4642 -2.2522 -1.1597
16712TIP3    H271628   5.332   4.325   1.692  0.0461 -1.3697 -1.4395
16713TIP3   OH271629   5.831   4.967   4.557  0.5372 -0.2253  0.0948
16713TIP3    H171630   5.886   5.042   4.580  0.5380 -0.3371  0.4504
16713TIP3    H271631   5.844   4.904   4.628 -1.0245  0.2555  0.8479
16714TIP3   OH271632   2.254   0.658  16.551  0.2603  0.1246 -0.2935
16714TIP3    H171633   2.273   0.624  16.638  0.8830  0.2385 -0.3810
16714TIP3    H271634   2.299   0.742  16.548  0.0246  0.2427 -0.6372
16715TIP3   OH271635   3.789   5.435  17.198 -0.1397 -0.0808 -0.6677
16715TIP3    H171636   3.879   5.464  17.185 -0.2198  2.9650  3.6878
16715TIP3    H271637   3.747   5.451  17.114  2.5501  1.9045 -1.7823
16716TIP3   OH271638   6.456   1.510   1.374  0.3690 -0.3141 -0.7973
16716TIP3    H171639   6.488   1.458   1.301  1.7452 -2.1941  1.0387
16716TIP3    H271640   6.525   1.573   1.392  0.7011 -0.8302 -0.2192
16717TIP3   OH271641   2.165   5.837   1.717  0.4225  0.4493 -0.7514
16717TIP3    H171642   2.114   5.913   1.744 -1.1944 -0.2331 -1.7641
16717TIP3    H271643   2.256   5.869   1.714  0.0059  1.8560  0.4806
16718TIP3   OH271644   2.753   3.016   4.194 -0.2607 -0.6604  0.4813
16718TIP3    H171645   2.660   3.000   4.208 -0.1402 -2.3644 -0.3424
16718TIP3    H271646   2.793   2.929   4.201  1.2339  0.0115  0.5656
16719TIP3   OH271647   1.152   6.479   0.047  0.1789 -0.6023 -0.2213
16719TIP3    H171648   1.229   6.445   0.001  1.0499  0.8053  0.1422
16719TIP3    H271649   1.130   6.560   0.001  0.9790  0.7655  1.6647
16720TIP3   OH271650   0.093   4.058  14.982 -0.2408 -0.1969 -0.4529
16720TIP3    H171651   0.012   4.094  14.945  0.2352 -0.9845 -2.3530
16720TIP3    H271652   0.111   3.980  14.930 -0.1571 -2.1114  2.2532
16721TIP3   OH271653   3.325   0.885   2.037  0.6064  0.0466 -0.2405
16721TIP3    H171654   3.285   0.799   2.023  3.0050 -1.1440 -0.3020
16721TIP3    H271655   3.273   0.924   2.107 -2.6144  0.0354 -2.4279
16722TIP3   OH271656   4.491   4.641  16.667 -0.3942  0.3524  0.1650
16722TIP3    H171657   4.527   4.710  16.611 -0.1809  0.0099 -0.1286
16722TIP3    H271658   4.530   4.560  16.632  0.8154  0.2598  1.6365
16723TIP3   OH271659   1.811   6.355   0.662 -0.3072 -0.1947  0.6558
16723TIP3    H171660   1.728   6.385   0.700 -0.2420 -0.4709  1.0232
16723TIP3    H271661   1.877   6.381   0.726  0.2576  2.5290 -0.8751
16724TIP3   OH271662   2.513   3.831   6.044  0.4731  0.5971  0.0738
16724TIP3    H171663   2.519   3.781   6.126  0.8194 -0.6260 -0.6603
16724TIP3    H271664   2.437   3.888   6.056 -0.2119 -0.4202  0.7966
16725TIP3   OH271665   6.766   2.438   0.873 -0.0359  0.1426 -0.1305
16725TIP3    H171666   6.831   2.509   0.878  1.6922 -1.2415 -1.7316
16725TIP3    H271667   6.792   2.376   0.940 -2.0004  1.2540  1.8021
16726TIP3   OH271668   5.997   4.252  13.946  0.0254 -0.0726  0.0405
16726TIP3    H171669   5.914   4.300  13.937  0.9854  1.5189 -0.8540
16726TIP3    H271670   6.017   4.258  14.039 -0.1094  0.8844  0.0199
16727TIP3   OH271671   0.940   3.287  16.239 -0.4119  0.9724 -0.1510
16727TIP3    H171672   1.001   3.213  16.247  1.2541  2.2305 -0.6184
16727TIP3    H271673   0.921   3.292  16.146 -1.1543  0.6621 -0.0210
16728TIP3   OH271674   5.825   0.050   4.465  0.1142  0.3881 -0.1048
16728TIP3    H171675   5.857   0.004   4.387 -0.9387 -0.8904  0.1879
16728TIP3    H271676   5.732   0.066   4.447 -0.6953 -1.8166  1.6863
16729TIP3   OH271677   2.052   4.239  16.795  0.5942  0.3409 -0.4223
16729TIP3    H171678   1.986   4.302  16.824  1.8674  1.3950  0.3061
16729TIP3    H271679   2.068   4.185  16.872  0.3006 -0.1744 -0.7187
16730TIP3   OH271680   5.398   6.431   5.378  0.2534 -0.5343 -0.4524
16730TIP3    H171681   5.356   6.512   5.406  2.0445  0.6304 -0.9687
16730TIP3    H271682   5.374   6.367   5.444  2.4697  1.5348  2.6328
16731TIP3   OH271683   4.608   2.583  13.672  0.3209 -0.3671  0.1819
16731TIP3    H171684   4.526   2.544  13.642  0.6222  0.5713 -1.9870
16731TIP3    H271685   4.651   2.512  13.721 -0.7787 -1.5764 -0.5338
16732TIP3   OH271686   4.993   6.600   6.052 -0.0170 -0.0240 -0.2519
16732TIP3    H171687   4.931   6.529   6.070  0.6257  0.0060  2.4829
16732TIP3    H271688   4.953   6.649   5.980 -0.0128 -3.6231 -2.9804
16733TIP3   OH271689   0.213   6.287  10.888  0.3812 -0.4999 -0.0955
16733TIP3    H171690   0.120   6.279  10.906  0.4626 -0.0273  0.5390
16733TIP3    H271691   0.237   6.374  10.918  1.2560 -1.0136  0.7732
16734TIP3   OH271692   3.547   5.351   2.260 -0.2403 -0.3690 -0.0831
16734TIP3    H171693   3.491   5.355   2.183  0.3741 -0.0475 -0.5189
16734TIP3    H271694   3.493   5.384   2.331  0.4858  3.4672 -1.1271
16735TIP3   OH271695   5.694   2.184  13.201 -0.5380  0.2480 -0.1629
16735TIP3    H171696   5.698   2.195  13.106 -1.0382  0.6317 -0.1455
16735TIP3    H271697   5.766   2.124  13.222 -1.5016 -1.2501 -0.9940
16736TIP3   OH271698   0.658   0.028  14.915  0.0158  0.2853 -0.6038
16736TIP3    H171699   0.646   0.115  14.878 -1.9981  0.1370 -0.4110
16736TIP3    H271700   0.585   0.018  14.976  0.9479 -1.0519  0.3432
16737TIP3   OH271701   6.304   0.943   4.551 -0.1661  0.0223  0.6521
16737TIP3    H171702   6.232   0.946   4.488  0.3410  0.4544  0.0823
16737TIP3    H271703   6.312   1.033   4.584  0.0834 -0.0336  0.7486
16738TIP3   OH271704   4.103   4.140   3.633  0.2384  0.7622  0.2322
16738TIP3    H171705   4.035   4.117   3.570  0.6333  0.0819  0.0412
16738TIP3    H271706   4.185   4.117   3.590  0.4754 -0.7024  1.3544
16739TIP3   OH271707   3.070   4.530  14.695 -0.3309  0.1202 -0.2395
16739TIP3    H171708   3.112   4.445  14.689 -0.4975  0.0711 -0.6766
16739TIP3    H271709   3.030   4.545  14.609 -2.2967 -0.4023  0.5171
16740TIP3   OH271710   1.210   3.207  16.695 -0.0988  0.5317 -0.3550
16740TIP3    H171711   1.296   3.239  16.668 -0.7423  1.8821 -0.8478
16740TIP3    H271712   1.192   3.252  16.778  0.4091 -1.0782  0.6761
16741TIP3   OH271713   6.543   1.407   5.377  0.0740  0.7278  0.3973
16741TIP3    H171714   6.609   1.370   5.436  1.5768  0.6887 -1.2236
16741TIP3    H271715   6.469   1.428   5.434  0.1179 -2.3951  1.7948
16742TIP3   OH271716   4.227   1.960   1.920 -0.0191  0.0949 -0.1473
16742TIP3    H171717   4.187   1.887   1.873  0.9236  0.5758 -1.7807
16742TIP3    H271718   4.171   1.973   1.996 -2.1756 -0.1403 -1.6064
16743TIP3   OH271719   1.761   2.069   2.826  0.4948 -0.3853 -0.3261
16743TIP3    H171720   1.803   2.020   2.756  1.2421 -0.6065  0.2617
16743TIP3    H271721   1.765   2.010   2.902  0.0152 -0.0125 -0.0038
16744TIP3   OH271722   6.565   0.334  15.146 -0.6055  0.6040 -0.0579
16744TIP3    H171723   6.583   0.280  15.223 -0.0815  1.7724  0.6623
16744TIP3    H271724   6.469   0.334  15.139 -0.6703  0.6727  0.7386
16745TIP3   OH271725   4.472   3.306  13.981 -0.0232 -0.3245 -0.6972
16745TIP3    H171726   4.428   3.247  14.043  1.6153  0.0686  0.9385
16745TIP3    H271727   4.487   3.252  13.904  0.0615 -1.6033  0.1751
16746TIP3   OH271728   0.663   4.248   3.288 -0.0259  0.1979  0.1594
16746TIP3    H171729   0.736   4.202   3.331  1.3789  0.9586 -1.2965
16746TIP3    H271730   0.663   4.335   3.329  1.0114  0.7616 -0.9371
16747TIP3   OH271731   3.606   3.650  12.963  0.2087 -0.2784 -0.5317
16747TIP3    H171732   3.557   3.569  12.949  0.4894 -0.5827  0.2162
16747TIP3    H271733   3.683   3.623  13.014 -0.4057  0.6646  0.9335
16748TIP3   OH271734   6.636   6.087   2.986  0.3214 -0.0447 -0.0808
16748TIP3    H171735   6.629   6.046   2.899 -1.3387  0.7632 -0.3557
16748TIP3    H271736   6.608   6.019   3.047  1.7551 -0.7085 -0.1084
16749TIP3   OH271737   0.096   5.814   1.353  0.2342  0.1952  0.1394
16749TIP3    H171738   0.085   5.811   1.448  2.5439 -1.4699  0.4122
16749TIP3    H271739   0.186   5.844   1.339 -0.2099  0.8985 -1.5613
16750TIP3   OH271740   6.226   4.438   0.055  0.6290  0.2642 -0.4537
16750TIP3    H171741   6.210   4.530   0.072 -0.5500 -0.5262  3.9006
16750TIP3    H271742   6.302   4.416   0.108 -0.8852 -1.7961  1.0289
16751TIP3   OH271743   4.762   1.850  14.735 -0.5483  0.4270 -0.3949
16751TIP3    H171744   4.835   1.866  14.795  0.1885 -0.8916 -0.9041
16751TIP3    H271745   4.732   1.762  14.756 -2.4402  1.1742  0.2288
16752TIP3   OH271746   0.186   1.151  16.609  0.3141  0.0422 -0.1391
16752TIP3    H171747   0.227   1.114  16.687  0.5356 -0.7818 -0.6279
16752TIP3    H271748   0.259   1.168  16.549  0.1424  0.6175 -0.1900
16753TIP3   OH271749   1.620   5.561  15.596  0.0549  0.1996  0.0045
16753TIP3    H171750   1.602   5.642  15.549 -0.0666  0.4537  0.4793
16753TIP3    H271751   1.705   5.532  15.563 -0.5678 -0.2827 -1.2596
16754TIP3   OH271752   6.813   6.815  15.917 -0.3079  0.0384  0.7513
16754TIP3    H171753   6.744   6.748  15.916  0.6857 -1.0058 -0.1771
16754TIP3    H271754   6.878   6.781  15.979  0.5265 -0.2285 -0.2389
16755TIP3   OH271755   1.066   0.036   0.960 -0.7596 -0.2257  0.6176
16755TIP3    H171756   0.973   0.037   0.939 -0.5910  0.3115 -0.1681
16755TIP3    H271757   1.074  -0.026   1.033 -1.8558  0.4327  1.3297
16756TIP3   OH271758   2.703   2.974   3.165 -0.7903 -0.1330 -0.0394
16756TIP3    H171759   2.723   3.011   3.251 -2.3624 -0.6290  0.5761
16756TIP3    H271760   2.610   2.953   3.169 -0.9861  0.1395 -1.9898
16757TIP3   OH271761   3.335   2.646  11.541 -0.0249 -0.4961 -0.1772
16757TIP3    H171762   3.419   2.626  11.501 -0.7072 -0.8485 -1.4750
16757TIP3    H271763   3.298   2.561  11.563 -0.3053 -0.3725 -0.1641
16758TIP3   OH271764   0.338   2.827   4.133  0.0060 -0.4107  0.1191
16758TIP3    H171765   0.419   2.797   4.175 -0.0207 -0.7991 -0.1070
16758TIP3    H271766   0.270   2.770   4.169  0.0802 -1.1963 -0.9644
16759TIP3   OH271767   3.264   0.128   3.261  0.0565  0.0058 -0.0918
16759TIP3    H171768   3.320   0.051   3.270 -0.5772 -0.2711  2.1254
16759TIP3    H271769   3.304   0.193   3.320 -0.6267  0.6138 -0.2910
16760TIP3   OH271770   0.757   6.054   2.864 -0.4534 -0.7032 -0.1743
16760TIP3    H171771   0.839   6.103   2.863 -1.7239  1.7376  2.3375
16760TIP3    H271772   0.781   5.969   2.902  1.0110 -0.2573 -0.0290
16761TIP3   OH271773   5.069   0.338   5.436  0.1410 -0.4176  0.3639
16761TIP3    H171774   5.151   0.332   5.485  0.2654 -0.8300  0.1035
16761TIP3    H271775   5.011   0.276   5.478  0.0708 -0.3750  0.3307
16762TIP3   OH271776   0.149   1.593   0.380  0.0723  0.2807  0.0815
16762TIP3    H171777   0.204   1.664   0.347  0.2921  1.4309  2.6790
16762TIP3    H271778   0.208   1.540   0.434 -0.9689  0.5768  1.5673
16763TIP3   OH271779   0.543   5.535   5.347 -0.0070 -0.4128  0.8639
16763TIP3    H171780   0.567   5.605   5.286 -0.3597 -1.4104 -0.4649
16763TIP3    H271781   0.625   5.488   5.362  0.2813  0.4049  1.9508
16764TIP3   OH271782   3.252   3.377   3.657 -0.2087 -0.6035  0.5184
16764TIP3    H171783   3.322   3.442   3.665  0.3587 -1.2412  0.8093
16764TIP3    H271784   3.268   3.316   3.728  1.1268 -2.8163 -1.5489
16765TIP3   OH271785   5.434   0.054  11.682 -0.3946 -0.0189  0.3332
16765TIP3    H171786   5.378  -0.020  11.706 -0.0501  0.2640  2.1587
16765TIP3    H271787   5.416   0.069  11.589  1.3199 -3.9362 -0.8350
16766TIP3   OH271788   6.735   4.734   3.952  0.2939 -0.1804 -0.4575
16766TIP3    H171789   6.720   4.828   3.948 -3.5470 -0.5305  0.7036
16766TIP3    H271790   6.783   4.720   4.034  2.0636  0.7921 -1.2907
16767TIP3   OH271791   2.908   5.681   4.626  0.0853 -0.4924 -0.2517
16767TIP3    H171792   2.981   5.626   4.598 -0.1174 -1.1558  0.4713
16767TIP3    H271793   2.837   5.660   4.565  0.5019  0.1726 -0.9715
16768TIP3   OH271794   4.872   2.288   0.349  0.4084 -0.3185  0.4354
16768TIP3    H171795   4.909   2.337   0.422  1.7751  1.9734 -1.6210
16768TIP3    H271796   4.777   2.298   0.359  0.5946  2.6251  0.3287
16769TIP3   OH271797   4.261   0.681   6.158  0.1050 -0.0596  0.0342
16769TIP3    H171798   4.259   0.602   6.104 -2.6017  0.0295 -0.1582
16769TIP3    H271799   4.307   0.655   6.238  0.3907 -1.4543 -0.5630
16770TIP3   OH271800   6.012   5.307  11.427  0.0011  0.1811  0.2848
16770TIP3    H171801   6.056   5.272  11.350 -1.4302 -0.9045 -0.0915
16770TIP3    H271802   6.050   5.260  11.501 -0.7062 -1.0081 -0.0682
16771TIP3   OH271803   2.239   0.623  13.878  0.6435 -0.2793 -0.3472
16771TIP3    H171804   2.305   0.564  13.843 -0.2792 -0.6392 -1.5532
16771TIP3    H271805   2.164   0.612  13.820  0.5638  2.4112 -0.8699
16772TIP3   OH271806   4.136   5.670   3.870 -0.4915 -0.1799  0.4753
16772TIP3    H171807   4.158   5.584   3.905 -0.6537 -0.0250  0.9717
16772TIP3    H271808   4.144   5.661   3.775  1.5223 -0.1705  0.6019
16773TIP3   OH271809   6.678   6.673   5.689  0.7348  0.5057  0.4154
16773TIP3    H171810   6.617   6.746   5.682 -1.0251 -0.8048  1.2106
16773TIP3    H271811   6.680   6.635   5.601  0.0378  0.3084  0.4774
16774TIP3   OH271812   5.761   3.513   5.060 -0.3488 -0.3582  0.3557
16774TIP3    H171813   5.670   3.538   5.073 -0.4417  0.5522 -1.6955
16774TIP3    H271814   5.810   3.595   5.066 -0.2259 -0.0699 -2.7049
16775TIP3   OH271815   6.190   0.845   5.319 -0.5262 -0.2639  0.3933
16775TIP3    H171816   6.129   0.775   5.345  0.4375 -2.0887 -1.8860
16775TIP3    H271817   6.166   0.865   5.228  0.0922  1.4569  0.5729
16776TIP3   OH271818   0.058   6.108  14.034  0.3080 -0.1663 -0.2285
16776TIP3    H171819   0.075   6.117  13.941 -0.8684  0.4994 -0.4051
16776TIP3    H271820  -0.033   6.077  14.039  0.1966  0.2707  0.6951
16777TIP3   OH271821   0.407   5.398  10.732 -0.3900 -0.6380  0.2761
16777TIP3    H171822   0.330   5.447  10.761 -1.0870 -1.1623 -0.6172
16777TIP3    H271823   0.481   5.446  10.768 -1.1050  0.3504  0.4807
16778TIP3   OH271824   6.221   4.622  15.638  0.3259  0.1116 -0.1489
16778TIP3    H171825   6.133   4.583  15.638 -0.1310  1.1107  0.5466
16778TIP3    H271826   6.242   4.631  15.545 -0.7598  0.8482 -0.3430
16779TIP3   OH271827   1.514   3.342   0.437  0.9124  0.0736  0.1455
16779TIP3    H171828   1.454   3.273   0.467  2.1244 -0.1408  2.2391
16779TIP3    H271829   1.568   3.299   0.370 -1.3010  0.3278 -1.9466
16780TIP3   OH271830   6.499   4.286   1.822  0.2744 -0.2814 -0.1993
16780TIP3    H171831   6.404   4.293   1.833  0.4756 -0.5084  1.9911
16780TIP3    H271832   6.517   4.342   1.746 -1.6242 -0.4708 -0.8591
16781TIP3   OH271833   2.618   3.904   0.032  0.1940  0.5004 -0.4872
16781TIP3    H171834   2.670   3.825   0.049  1.8094  1.5668 -0.2529
16781TIP3    H271835   2.581   3.890  -0.055 -0.7532 -1.1177  0.1303
16782TIP3   OH271836   5.155   4.623   4.038  0.2242 -0.7346  0.1564
16782TIP3    H171837   5.107   4.626   3.955  0.7825 -2.8220 -0.2833
16782TIP3    H271838   5.205   4.542   4.034  2.9486  0.7799  1.0645
16783TIP3   OH271839   5.438   3.188   0.718 -0.0115  0.1109  0.3857
16783TIP3    H171840   5.419   3.169   0.810 -0.6531 -0.2353  0.1848
16783TIP3    H271841   5.393   3.120   0.669  1.6347 -0.6606 -0.1265
16784TIP3   OH271842   1.112   3.317   2.785 -0.0303  0.3984 -0.7195
16784TIP3    H171843   1.174   3.384   2.758  0.5350 -0.5528 -1.8508
16784TIP3    H271844   1.026   3.351   2.758  0.2920  0.4946 -1.6413
16785TIP3   OH271845   3.887   3.241  15.783 -0.1509  0.3681  0.0539
16785TIP3    H171846   3.977   3.269  15.772 -0.1595  0.1077 -0.7065
16785TIP3    H271847   3.865   3.265  15.873  0.8830 -0.1625  0.4563
16786TIP3   OH271848   3.395   5.117   4.674  0.7269 -0.4189  0.0679
16786TIP3    H171849   3.418   5.209   4.688  0.4487 -0.7571  3.6440
16786TIP3    H271850   3.317   5.119   4.619 -0.6335  1.6789  1.9374
16787TIP3   OH271851   3.902   1.988   3.905 -0.5367 -0.2425  0.1875
16787TIP3    H171852   3.871   2.013   3.818  1.0769  1.0280 -0.0743
16787TIP3    H271853   3.981   1.936   3.889  0.6825  1.3044  0.8464
16788TIP3   OH271854   5.787   2.541   5.796  0.4219 -0.5123 -0.0695
16788TIP3    H171855   5.841   2.574   5.868  1.8423 -0.0302 -1.3175
16788TIP3    H271856   5.829   2.573   5.717 -1.3754 -0.6298 -1.1369
16789TIP3   OH271857   4.376   4.633  12.838  0.0548  0.4264  0.0044
16789TIP3    H171858   4.382   4.602  12.748 -0.1028  0.4413 -0.0110
16789TIP3    H271859   4.362   4.553  12.890 -0.5409  0.4903 -0.0540
16790TIP3   OH271860   2.199   5.216   2.026 -0.1414  0.3239  0.1481
16790TIP3    H171861   2.146   5.144   1.994  1.2777 -0.7909  0.2143
16790TIP3    H271862   2.136   5.280   2.058 -1.4439 -1.3151  1.0182
16791TIP3   OH271863   0.637   4.910  13.016 -0.0228 -0.1924  0.0548
16791TIP3    H171864   0.584   4.940  12.942  1.9150 -0.2020 -1.4109
16791TIP3    H271865   0.573   4.870  13.076 -1.4861 -2.2543 -2.6329
16792TIP3   OH271866   0.487   5.390   1.685  0.6906 -0.0882 -0.0356
16792TIP3    H171867   0.526   5.305   1.705  1.9957  0.5641  0.3160
16792TIP3    H271868   0.545   5.454   1.728  0.7646  1.0803 -1.7678
16793TIP3   OH271869   1.976   6.411  14.745  0.3252 -0.2247 -0.0441
16793TIP3    H171870   1.934   6.452  14.669  1.3925  1.6217  0.3172
16793TIP3    H271871   1.976   6.479  14.812  2.2980 -0.7605  0.5451
16794TIP3   OH271872   3.139   6.151   0.463 -0.6326  0.0913 -0.2128
16794TIP3    H171873   3.201   6.184   0.528  0.2464  0.2845 -1.1212
16794TIP3    H271874   3.121   6.226   0.406 -0.4329 -0.3809 -0.9143
16795TIP3   OH271875   6.240   2.253  13.969  0.0741 -0.3008  0.1307
16795TIP3    H171876   6.190   2.260  14.050 -2.4607  1.1444 -1.4196
16795TIP3    H271877   6.230   2.162  13.943  0.7076 -0.7199  1.2808
16796TIP3   OH271878   4.231   2.891   6.598  0.3583 -1.0114 -0.5149
16796TIP3    H171879   4.153   2.855   6.642  0.0237 -0.8974 -1.0058
16796TIP3    H271880   4.276   2.814   6.563  1.4493 -1.2532  1.3193
16797TIP3   OH271881   0.591   6.271   2.100  0.0594 -0.4416  0.2315
16797TIP3    H171882   0.550   6.265   2.014 -1.0509  1.0484  0.6297
16797TIP3    H271883   0.683   6.250   2.084 -0.3679 -1.4242 -1.0900
16798TIP3   OH271884   4.476   1.243   1.443 -0.0196 -0.0752 -0.5744
16798TIP3    H171885   4.397   1.232   1.496 -0.6856  1.1993 -1.2632
16798TIP3    H271886   4.447   1.227   1.354  0.3434  1.0399 -0.9065
16799TIP3   OH271887   4.359   2.110   2.150 -0.2368 -0.0640  0.4444
16799TIP3    H171888   4.441   2.090   2.196  0.1801 -1.1134 -0.7081
16799TIP3    H271889   4.293   2.058   2.196 -0.2290  0.6193  1.2442
16800TIP3   OH271890   6.280   3.621   4.164 -0.2504 -0.4814 -0.2056
16800TIP3    H171891   6.356   3.613   4.221 -0.1451 -1.1334 -0.4231
16800TIP3    H271892   6.208   3.583   4.215 -0.4614  0.2367  0.0444
16801TIP3   OH271893   1.543   1.611  15.927  0.5880 -0.1333  0.3297
16801TIP3    H171894   1.514   1.599  15.837 -1.1632 -0.4323  0.8997
16801TIP3    H271895   1.538   1.705  15.942 -0.0896 -0.1769  0.4089
16802TIP3   OH271896   2.643   4.153   3.179  0.4614 -0.2556  0.4409
16802TIP3    H171897   2.659   4.105   3.098  2.4166  1.3941 -0.2460
16802TIP3    H271898   2.595   4.091   3.235 -2.3075 -0.9362 -2.4268
16803TIP3   OH271899   3.432   0.406   2.220 -0.2627 -0.0739 -0.6884
16803TIP3    H171900   3.396   0.446   2.141  0.6636 -1.4362 -1.8476
16803TIP3    H271901   3.417   0.313   2.210 -0.7059 -0.2420  1.0867
16804TIP3   OH271902   4.698   1.370   3.746 -0.1855 -0.3780 -0.0195
16804TIP3    H171903   4.720   1.388   3.655  0.9810  1.6293  0.5783
16804TIP3    H271904   4.751   1.293   3.769 -0.2464 -0.6997 -0.9378
16805TIP3   OH271905   5.891   1.680  14.178  0.3427  0.2069  0.0950
16805TIP3    H171906   5.886   1.693  14.272  0.5371 -0.9833  0.2746
16805TIP3    H271907   5.978   1.644  14.162 -0.4571 -1.7027 -0.2523
16806TIP3   OH271908   5.588   5.785  12.546 -0.0855 -0.2062 -0.1687
16806TIP3    H171909   5.528   5.860  12.545 -3.5772 -2.6560  1.5047
16806TIP3    H271910   5.628   5.788  12.633 -0.7182 -0.5420  0.1474
16807TIP3   OH271911   2.696   1.820  15.945  0.0989  0.1171  0.0599
16807TIP3    H171912   2.648   1.738  15.960  0.2311 -0.0074 -0.2040
16807TIP3    H271913   2.652   1.883  16.002  0.5040 -0.3205  0.8820
16808TIP3   OH271914   2.306   2.523   0.572  0.4325  0.2567 -0.0212
16808TIP3    H171915   2.302   2.434   0.605  0.5978  0.6550  1.1091
16808TIP3    H271916   2.376   2.564   0.621  0.2491  1.0638 -0.4083
16809TIP3   OH271917   6.414   0.833   2.568 -0.4254  0.1936 -0.1232
16809TIP3    H171918   6.361   0.786   2.633 -1.4729 -0.1131 -1.1578
16809TIP3    H271919   6.500   0.791   2.572 -1.4450 -2.2069 -1.3414
16810TIP3   OH271920   4.820   4.566   0.095  0.0766 -0.0271  0.2423
16810TIP3    H171921   4.844   4.584   0.004 -0.8027 -0.5854 -0.1204
16810TIP3    H271922   4.852   4.642   0.144  0.5353  0.2944 -0.5368
16811TIP3   OH271923   2.222   1.418  15.186 -0.2538  0.0761  0.3828
16811TIP3    H171924   2.172   1.350  15.140 -0.1148 -0.1174  0.5212
16811TIP3    H271925   2.175   1.499  15.165 -0.9512 -0.1683  0.9549
16812TIP3   OH271926   5.195   0.608   0.122  0.4247 -0.6400 -0.0822
16812TIP3    H171927   5.220   0.618   0.030  1.5806  1.3159  0.4062
16812TIP3    H271928   5.275   0.625   0.171 -0.8573  1.6256  1.3898
16813TIP3   OH271929   5.651   6.099  12.212  0.3898  0.2751 -0.0882
16813TIP3    H171930   5.633   6.177  12.159  0.9572  1.4356  1.3616
16813TIP3    H271931   5.678   6.033  12.149 -0.0850  1.2538 -1.3602
16814TIP3   OH271932   2.204   5.260   6.094 -0.9001 -0.1904  0.3652
16814TIP3    H171933   2.203   5.213   6.177  1.0117 -0.5020  0.2449
16814TIP3    H271934   2.190   5.192   6.028  2.8385 -0.8935  0.1202
16815TIP3   OH271935   1.114   5.034   2.756 -0.4870 -0.3969 -0.1768
16815TIP3    H171936   1.033   5.048   2.708 -1.3070 -1.0307  0.9863
16815TIP3    H271937   1.162   5.117   2.747 -1.6454  0.2958 -0.1346
16816TIP3   OH271938   4.738   6.243   4.778 -0.0136 -0.1451 -0.0088
16816TIP3    H171939   4.824   6.213   4.808 -0.8128 -1.6377  0.9225
16816TIP3    H271940   4.703   6.169   4.729 -1.3789 -0.1655  0.9424
16817TIP3   OH271941   2.106   3.292   3.610  0.4934 -0.3711 -0.3251
16817TIP3    H171942   2.108   3.205   3.570  0.0205  0.3246 -1.9417
16817TIP3    H271943   2.146   3.350   3.544  0.6400  0.6691  0.6447
16818TIP3   OH271944   6.290   3.884   5.339 -0.7572  0.4966  0.5739
16818TIP3    H171945   6.237   3.805   5.328 -0.7811  0.4824  0.7812
16818TIP3    H271946   6.350   3.883   5.264 -1.3924  0.7884  0.0548
16819TIP3   OH271947   4.718   0.499   5.405 -0.4516 -0.2823 -0.2073
16819TIP3    H171948   4.737   0.421   5.456 -0.6839 -0.2166 -0.0196
16819TIP3    H271949   4.705   0.568   5.470  0.2968  0.0376 -0.3897
16820TIP3   OH271950   2.383   5.746   3.997  0.3076  0.3909 -0.0351
16820TIP3    H171951   2.376   5.684   3.924 -1.4920 -1.1413  1.3376
16820TIP3    H271952   2.343   5.826   3.965 -0.5390 -0.2858 -0.7327
16821TIP3   OH271953   4.744   5.238   1.579  0.2905 -0.3783  0.0864
16821TIP3    H171954   4.741   5.222   1.485  2.0078 -2.0787  0.2586
16821TIP3    H271955   4.681   5.308   1.594 -1.0176 -0.9976 -2.1267
16822TIP3   OH271956   0.497   4.340   0.026  0.2399  0.4493 -0.4105
16822TIP3    H171957   0.535   4.286  -0.043  1.5461  1.0494 -0.1701
16822TIP3    H271958   0.487   4.279   0.100  0.6232  0.2617 -0.5096
16823TIP3   OH271959   2.181   2.706  13.863 -0.2984  0.3546  0.1239
16823TIP3    H171960   2.188   2.736  13.772 -0.4052 -1.8214 -0.6653
16823TIP3    H271961   2.194   2.612  13.858  0.4752  0.2775  2.4984
16824TIP3   OH271962   5.492   2.025  11.015  0.1153  0.1568  0.3850
16824TIP3    H171963   5.521   1.983  11.096 -3.1213  0.9723  2.1521
16824TIP3    H271964   5.555   2.095  11.000  1.8613 -1.2109  1.0689
16825TIP3   OH271965   5.011   4.187  13.896  0.2852 -0.4334 -0.3655
16825TIP3    H171966   5.104   4.198  13.914  0.5650 -1.3106 -1.1670
16825TIP3    H271967   4.967   4.247  13.957  1.3646 -0.0030  0.0143
16826TIP3   OH271968   0.153   2.960  13.378 -0.5205 -0.4973 -0.4049
16826TIP3    H171969   0.178   2.871  13.401  1.5758  0.3136  0.6828
16826TIP3    H271970   0.127   3.001  13.461  1.0514  0.6297 -0.4265
16827TIP3   OH271971   4.484   6.198  13.270 -0.1680 -0.5255  0.5159
16827TIP3    H171972   4.445   6.117  13.237 -0.1754  0.1902 -1.4044
16827TIP3    H271973   4.410   6.254  13.290 -0.1930  0.0372 -1.0124
16828TIP3   OH271974   3.325   2.548  14.996  0.7422  0.6248  0.7776
16828TIP3    H171975   3.277   2.621  14.957 -1.0722 -0.4872  0.8442
16828TIP3    H271976   3.259   2.481  15.011  2.4658 -1.3076  0.1161
16829TIP3   OH271977   0.094   6.176  12.308  0.6373 -0.4915 -0.3128
16829TIP3    H171978   0.158   6.152  12.241  1.7534  0.7090  0.2700
16829TIP3    H271979   0.122   6.129  12.386  0.2424 -0.7025 -0.2998
16830TIP3   OH271980   5.081   3.305   3.743  0.2422  0.6004 -0.0026
16830TIP3    H171981   4.990   3.336   3.736  0.6190  1.5419 -1.0356
16830TIP3    H271982   5.101   3.312   3.836 -1.1815 -0.9431  0.4678
16831TIP3   OH271983   4.371   4.125   3.506 -0.2346 -0.2464 -0.3433
16831TIP3    H171984   4.399   4.085   3.424  1.1998 -0.3117  0.1651
16831TIP3    H271985   4.414   4.210   3.508  3.2849 -1.8090  2.1958
16832TIP3   OH271986   0.497   0.960  12.697 -0.1112 -0.5777 -0.1856
16832TIP3    H171987   0.465   1.017  12.768  0.2908 -0.0765 -0.3979
16832TIP3    H271988   0.542   0.889  12.743  1.1253  0.3297  0.0634
16833TIP3   OH271989   6.412   3.281   0.653 -0.0052 -0.0936  0.1103
16833TIP3    H171990   6.428   3.279   0.747 -1.1356 -0.6035  0.3191
16833TIP3    H271991   6.488   3.326   0.616  1.9882 -2.5339  0.9430
16834TIP3   OH271992   1.311   5.868  14.298  0.3762  0.3566 -0.4235
16834TIP3    H171993   1.237   5.916  14.336  0.3683  0.1207 -0.1378
16834TIP3    H271994   1.379   5.934  14.285  0.0430  0.6109 -0.8745
16835TIP3   OH271995   3.249   0.429  15.398 -0.0207  0.3836  0.2878
16835TIP3    H171996   3.305   0.442  15.321 -0.7897  0.7515 -0.2279
16835TIP3    H271997   3.306   0.387  15.462  0.8510  0.7649 -0.2113
16836TIP3   OH271998   4.329   3.664  13.495 -0.3457  0.1546 -0.1146
16836TIP3    H171999   4.297   3.663  13.586 -1.1130  0.1690 -0.3742
16836TIP3    H272000   4.264   3.717  13.448  0.2486  0.4504 -0.6031
16837TIP3   OH272001   4.415   1.766   3.961 -0.3627  0.1082 -0.2270
16837TIP3    H172002   4.370   1.713   4.027  0.5511 -0.5625 -0.1224
16837TIP3    H272003   4.481   1.814   4.010 -0.8988  1.0241 -0.3897
16838TIP3   OH272004   4.584   4.515   3.772  0.0983  0.2628  0.4148
16838TIP3    H172005   4.677   4.536   3.764 -0.2717  1.8220 -0.1506
16838TIP3    H272006   4.550   4.579   3.834 -0.8225  0.4866 -0.3016
16839TIP3   OH272007   2.034   6.433   3.500 -0.6294  0.1353 -0.1809
16839TIP3    H172008   1.989   6.366   3.447 -0.5351  0.7043 -0.9923
16839TIP3    H272009   2.028   6.399   3.590 -0.0036 -1.2973 -0.6442
16840TIP3   OH272010   6.273   6.183   1.154 -0.1097 -0.2628 -0.0459
16840TIP3    H172011   6.226   6.244   1.097 -0.9854  0.8334  1.7648
16840TIP3    H272012   6.323   6.239   1.213 -0.3113 -1.2914  1.1477
16841TIP3   OH272013   1.787   1.643   4.983 -0.1926  0.4159  0.3096
16841TIP3    H172014   1.753   1.585   5.051 -0.6959  1.3899  0.9157
16841TIP3    H272015   1.713   1.659   4.925  0.3318 -0.7081 -0.7082
16842TIP3   OH272016   4.176   4.896  16.352 -0.0240  0.3660  0.1547
16842TIP3    H172017   4.161   4.987  16.375  1.4855  0.7624 -0.3070
16842TIP3    H272018   4.217   4.858  16.430 -0.5373  0.1037  0.3026
16843TIP3   OH272019   6.409   2.880  11.610  0.2308  0.6863 -0.3513
16843TIP3    H172020   6.435   2.926  11.530 -0.4658 -0.0993 -1.0508
16843TIP3    H272021   6.382   2.793  11.580 -2.9577  1.3166  0.2965
16844TIP3   OH272022   0.683   6.624  15.452  0.2907 -0.5934 -0.0413
16844TIP3    H172023   0.748   6.558  15.427 -2.6180 -3.3170 -1.0698
16844TIP3    H272024   0.660   6.600  15.542  0.3733  0.0667  0.1555
16845TIP3   OH272025   5.316   5.434  15.475  0.1334 -0.4787  0.0450
16845TIP3    H172026   5.295   5.456  15.565 -0.7490 -0.2046 -0.2136
16845TIP3    H272027   5.383   5.498  15.449 -2.2077  1.8794 -0.6185
16846TIP3   OH272028   5.667   5.178   3.914 -0.8521  0.4945  0.5001
16846TIP3    H172029   5.575   5.193   3.892 -0.6982 -1.0395 -1.5936
16846TIP3    H272030   5.709   5.262   3.900 -1.4554  0.4902 -1.7673
16847TIP3   OH272031   5.551   5.577  13.138 -0.1922 -0.4914 -0.5431
16847TIP3    H172032   5.479   5.639  13.146 -0.6738 -1.1117  0.0230
16847TIP3    H272033   5.541   5.518  13.213  0.1160 -1.3962 -1.1955
16848TIP3   OH272034   3.258   2.582   2.125 -0.4325  0.1780 -0.2511
16848TIP3    H172035   3.202   2.508   2.149 -0.9005  0.8917  0.9609
16848TIP3    H272036   3.199   2.657   2.121  0.2849  0.7783  0.1529
16849TIP3   OH272037   2.141   5.542   2.387 -0.2961  0.6216 -0.2068
16849TIP3    H172038   2.104   5.578   2.468 -0.9919  0.6464 -0.5264
16849TIP3    H272039   2.223   5.502   2.414 -0.7620  0.1829  0.6123
16850TIP3   OH272040   2.846   3.866  10.427 -0.0178 -0.2018  0.4422
16850TIP3    H172041   2.928   3.892  10.470  0.7447 -0.8146 -0.5671
16850TIP3    H272042   2.862   3.775  10.401 -0.8924 -0.2128 -0.0741
16851TIP3   OH272043   6.054   4.496   6.035  0.1915 -0.1522 -0.0009
16851TIP3    H172044   6.003   4.486   5.955 -0.9212  0.4466  0.6108
16851TIP3    H272045   6.076   4.590   6.038  0.5269 -0.2362  0.2238
16852TIP3   OH272046   2.420   3.397   4.232  0.7248  0.5034 -0.0789
16852TIP3    H172047   2.350   3.412   4.170  2.5694 -2.8337 -3.3557
16852TIP3    H272048   2.493   3.450   4.200  1.1799  0.1368  0.3269
16853TIP3   OH272049   0.264   5.778  11.148 -0.5197  0.0402 -0.4470
16853TIP3    H172050   0.226   5.690  11.139 -2.2959  0.7354 -0.1679
16853TIP3    H272051   0.197   5.836  11.112 -0.2555  1.4442  1.2132
16854TIP3   OH272052   5.513   4.091  13.144  0.3492 -0.1851 -0.0965
16854TIP3    H172053   5.586   4.147  13.116  0.2634 -0.3818 -0.7127
16854TIP3    H272054   5.511   4.102  13.239 -0.3404  1.6892 -0.2844
16855TIP3   OH272055   5.028   5.927   0.604  0.5480 -0.2536 -0.2107
16855TIP3    H172056   5.059   5.988   0.671  1.7940 -0.0315 -0.9648
16855TIP3    H272057   5.063   5.961   0.522 -2.1596  0.3077 -1.2291
16856TIP3   OH272058   6.721   0.879  15.854  0.6838  0.0645  0.0837
16856TIP3    H172059   6.740   0.841  15.940  4.6249 -0.7929 -0.9773
16856TIP3    H272060   6.798   0.932  15.834 -0.1768  0.3544 -2.8826
16857TIP3   OH272061   3.019   5.738   5.784  0.5808 -0.6575  0.0890
16857TIP3    H172062   3.040   5.808   5.846 -1.2104  0.7643 -0.8183
16857TIP3    H272063   3.055   5.768   5.701 -0.1812 -0.8206 -0.3071
16858TIP3   OH272064   6.316   1.036  13.394 -0.1431  0.2090  0.4127
16858TIP3    H172065   6.260   1.102  13.435  2.0378  1.3087  1.7788
16858TIP3    H272066   6.339   0.976  13.465 -0.8321 -1.1473 -0.4796
16859TIP3   OH272067   3.879   1.008   2.584 -0.3723 -0.2980 -0.2723
16859TIP3    H172068   3.960   0.960   2.566  0.0157  0.6101 -1.0334
16859TIP3    H272069   3.909   1.097   2.606 -1.1829  0.1501 -0.9475
16860TIP3   OH272070   0.042   0.467   4.338  0.3208  0.6801 -0.0127
16860TIP3    H172071   0.093   0.541   4.306  0.9382 -0.3694 -1.6100
16860TIP3    H272072  -0.046   0.481   4.303  0.9317 -0.3327 -2.1428
16861TIP3   OH272073   2.683   5.234   5.036 -0.5309  0.6036 -0.5028
16861TIP3    H172074   2.688   5.233   4.940  0.0570 -1.3729 -0.4955
16861TIP3    H272075   2.611   5.174   5.056  1.6158 -1.9121  0.3048
16862TIP3   OH272076   5.735   6.776   6.753  0.2276 -0.1718 -0.3318
16862TIP3    H172077   5.769   6.854   6.796  0.6438  0.0417 -1.0222
16862TIP3    H272078   5.813   6.723   6.736 -0.1180 -1.0264  0.6804
16863TIP3   OH272079   0.459   0.374   2.805  0.5250 -0.2149 -0.6381
16863TIP3    H172080   0.408   0.452   2.825 -0.7291 -1.2306  0.3399
16863TIP3    H272081   0.528   0.372   2.872  1.3095  0.6717 -1.4011
16864TIP3   OH272082   3.463   6.337   0.799  0.3722 -0.6517 -0.2170
16864TIP3    H172083   3.552   6.360   0.773 -0.1092  2.4417  0.4495
16864TIP3    H272084   3.457   6.366   0.890 -1.8458  1.0600 -0.8349
16865TIP3   OH272085   5.769   2.265   5.089 -0.1639 -0.2864 -0.4777
16865TIP3    H172086   5.721   2.332   5.040 -2.3592 -2.5769 -1.6937
16865TIP3    H272087   5.741   2.279   5.180 -1.8706 -0.4950 -0.9317
16866TIP3   OH272088   6.384   3.837  16.332 -0.0994  0.3317 -0.1814
16866TIP3    H172089   6.476   3.863  16.324 -0.1567  1.0785  1.1648
16866TIP3    H272090   6.371   3.773  16.263  1.0460  1.2534 -1.3101
16867TIP3   OH272091   0.809   6.773   3.518 -0.0232 -0.3333 -0.0496
16867TIP3    H172092   0.833   6.771   3.611  0.2658 -1.6502 -0.1280
16867TIP3    H272093   0.773   6.861   3.504  1.5442  0.5019  0.8920
16868TIP3   OH272094   2.011   2.712  12.332  0.6738  0.6529  0.1205
16868TIP3    H172095   1.949   2.728  12.260  1.3724  0.0608 -0.6249
16868TIP3    H272096   2.034   2.800  12.363  1.4030  0.9975 -1.2874
16869TIP3   OH272097   4.763   0.854  15.880 -0.0605  0.3911 -0.1800
16869TIP3    H172098   4.832   0.887  15.939  0.5979 -0.8778 -0.2134
16869TIP3    H272099   4.811   0.820  15.804 -0.8640  1.3500 -1.1418
16870TIP3   OH272100   3.178   1.538   0.561 -0.0443 -0.4165  0.2682
16870TIP3    H172101   3.266   1.577   0.566  0.2166 -0.8714 -0.6330
16870TIP3    H272102   3.125   1.603   0.516 -0.0218 -0.4026  0.2618
16871TIP3   OH272103   3.267   6.719  16.291 -0.7742  0.2714 -0.0079
16871TIP3    H172104   3.229   6.634  16.311 -0.2036 -0.1009 -0.4772
16871TIP3    H272105   3.240   6.737  16.201 -3.1416  1.8343  0.9155
16872TIP3   OH272106   3.266   6.679   2.890  0.4015 -0.0899  0.2609
16872TIP3    H172107   3.313   6.761   2.871  0.1896  0.0623  0.3929
16872TIP3    H272108   3.242   6.686   2.982  0.4685 -0.3455  0.2977
16873TIP3   OH272109   3.561   0.421   5.273 -0.5248  0.6327  0.1082
16873TIP3    H172110   3.478   0.468   5.274 -1.6525 -1.2840  0.6213
16873TIP3    H272111   3.611   0.460   5.345 -1.1128  1.5523  0.0363
16874TIP3   OH272112   4.007   2.995   6.734 -0.4510  0.1174 -0.5693
16874TIP3    H172113   4.015   2.902   6.757 -0.1387  0.2283 -0.2164
16874TIP3    H272114   3.915   3.007   6.712 -0.8989  0.1093  1.1286
16875TIP3   OH272115   2.327   6.231   5.431 -0.4088 -0.3948 -0.5985
16875TIP3    H172116   2.247   6.281   5.445 -0.3031  0.2670 -2.2073
16875TIP3    H272117   2.311   6.147   5.474 -1.8367 -0.1597 -0.6284
16876TIP3   OH272118   3.499   0.404  11.403 -0.6246  0.2388  0.4848
16876TIP3    H172119   3.449   0.475  11.442 -1.5795 -0.0943 -0.1026
16876TIP3    H272120   3.433   0.342  11.372  0.1446 -0.1695 -0.3800
16877TIP3   OH272121   4.261   3.699  16.522 -0.1353 -0.4264  0.7288
16877TIP3    H172122   4.347   3.697  16.480 -1.2158  0.8875 -1.7481
16877TIP3    H272123   4.277   3.666  16.610  2.8789 -0.2938  0.3418
16878TIP3   OH272124   3.894   2.292  14.264 -0.5315  0.2316  0.0291
16878TIP3    H172125   3.801   2.274  14.279 -0.4051 -1.6739 -1.2012
16878TIP3    H272126   3.940   2.215  14.298  0.5860  0.9240  0.1681
16879TIP3   OH272127   6.013   3.414  16.152  0.3774 -0.0813  0.1065
16879TIP3    H172128   6.027   3.476  16.223  0.6480  0.7937 -0.6835
16879TIP3    H272129   6.073   3.342  16.170  0.9267  0.4455  0.4117
16880TIP3   OH272130   1.664   4.316  13.360  0.5937  0.1070  0.7935
16880TIP3    H172131   1.598   4.269  13.411  0.0505 -0.7180 -0.6164
16880TIP3    H272132   1.747   4.273  13.381  0.2245 -0.9097  0.2027
16881TIP3   OH272133   1.644   3.721  11.072 -0.9532 -0.0540 -0.5866
16881TIP3    H172134   1.562   3.768  11.056 -0.8373  0.4606  0.3102
16881TIP3    H272135   1.684   3.766  11.146  1.1892  1.0592 -2.2974
16882TIP3   OH272136   4.768   4.238  11.240  0.0432  0.4380 -0.5354
16882TIP3    H172137   4.735   4.277  11.321 -0.2203 -0.0346 -0.4091
16882TIP3    H272138   4.851   4.283  11.224  0.4526  0.0412  0.3949
16883TIP3   OH272139   1.673   1.197  15.601  0.3830 -0.3313 -0.2645
16883TIP3    H172140   1.751   1.252  15.595 -1.2347  2.1780  0.0964
16883TIP3    H272141   1.706   1.109  15.620  2.9825  1.0816  2.4141
16884TIP3   OH272142   3.700   0.664   2.719 -0.5623  0.2163  0.3001
16884TIP3    H172143   3.750   0.613   2.655  1.4961  0.5399  1.5531
16884TIP3    H272144   3.628   0.606   2.745  1.1681 -1.7399  0.9948
16885TIP3   OH272145   5.694   3.293   0.642 -0.0124  0.2697  1.0523
16885TIP3    H172146   5.613   3.260   0.682  0.1554  0.3241  1.4416
16885TIP3    H272147   5.706   3.239   0.564 -0.0678 -0.1865  1.3545
16886TIP3   OH272148   5.751   5.508   3.436 -0.2016 -0.1794  0.4522
16886TIP3    H172149   5.687   5.449   3.476  0.2501 -1.8281 -1.1002
16886TIP3    H272150   5.757   5.581   3.496 -1.1862 -1.4822  2.2399
16887TIP3   OH272151   2.340   5.028  15.140  0.2410 -0.6894  0.2795
16887TIP3    H172152   2.247   5.047  15.148  0.3819 -0.2661  0.9311
16887TIP3    H272153   2.368   5.077  15.062 -0.1884 -1.2754 -0.2569
16888TIP3   OH272154   0.510   1.500  15.682  0.1058 -0.4292  0.1603
16888TIP3    H172155   0.537   1.568  15.620  2.5563 -0.7285  0.7727
16888TIP3    H272156   0.526   1.418  15.635 -0.3654 -0.6263  0.3395
16889TIP3   OH272157   5.650   6.115  11.291 -0.0710 -0.2388  0.2792
16889TIP3    H172158   5.639   6.169  11.213 -0.3433  1.0316  1.1465
16889TIP3    H272159   5.720   6.053  11.269  0.1745  0.4048 -0.8048
16890TIP3   OH272160   1.583   0.396  16.705 -0.1084 -0.4656 -0.8037
16890TIP3    H172161   1.678   0.390  16.717 -0.2640 -0.1137  0.8741
16890TIP3    H272162   1.565   0.490  16.709 -0.6540 -0.6030  0.1578
16891TIP3   OH272163   4.913   5.515   5.073  0.2698 -0.5585 -0.4473
16891TIP3    H172164   4.958   5.471   5.001  0.8064  0.0898 -0.5188
16891TIP3    H272165   4.861   5.583   5.031  0.7229 -0.0631 -0.2126
16892TIP3   OH272166   0.100   3.410   3.509  0.3893  0.2411  0.2677
16892TIP3    H172167   0.138   3.326   3.537  0.1712 -0.0181 -0.1955
16892TIP3    H272168   0.124   3.471   3.578  2.3896  0.2886 -0.3881
16893TIP3   OH272169   6.479   1.810   2.793 -0.0354  0.8507  0.0091
16893TIP3    H172170   6.451   1.900   2.784  2.3067  1.8756  1.8619
16893TIP3    H272171   6.505   1.801   2.884 -1.8498 -2.2788  0.3781
16894TIP3   OH272172   3.717   0.533   2.463  0.2400  0.4800 -0.4648
16894TIP3    H172173   3.685   0.547   2.374  0.8949  1.4477 -0.5543
16894TIP3    H272174   3.675   0.451   2.491 -1.0391  0.8820 -1.1552
16895TIP3   OH272175   0.881   6.367   3.644 -0.1334  0.2231  0.1716
16895TIP3    H172176   0.827   6.289   3.634  0.6902 -0.2609 -0.6751
16895TIP3    H272177   0.903   6.393   3.555 -2.4568  2.9663  0.2520
16896TIP3   OH272178   3.398   2.750   3.540 -0.0943 -0.2220 -0.7224
16896TIP3    H172179   3.412   2.793   3.456  0.4335  0.9210 -0.0781
16896TIP3    H272180   3.486   2.729   3.572 -0.1371  1.2127  0.4475
16897TIP3   OH272181   0.876   2.379   4.054 -0.3225  0.3286 -0.7643
16897TIP3    H172182   0.948   2.380   4.117  0.4101 -2.8242 -1.3560
16897TIP3    H272183   0.799   2.402   4.106  0.4369 -0.9371  1.0304
16898TIP3   OH272184   5.271   2.738  16.762  0.1619  0.5595  0.1955
16898TIP3    H172185   5.351   2.736  16.710 -0.2681  0.2550 -0.4893
16898TIP3    H272186   5.205   2.774  16.702 -0.3963 -0.0210  0.4445
16899TIP3   OH272187   6.563   0.404   4.289  0.1262  0.0633 -0.1437
16899TIP3    H172188   6.579   0.350   4.212 -1.2661 -1.4938  0.6156
16899TIP3    H272189   6.494   0.464   4.263 -0.1198 -0.2482 -0.2083
16900TIP3   OH272190   3.354   3.813   5.426  0.2023 -0.1224 -0.1632
16900TIP3    H172191   3.406   3.774   5.355  0.7926 -0.1949  0.3058
16900TIP3    H272192   3.335   3.902   5.395 -0.5475 -0.5244 -0.9252
16901TIP3   OH272193   0.124   1.193  15.487 -0.6846 -0.5689  0.1036
16901TIP3    H172194   0.083   1.111  15.458 -0.6011 -0.2182 -1.0943
16901TIP3    H272195   0.115   1.251  15.411 -1.0500  0.6474  1.0629
16902TIP3   OH272196   4.661   4.739   0.591  0.6191 -0.3718 -0.5478
16902TIP3    H172197   4.659   4.680   0.666 -0.7962 -0.4647 -0.6410
16902TIP3    H272198   4.703   4.818   0.624  0.6468 -0.6706  0.1431
16903TIP3   OH272199   0.312   0.291   4.276 -0.5688  0.0790 -0.2108
16903TIP3    H172200   0.326   0.318   4.185 -3.1778 -0.3043 -0.8133
16903TIP3    H272201   0.236   0.343   4.305 -0.6514 -0.7998  1.2729
16904TIP3   OH272202   3.557   5.334  16.600  0.0466  0.0258 -0.0001
16904TIP3    H172203   3.560   5.255  16.545  3.7043  0.5135 -0.7444
16904TIP3    H272204   3.571   5.406  16.539  3.3949  0.6422  1.3112
16905TIP3   OH272205   0.795   6.663   3.018 -0.2063 -1.0655  0.4050
16905TIP3    H172206   0.715   6.647   3.070 -0.2711  0.8667  0.9680
16905TIP3    H272207   0.864   6.674   3.084 -0.0425  0.1110  0.0555
16906TIP3   OH272208   6.162   5.779  15.306 -0.4168  0.0714  0.8758
16906TIP3    H172209   6.101   5.823  15.247  1.4506  0.3651 -0.9452
16906TIP3    H272210   6.162   5.688  15.277  0.0032  0.0679  0.8932
16907TIP3   OH272211   2.395   3.089  15.251  0.4696 -0.1109 -0.0412
16907TIP3    H172212   2.364   3.055  15.335  0.2691 -1.3419 -0.5894
16907TIP3    H272213   2.477   3.134  15.271  0.5708 -0.6446  0.7702
16908TIP3   OH272214   2.417   2.903  16.969  0.1877 -0.1551  0.2307
16908TIP3    H172215   2.497   2.911  17.020  0.3912  0.4818 -0.1713
16908TIP3    H272216   2.406   2.809  16.955  0.5278 -0.2829  0.8044
16909TIP3   OH272217   0.479   6.695  15.178  0.5187 -0.1314  0.2380
16909TIP3    H172218   0.419   6.667  15.247 -1.2502 -0.6259 -1.4137
16909TIP3    H272219   0.512   6.614  15.141 -0.3354  0.0376 -0.9562
16910TIP3   OH272220   3.387   5.870  12.990 -0.5559 -0.2880 -0.2022
16910TIP3    H172221   3.393   5.853  13.084 -0.5416  0.7955  0.0063
16910TIP3    H272222   3.443   5.947  12.976 -2.3004  0.9550 -0.6996
16911TIP3   OH272223   1.814   1.001   6.165  0.4450  0.4363 -0.0995
16911TIP3    H172224   1.816   0.914   6.205 -0.5690 -0.4870 -1.9350
16911TIP3    H272225   1.772   0.987   6.080 -2.2351  3.1418  0.6230
16912TIP3   OH272226   3.447   0.069  16.428  0.4507  0.3101 -0.1233
16912TIP3    H172227   3.386   0.020  16.374 -0.4537 -0.4057  1.4870
16912TIP3    H272228   3.531   0.024  16.415  1.0257  1.9680 -3.2161
16913TIP3   OH272229   6.045   5.312  13.770  0.1664 -0.1336  0.6059
16913TIP3    H172230   6.127   5.359  13.753  0.3321 -0.3688  0.7469
16913TIP3    H272231   5.992   5.328  13.691 -0.2047  1.1611  1.0880
16914TIP3   OH272232   0.056   0.973  12.800  0.5233 -0.2545 -0.2776
16914TIP3    H172233  -0.022   1.024  12.822  0.4444  0.0173 -1.1416
16914TIP3    H272234   0.103   1.027  12.737 -0.4168 -1.9171 -2.5639
16915TIP3   OH272235   0.527   5.999  13.129 -0.0212  0.1861 -0.1370
16915TIP3    H172236   0.589   6.070  13.145 -0.3281  1.3213 -3.2147
16915TIP3    H272237   0.576   5.937  13.075 -0.9247  0.0964 -0.8801
16916TIP3   OH272238   1.361   6.176  17.053  0.7827 -0.4891  0.8508
16916TIP3    H172239   1.430   6.157  16.990  1.7168 -3.0886  2.5108
16916TIP3    H272240   1.341   6.269  17.039  2.6341 -0.3633 -1.5614
16917TIP3   OH272241   4.484   1.458  15.374  0.0304 -0.6436  0.0833
16917TIP3    H172242   4.458   1.547  15.400  0.8286  0.3578 -2.2465
16917TIP3    H272243   4.404   1.406  15.382 -0.6501  0.4526  0.7117
16918TIP3   OH272244   2.691   0.368  16.749 -0.1441  0.5901  0.7541
16918TIP3    H172245   2.644   0.286  16.731 -0.5494  1.0285 -0.1990
16918TIP3    H272246   2.632   0.417  16.806 -1.0915  1.3511 -0.8367
16919TIP3   OH272247   3.178   4.756   0.494  0.2851 -0.2213 -0.1368
16919TIP3    H172248   3.119   4.793   0.559  1.3196 -0.6520  1.0927
16919TIP3    H272249   3.122   4.702   0.438 -0.6758  0.4009  0.2029
16920TIP3   OH272250   3.453   5.155  15.223  0.4744 -0.3949 -0.5206
16920TIP3    H172251   3.422   5.110  15.144 -1.8852 -0.0816  0.1789
16920TIP3    H272252   3.447   5.090  15.292  2.2456 -0.5726 -0.4880
16921TIP3   OH272253   1.876   6.038  11.496  0.2347  0.0387  0.1046
16921TIP3    H172254   1.872   5.992  11.412  0.3136 -0.8802  0.5872
16921TIP3    H272255   1.792   6.083  11.503  0.0122 -0.3176 -0.2261
16922TIP3   OH272256   2.107   4.335   6.152  0.6204 -0.3745  0.1658
16922TIP3    H172257   2.091   4.344   6.058 -0.5676  1.1177  0.4806
16922TIP3    H272258   2.044   4.269   6.182  0.3463 -0.1464  0.0859
16923TIP3   OH272259   1.453   5.510   0.792 -0.4031  0.0013  0.4708
16923TIP3    H172260   1.500   5.426   0.793 -0.5637 -0.0913  0.3794
16923TIP3    H272261   1.363   5.487   0.815 -0.0980  0.3717  2.1363
16924TIP3   OH272262   0.789   4.336   4.723 -0.0634 -0.4103  0.1562
16924TIP3    H172263   0.709   4.292   4.751 -0.3013 -0.5232 -0.6684
16924TIP3    H272264   0.790   4.327   4.628  1.5940 -1.5425  0.2316
16925TIP3   OH272265   1.276   1.392  13.293 -0.1564  0.2062 -0.2778
16925TIP3    H172266   1.263   1.302  13.263  1.5968  0.1302 -0.9165
16925TIP3    H272267   1.258   1.445  13.216  1.4541  0.2054 -0.6765
16926TIP3   OH272268   4.106   0.400   0.272 -0.1072 -0.0942  0.0994
16926TIP3    H172269   4.026   0.374   0.318  0.8005 -0.8072  1.3717
16926TIP3    H272270   4.079   0.469   0.212 -1.6530 -0.2605  0.5684
16927TIP3   OH272271   6.430   4.567  13.959 -0.3160  0.2751  0.5228
16927TIP3    H172272   6.419   4.587  14.052 -1.1413 -0.7680  0.6624
16927TIP3    H272273   6.442   4.472  13.956 -1.6896  0.1109 -0.5390
16928TIP3   OH272274   5.283   4.840  12.879  0.3596 -0.0832 -0.3640
16928TIP3    H172275   5.328   4.914  12.920  0.6782 -0.4215 -0.1019
16928TIP3    H272276   5.200   4.833  12.927 -0.6379  1.3979 -1.7134
16929TIP3   OH272277   3.903   2.724  14.065 -0.0295  0.2650  0.0504
16929TIP3    H172278   3.896   2.675  13.983 -0.5572 -0.9972  0.8142
16929TIP3    H272279   3.823   2.702  14.113  1.0514 -0.3960  1.6153
16930TIP3   OH272280   5.334   3.495  14.026  0.1068  0.2334 -0.4518
16930TIP3    H172281   5.363   3.425  14.085  0.6006  0.9322  0.1541
16930TIP3    H272282   5.390   3.569  14.048 -1.2861  1.2477 -0.1418
16931TIP3   OH272283   5.010   2.607   4.359 -0.2037  0.3902  0.0223
16931TIP3    H172284   5.044   2.520   4.337  2.2342  0.7961  1.7692
16931TIP3    H272285   4.915   2.595   4.361 -0.1989 -1.3076 -3.2697
16932TIP3   OH272286   6.658   5.256   5.154 -0.0452  0.1443  0.0309
16932TIP3    H172287   6.711   5.337   5.154  0.6371 -0.2944 -0.0919
16932TIP3    H272288   6.689   5.207   5.230 -0.1497 -0.2043 -0.1513
16933TIP3   OH272289   1.779   2.846  10.728 -0.1132  0.3957 -0.5194
16933TIP3    H172290   1.743   2.880  10.810  0.7072 -0.7919  0.3819
16933TIP3    H272291   1.794   2.923  10.674 -0.1147  1.2675  0.6839
16934TIP3   OH272292   0.263   3.301  14.690 -0.3998  0.1179  0.3622
16934TIP3    H172293   0.177   3.316  14.651 -0.7269  1.7618  1.6029
16934TIP3    H272294   0.314   3.259  14.621 -2.2856 -1.1953 -0.2870
16935TIP3   OH272295   4.722   3.380  11.555 -0.0484 -0.2529 -1.1012
16935TIP3    H172296   4.730   3.466  11.597 -0.1215 -1.0636  0.6117
16935TIP3    H272297   4.628   3.366  11.546 -0.1726 -1.3945  1.3429
16936TIP3   OH272298   0.483   3.329   5.624  0.1810  1.1315 -0.6759
16936TIP3    H172299   0.444   3.273   5.691 -0.7422  1.6791 -0.7434
16936TIP3    H272300   0.513   3.407   5.671 -0.9987  1.7773 -0.9666
16937TIP3   OH272301   0.577   6.423   4.880 -0.0630 -0.0628 -0.0358
16937TIP3    H172302   0.520   6.349   4.862 -0.1647 -0.7863  2.7915
16937TIP3    H272303   0.533   6.497   4.838 -0.7971 -1.2968 -1.5454
16938TIP3   OH272304   1.959   3.413  14.309 -0.3059 -0.0180  0.5527
16938TIP3    H172305   1.894   3.454  14.253 -1.2495 -0.7659  1.0496
16938TIP3    H272306   1.927   3.429  14.398  1.1413  1.1243  0.9061
16939TIP3   OH272307   4.435   4.663   1.917 -0.5226 -0.5185  0.0161
16939TIP3    H172308   4.366   4.723   1.888 -0.0570 -0.6009 -1.3774
16939TIP3    H272309   4.425   4.587   1.860  0.0444 -0.9903  0.5374
16940TIP3   OH272310   1.126   5.479  11.196 -0.5054  0.0350 -0.5644
16940TIP3    H172311   1.143   5.421  11.121 -2.1153 -0.3980 -0.6246
16940TIP3    H272312   1.207   5.476  11.247  0.2144 -0.5561 -1.6867
16941TIP3   OH272313   3.960   3.723  10.448  0.2303 -0.2527 -0.1720
16941TIP3    H172314   3.897   3.705  10.379  0.3700  0.8524 -0.6051
16941TIP3    H272315   4.042   3.739  10.402  0.1627  1.2281  0.1747
16942TIP3   OH272316   1.268   6.070  12.523  0.0761  0.1277  0.4233
16942TIP3    H172317   1.286   6.043  12.432  2.8422  0.2480  0.8338
16942TIP3    H272318   1.287   6.163  12.524  2.5105 -0.3002  1.5665
16943TIP3   OH272319   1.718   5.754  16.780 -0.1975  0.2173  0.2481
16943TIP3    H172320   1.639   5.789  16.822  0.2580  0.6863  0.7315
16943TIP3    H272321   1.751   5.826  16.727  0.6241  0.4590  1.0716
16944TIP3   OH272322   2.296   1.108   0.435 -0.5184  0.3364  0.1513
16944TIP3    H172323   2.295   1.109   0.340  1.5170 -0.1389  0.0862
16944TIP3    H272324   2.320   1.019   0.458  1.3935  1.0222  1.0170
16945TIP3   OH272325   2.394   6.604  11.436  0.4661 -0.3178  0.2446
16945TIP3    H172326   2.457   6.544  11.396  1.1956  0.5476  0.0695
16945TIP3    H272327   2.356   6.554  11.508  0.8108 -1.0992 -0.0994
16946TIP3   OH272328   5.250   3.203   4.005  0.3298  0.5614 -0.4476
16946TIP3    H172329   5.313   3.180   4.073  0.4852 -2.6026 -1.5003
16946TIP3    H272330   5.303   3.208   3.925 -0.5107 -0.9053 -1.1366
16947TIP3   OH272331   4.926   2.163  15.842  0.0153 -0.0198 -0.1963
16947TIP3    H172332   4.832   2.153  15.856 -0.0217 -3.2318 -1.8267
16947TIP3    H272333   4.937   2.161  15.747  1.7425  0.0563 -0.0315
16948TIP3   OH272334   1.715   5.334   2.657 -0.2939  0.1984  0.3008
16948TIP3    H172335   1.752   5.349   2.570 -1.1035 -1.7506 -0.4457
16948TIP3    H272336   1.787   5.299   2.709 -0.4702 -1.4171 -0.4811
16949TIP3   OH272337   3.147   4.780  15.811  0.6345 -0.3719  0.0002
16949TIP3    H172338   3.143   4.691  15.774 -0.1145 -1.2309  1.9752
16949TIP3    H272339   3.130   4.838  15.737 -0.8169 -1.9830 -1.0034
16950TIP3   OH272340   1.363   4.742   5.902 -0.0441  0.3175  0.5488
16950TIP3    H172341   1.394   4.729   5.991  0.1985 -0.2308  0.3917
16950TIP3    H272342   1.286   4.685   5.895 -1.3761  1.9604  1.0577
16951TIP3   OH272343   1.762   5.495  14.218  0.6683  0.5362 -0.0914
16951TIP3    H172344   1.751   5.557  14.290 -0.5707 -0.3285  0.4899
16951TIP3    H272345   1.809   5.421  14.258  0.2716  0.1971 -0.2531
16952TIP3   OH272346   4.362   5.218  17.192  0.3691  0.7379 -0.8012
16952TIP3    H172347   4.414   5.288  17.233  2.1942  0.0718 -1.8588
16952TIP3    H272348   4.427   5.155  17.162 -1.2006 -1.1851 -0.3637
16953TIP3   OH272349   2.075   0.424  14.531 -0.3901  0.3661 -0.0649
16953TIP3    H172350   1.982   0.421  14.511 -0.0812  1.1983 -1.8341
16953TIP3    H272351   2.085   0.502  14.586 -0.6655  0.5792 -0.3147
16954TIP3   OH272352   0.247   6.492   2.494 -0.4521 -0.2699 -0.3043
16954TIP3    H172353   0.271   6.405   2.461 -1.8809 -0.9472  0.3576
16954TIP3    H272354   0.268   6.489   2.587  0.0585  0.3274 -0.3905
16955TIP3   OH272355   6.693   4.752  11.017  0.1451 -0.6155  0.1435
16955TIP3    H172356   6.690   4.659  10.996  1.2391  0.0002 -3.3775
16955TIP3    H272357   6.782   4.779  10.994 -0.2261  1.3534  0.8430
16956TIP3   OH272358   5.250   3.250   3.533  0.1626 -0.1580 -0.5353
16956TIP3    H172359   5.202   3.298   3.601  0.0816 -2.0789  0.8435
16956TIP3    H272360   5.182   3.210   3.479  0.2168 -0.0407 -0.6888
16957TIP3   OH272361   4.028   1.746  14.437  0.2932 -0.2664 -0.1918
16957TIP3    H172362   4.000   1.655  14.429  0.6241 -0.4409  0.5519
16957TIP3    H272363   3.967   1.785  14.500  0.9117 -0.3124  0.4508
16958TIP3   OH272364   3.559   3.331  16.394 -0.4329  0.4916  0.0715
16958TIP3    H172365   3.543   3.425  16.387 -0.7424  0.4343 -0.0069
16958TIP3    H272366   3.487   3.298  16.447 -0.7390  0.1839 -0.5212
16959TIP3   OH272367   4.712   4.361   2.913 -0.0180 -0.1981 -0.3611
16959TIP3    H172368   4.661   4.319   2.982  0.2439  1.1592  0.6928
16959TIP3    H272369   4.665   4.340   2.832 -1.1386 -0.5963  0.3737
16960TIP3   OH272370   5.702   3.157   1.516 -0.8721 -0.0944  0.6613
16960TIP3    H172371   5.674   3.248   1.511 -0.6464  0.0410  1.6344
16960TIP3    H272372   5.797   3.162   1.521 -0.5119 -0.5578 -2.9339
16961TIP3   OH272373   2.119   3.695  15.139  1.0623  0.3367  0.3848
16961TIP3    H172374   2.193   3.635  15.151  1.4386  0.3508 -1.4971
16961TIP3    H272375   2.079   3.668  15.056 -1.7505 -0.3490  1.8410
16962TIP3   OH272376   0.729   1.362   3.951  0.1889 -0.0062 -0.2570
16962TIP3    H172377   0.636   1.346   3.969  0.0029  1.8555  0.6710
16962TIP3    H272378   0.773   1.283   3.983 -0.8597  0.1501  1.7540
16963TIP3   OH272379   2.131   4.127  11.808  0.1584 -0.1591  0.0052
16963TIP3    H172380   2.051   4.180  11.811 -0.3903 -1.0050  1.8795
16963TIP3    H272381   2.197   4.180  11.853 -0.3550 -0.9385  1.7580
16964TIP3   OH272382   0.224   1.358  14.232  0.0828  0.4190  0.5618
16964TIP3    H172383   0.154   1.354  14.167 -1.2396  0.6370  1.9162
16964TIP3    H272384   0.303   1.377  14.182 -1.1222  2.0122 -0.8320
16965TIP3   OH272385   2.296   1.972   2.661  0.5133  0.1751  0.2358
16965TIP3    H172386   2.252   1.946   2.580 -0.5156 -1.3401  1.2273
16965TIP3    H272387   2.225   1.997   2.720  1.3360  3.0669  0.1484
16966TIP3   OH272388   1.049   2.342  12.304 -0.0375  0.7136  0.1263
16966TIP3    H172389   1.141   2.352  12.332 -0.3291  2.0594  0.6884
16966TIP3    H272390   1.000   2.400  12.362 -1.3107 -0.2867  0.0856
16967TIP3   OH272391   4.140   6.108   0.845  0.3494 -0.3665  0.3405
16967TIP3    H172392   4.131   6.191   0.891  2.2544 -0.6187  1.2418
16967TIP3    H272393   4.078   6.050   0.889 -2.0414  0.8253 -1.1756
16968TIP3   OH272394   3.469   4.225  14.764  0.1013  0.0418  0.2281
16968TIP3    H172395   3.478   4.301  14.822  2.5183  0.8659 -1.0671
16968TIP3    H272396   3.537   4.165  14.793 -1.2318 -1.3137  0.6826
16969TIP3   OH272397   4.275   1.084   0.089 -1.3538 -0.4045  0.4057
16969TIP3    H172398   4.330   1.087   0.168  0.5671  1.0344 -0.8876
16969TIP3    H272399   4.219   1.162   0.096  1.6910  2.1789 -1.4535
16970TIP3   OH272400   1.623   5.987  12.395  0.1392 -0.2014  0.0175
16970TIP3    H172401   1.615   5.932  12.473 -0.4093  0.9719  0.8242
16970TIP3    H272402   1.618   5.926  12.322  1.3661 -1.4124  0.9001
16971TIP3   OH272403   1.221   5.345   0.788 -0.1583  0.1739 -0.5389
16971TIP3    H172404   1.224   5.250   0.797  0.5204  0.0986 -1.4715
16971TIP3    H272405   1.220   5.377   0.878 -0.1359 -0.6996 -0.2137
16972TIP3   OH272406   2.401   5.095   1.632  0.4408 -0.0514  0.0497
16972TIP3    H172407   2.360   5.168   1.679 -3.1378 -0.9347 -1.4078
16972TIP3    H272408   2.422   5.131   1.546 -2.2985 -0.8509 -1.0454
16973TIP3   OH272409   2.353   4.240  11.916  0.4137 -0.6670  0.1042
16973TIP3    H172410   2.409   4.181  11.865  1.8124 -0.4111  1.2705
16973TIP3    H272411   2.363   4.211  12.006 -2.5774 -1.5529  0.2260
16974TIP3   OH272412   3.952   0.024   5.518  0.4318  0.0809  0.9609
16974TIP3    H172413   3.951  -0.033   5.440  0.9223  0.9163  0.3269
16974TIP3    H272414   3.884  -0.013   5.575  0.6042 -1.0192  0.4842
16975TIP3   OH272415   5.606   5.011   1.211  0.5080 -0.5964 -0.0062
16975TIP3    H172416   5.574   5.066   1.282 -1.3830 -0.4439 -0.9155
16975TIP3    H272417   5.598   5.065   1.133  3.1723 -0.5385 -0.3158
16976TIP3   OH272418   3.309   2.023  16.761 -0.0085  0.3004 -0.4623
16976TIP3    H172419   3.322   1.931  16.736  0.3175  0.4055 -0.6743
16976TIP3    H272420   3.228   2.022  16.812 -0.4373  0.0092 -1.1289
16977TIP3   OH272421   3.082   4.572  16.435 -0.8875 -0.1601 -0.1846
16977TIP3    H172422   3.018   4.631  16.396 -0.2843  0.2831 -0.5190
16977TIP3    H272423   3.044   4.547  16.519 -1.0644  0.8626  0.0482
16978TIP3   OH272424   1.377   5.781  10.733 -0.4002 -0.0397 -0.1229
16978TIP3    H172425   1.406   5.703  10.781 -1.5942 -2.4270 -3.0013
16978TIP3    H272426   1.457   5.817  10.695 -0.0352 -0.7893 -0.0751
16979TIP3   OH272427   6.663   4.335  13.463  0.8012  0.0101 -0.0540
16979TIP3    H172428   6.594   4.401  13.467 -0.3352 -1.1400  0.3009
16979TIP3    H272429   6.622   4.260  13.421  1.6476 -0.9160  0.7055
16980TIP3   OH272430   4.550   3.532  12.256 -0.0960  0.6631 -0.0075
16980TIP3    H172431   4.466   3.533  12.302 -1.1384 -1.5257 -1.6894
16980TIP3    H272432   4.596   3.456  12.293  1.1516  1.7834  0.8298
16981TIP3   OH272433   4.993   3.504  16.464  0.6299  0.2433 -0.1852
16981TIP3    H172434   5.035   3.418  16.468 -0.4459 -0.3128 -0.3349
16981TIP3    H272435   5.065   3.566  16.456  1.3877 -0.7533 -1.6282
16982TIP3   OH272436   0.171   1.482  14.775  0.5550  0.7794 -0.0804
16982TIP3    H172437   0.158   1.469  14.681  0.9581 -0.6704  0.0454
16982TIP3    H272438   0.082   1.487  14.811  0.3731  2.5031 -0.6383
16983TIP3   OH272439   4.141   0.599   1.002  0.8552 -0.2102 -0.0114
16983TIP3    H172440   4.088   0.618   0.924  0.0707 -1.4754  0.1813
16983TIP3    H272441   4.214   0.546   0.970  1.2068  0.2947 -0.0564
16984TIP3   OH272442   1.371   5.028   2.406  0.1414  0.0819  0.0247
16984TIP3    H172443   1.286   5.040   2.363 -0.0156  0.0997  0.3371
16984TIP3    H272444   1.418   5.109   2.390  0.3618 -0.1868 -0.7315
16985TIP3   OH272445   3.996   1.787   3.518 -0.1720 -0.5107  0.1942
16985TIP3    H172446   3.979   1.742   3.435 -0.9070 -2.2779  1.2382
16985TIP3    H272447   3.964   1.876   3.505  0.8927 -0.3484 -1.8102
16986TIP3   OH272448   1.438   1.838   0.275 -0.3239  0.3630  0.2340
16986TIP3    H172449   1.381   1.915   0.283 -0.3694  0.4674 -0.9008
16986TIP3    H272450   1.526   1.873   0.287 -0.1982  0.9335 -1.8413
16987TIP3   OH272451   1.644   1.475  16.928  0.7399  0.3057  0.3750
16987TIP3    H172452   1.645   1.546  16.864  1.0776 -0.2892 -0.3143
16987TIP3    H272453   1.726   1.484  16.976 -0.0751  1.4911  1.5974
16988TIP3   OH272454   4.099   6.795  12.838 -0.1133 -0.1508  0.2771
16988TIP3    H172455   4.072   6.708  12.870 -0.9686 -0.3357 -0.8732
16988TIP3    H272456   4.129   6.779  12.748 -2.7848  1.0763 -0.9520
16989TIP3   OH272457   3.235   1.393  14.857 -0.6404 -0.0259 -0.2700
16989TIP3    H172458   3.309   1.336  14.873 -1.9154 -1.5647  0.4306
16989TIP3    H272459   3.203   1.369  14.770 -1.9646 -1.3819  0.5400
16990TIP3   OH272460   4.130   5.466  13.757 -0.4397  0.4738  0.4136
16990TIP3    H172461   4.098   5.523  13.687  0.8387  0.6328 -0.0864
16990TIP3    H272462   4.135   5.379  13.717  0.6842  0.6393  0.1404
16991TIP3   OH272463   0.738   6.058  16.657 -0.1611 -0.3517 -0.6230
16991TIP3    H172464   0.725   5.963  16.653 -1.1016 -0.3687  1.3825
16991TIP3    H272465   0.749   6.077  16.751 -3.0922  1.8153 -0.5705
16992TIP3   OH272466   0.316   1.669   3.310 -0.3951 -0.6158 -0.2856
16992TIP3    H172467   0.368   1.636   3.236 -0.2959 -1.1196  0.0066
16992TIP3    H272468   0.355   1.755   3.328 -1.5361  0.3042 -1.9251
16993TIP3   OH272469   2.405   4.213  12.985 -0.6245 -0.2453 -0.7440
16993TIP3    H172470   2.383   4.122  12.968  0.8182 -1.1964  1.9171
16993TIP3    H272471   2.460   4.238  12.910 -0.4714 -1.7762 -1.1823
16994TIP3   OH272472   1.885   6.570   0.157 -0.3508  0.4579 -0.2268
16994TIP3    H172473   1.900   6.644   0.098 -0.2415  0.6644  0.0585
16994TIP3    H272474   1.801   6.589   0.199 -0.5051  0.2322 -0.4349
16995TIP3   OH272475   1.280   3.503  12.325 -0.6299 -0.8265 -0.2051
16995TIP3    H172476   1.248   3.413  12.322 -1.8374 -0.4103 -0.4967
16995TIP3    H272477   1.211   3.551  12.371  0.1542 -0.1052  0.2487
16996TIP3   OH272478   3.881   2.848   3.493 -0.5047 -0.4445 -0.0637
16996TIP3    H172479   3.952   2.902   3.529 -0.4038 -0.9539  0.5170
16996TIP3    H272480   3.818   2.911   3.458  0.1492  0.0183 -0.4195
16997TIP3   OH272481   4.093   3.545   5.488 -0.2373  0.6424  0.5312
16997TIP3    H172482   4.126   3.496   5.564 -1.3132 -1.0017 -0.0019
16997TIP3    H272483   4.008   3.506   5.470  0.2438  0.5919 -1.8719
16998TIP3   OH272484   5.023   5.156  14.599 -0.2091  0.3137  0.0793
16998TIP3    H172485   4.949   5.190  14.549 -0.4839  0.4823  0.5921
16998TIP3    H272486   4.996   5.165  14.691  0.4261  0.3348  0.2685
16999TIP3   OH272487   5.996   0.724   5.109 -0.2085 -0.4725  0.4497
16999TIP3    H172488   6.057   0.676   5.052 -0.6132 -0.3941 -0.0656
16999TIP3    H272489   5.923   0.663   5.121 -0.8399  0.0752 -0.4068
17000TIP3   OH272490   6.483   4.240   2.340  0.3807  0.1203 -0.1280
17000TIP3    H172491   6.445   4.310   2.288 -1.3241 -0.0297  0.8517
17000TIP3    H272492   6.563   4.278   2.377 -0.6950  1.7152  0.6794
17001TIP3   OH272493   5.062   3.540   5.335  0.4120 -0.5577 -0.1857
17001TIP3    H172494   5.026   3.451   5.336 -0.6800 -0.1389 -0.4364
17001TIP3    H272495   5.045   3.571   5.246  0.3278  0.0692  0.0446
17002TIP3   OH272496   0.692   6.305  13.527 -0.1130 -0.3232 -0.3130
17002TIP3    H172497   0.661   6.315  13.617  0.2929 -0.4503 -0.1605
17002TIP3    H272498   0.734   6.219  13.525 -0.3243 -0.4213 -0.6835
17003TIP3   OH272499   0.169   6.482  14.843 -0.2571 -0.5049 -0.2526
17003TIP3    H172500   0.221   6.548  14.798  1.5130 -0.9421  1.0173
17003TIP3    H272501   0.234   6.430  14.891 -1.6969 -2.4346 -0.2965
17004TIP3   OH272502   2.112   6.187  14.668  0.2151 -0.5518 -0.3750
17004TIP3    H172503   2.091   6.272  14.708  0.3114 -0.5896 -0.2426
17004TIP3    H272504   2.030   6.137  14.673  0.5890 -1.0617  1.0455
17005TIP3   OH272505   4.971   3.781  14.218 -0.4906 -0.9188 -0.3778
17005TIP3    H172506   4.935   3.698  14.188 -0.3864 -1.1285  0.0726
17005TIP3    H272507   5.065   3.766  14.226 -0.4841 -0.7897 -0.1982
17006TIP3   OH272508   4.274   2.656  13.082  0.0906 -0.4072 -0.0126
17006TIP3    H172509   4.242   2.741  13.112  1.0005  0.2273 -0.7942
17006TIP3    H272510   4.330   2.626  13.154  0.3233 -0.0207 -0.0292
17007TIP3   OH272511   6.009   0.022  12.742  0.1444 -0.1469  0.1744
17007TIP3    H172512   5.953   0.071  12.802 -0.1197  0.5673 -0.6411
17007TIP3    H272513   6.063  -0.032  12.799  0.0674  0.6920  1.0638
17008TIP3   OH272514   5.245   3.089   0.244 -0.4016  0.0530 -0.2339
17008TIP3    H172515   5.243   3.013   0.186  0.6279 -0.7493  0.7190
17008TIP3    H272516   5.229   3.164   0.187 -0.1096 -0.7563 -1.4195
17009TIP3   OH272517   1.834   1.699  11.720 -0.3460 -0.0795  0.3422
17009TIP3    H172518   1.818   1.605  11.708  0.7838 -0.1440 -0.9497
17009TIP3    H272519   1.904   1.719  11.658  0.1032  1.4275  1.2880
17010TIP3   OH272520   5.755   1.475   5.684  0.1945 -0.0557  0.3913
17010TIP3    H172521   5.851   1.478   5.689  0.2147  0.5513 -0.2030
17010TIP3    H272522   5.735   1.385   5.660  0.6977  0.1363 -0.8320
17011TIP3   OH272523   3.753   2.596  12.743 -0.6664 -0.2208 -0.2841
17011TIP3    H172524   3.699   2.535  12.794 -1.5130  1.7420  1.2770
17011TIP3    H272525   3.694   2.627  12.674 -1.6498  1.9021  1.4050
17012TIP3   OH272526   5.347   4.870   0.499 -0.2157 -0.5349 -0.0225
17012TIP3    H172527   5.407   4.854   0.427  0.8145 -0.1826  0.7273
17012TIP3    H272528   5.366   4.959   0.527 -0.1849 -0.8548  1.0337
17013TIP3   OH272529   0.418   4.515   5.984 -0.8795 -0.2974  0.5721
17013TIP3    H172530   0.503   4.496   5.945  0.2583  1.2728  2.1234
17013TIP3    H272531   0.356   4.461   5.934  0.9981 -1.5019 -0.5911
17014TIP3   OH272532   1.701   0.351   5.800 -0.1414  0.3205  0.0274
17014TIP3    H172533   1.743   0.306   5.873  2.1831  0.3781 -1.1776
17014TIP3    H272534   1.772   0.369   5.738 -2.0217  0.1569 -2.3406
17015TIP3   OH272535   4.148   0.440  16.898  0.0324 -0.2146  0.5200
17015TIP3    H172536   4.077   0.379  16.875  0.2944 -0.5255  0.5320
17015TIP3    H272537   4.137   0.513  16.837  1.8041 -1.8213 -1.9070
17016TIP3   OH272538   3.121   4.583  16.140  0.2449 -0.3584  0.1041
17016TIP3    H172539   3.151   4.548  16.224  0.0170  1.5511  1.0594
17016TIP3    H272540   3.185   4.554  16.076  3.5401  2.3913  1.8038
17017TIP3   OH272541   0.952   4.686   4.552 -0.1059 -0.2489 -0.5659
17017TIP3    H172542   0.922   4.772   4.523  0.3508 -0.1797 -0.8465
17017TIP3    H272543   1.008   4.655   4.481  2.3367  0.6181  0.8553
17018TIP3   OH272544   1.928   0.913  15.725 -0.6414 -0.3758 -0.7025
17018TIP3    H172545   1.885   0.920  15.640 -1.1769 -0.7141 -0.4637
17018TIP3    H272546   1.870   0.858  15.778 -0.0347 -0.6405 -0.2934
17019TIP3   OH272547   1.893   4.872  11.296  0.1430 -0.0681 -0.0939
17019TIP3    H172548   1.856   4.789  11.325  0.9132  0.1618  1.6995
17019TIP3    H272549   1.986   4.855  11.284  0.4639  0.6696  1.0789
17020TIP3   OH272550   5.154   4.040  15.850  0.4851 -0.6817 -0.6721
17020TIP3    H172551   5.080   4.077  15.803  0.3046  1.2697  0.9994
17020TIP3    H272552   5.171   4.102  15.921  4.2541 -0.5726 -1.4274
17021TIP3   OH272553   3.190   4.160   2.138 -0.2657 -0.1018  0.5437
17021TIP3    H172554   3.113   4.126   2.184  1.2840 -2.0260  1.8641
17021TIP3    H272555   3.260   4.098   2.159  1.2009  0.4655 -2.2177
17022TIP3   OH272556   2.444   4.040   3.725  0.3088 -0.3977 -0.9947
17022TIP3    H172557   2.370   3.979   3.728 -0.4327  0.5016  1.8374
17022TIP3    H272558   2.418   4.106   3.661 -2.6023  1.2236  1.5855
17023TIP3   OH272559   5.368   0.164   5.877 -0.4528  0.1788  0.1364
17023TIP3    H172560   5.451   0.181   5.833 -0.4946 -0.9610 -0.4360
17023TIP3    H272561   5.335   0.250   5.902  1.1967  0.6080  0.9586
17024TIP3   OH272562   2.439   0.602   1.049  0.1251  0.0825  0.5522
17024TIP3    H172563   2.394   0.638   0.972 -0.8977  0.9525  1.5167
17024TIP3    H272564   2.396   0.519   1.066  0.2322 -0.0258  0.2986
17025TIP3   OH272565   1.805   0.356  11.259 -0.0510  0.8201 -0.1418
17025TIP3    H172566   1.802   0.449  11.236 -2.2583  0.4199 -1.8762
17025TIP3    H272567   1.763   0.351  11.345 -0.6347  1.3536 -0.3902
17026TIP3   OH272568   5.541   3.283   4.126  0.1802 -0.5348 -0.2616
17026TIP3    H172569   5.479   3.354   4.106  2.0330  2.6807  3.8750
17026TIP3    H272570   5.494   3.229   4.190  0.4210 -0.0416  0.3488
17027TIP3   OH272571   0.755   0.385  12.893 -0.5665  0.0486  0.0705
17027TIP3    H172572   0.670   0.382  12.937  0.6195 -0.8116  2.4584
17027TIP3    H272573   0.780   0.477  12.894 -0.5089  0.0433  1.4151
17028TIP3   OH272574   3.675   0.016   1.268  0.1860 -0.3749  0.0606
17028TIP3    H172575   3.589   0.005   1.228  0.7562 -0.8246 -1.0892
17028TIP3    H272576   3.700  -0.072   1.297  0.9776 -0.5707 -1.1631
17029TIP3   OH272577   1.298   1.208  14.986 -0.5747  0.4354  0.4419
17029TIP3    H172578   1.305   1.176  15.076 -1.4286 -0.4993  0.2012
17029TIP3    H272579   1.363   1.158  14.937 -1.7476 -0.8362  0.1111
17030TIP3   OH272580   0.916   6.682   4.804  0.1230  0.7561 -0.1254
17030TIP3    H172581   0.895   6.767   4.843 -1.0378  0.0424  0.9038
17030TIP3    H272582   1.009   6.670   4.822 -0.0828  1.0563  1.2766
17031TIP3   OH272583   0.069   5.886   1.655  0.3726  0.4452  0.7919
17031TIP3    H172584   0.071   5.838   1.737 -0.5167  1.5405  1.4826
17031TIP3    H272585   0.140   5.949   1.661  0.2893  0.5458  0.7395
17032TIP3   OH272586   5.448   6.395  16.389 -0.3402 -0.5503  0.3304
17032TIP3    H172587   5.380   6.328  16.387 -0.4981 -0.4184  1.0354
17032TIP3    H272588   5.402   6.476  16.412 -0.1963 -0.1308 -0.7636
17033TIP3   OH272589   0.179   3.040   1.778 -0.2771 -0.0287 -0.1290
17033TIP3    H172590   0.248   3.097   1.743 -0.2862 -0.3765 -0.7274
17033TIP3    H272591   0.206   3.021   1.867  0.0959  0.3264 -0.1624
17034TIP3   OH272592   0.206   3.724   6.288  0.0676 -0.1623  0.3847
17034TIP3    H172593   0.232   3.750   6.200  1.0189 -1.2019  0.3376
17034TIP3    H272594   0.270   3.766   6.345 -1.2567  1.5028  0.7109
17035TIP3   OH272595   0.189   3.814  13.387  0.3747  0.1983 -0.1925
17035TIP3    H172596   0.099   3.833  13.359 -0.7152  2.5148  3.9778
17035TIP3    H272597   0.184   3.728  13.428 -0.0288  0.3598  0.1119
17036TIP3   OH272598   5.330   4.794   1.869 -0.3365  0.1675  0.7335
17036TIP3    H172599   5.277   4.860   1.914  0.2901  1.4008 -0.2815
17036TIP3    H272600   5.417   4.802   1.908 -0.3595 -0.3490  0.8919
17037TIP3   OH272601   3.985   1.524  14.755 -0.1105  0.4772 -0.3306
17037TIP3    H172602   4.051   1.591  14.734 -0.4361  0.6705 -0.7548
17037TIP3    H272603   3.947   1.502  14.670  1.7811 -2.1435 -0.6276
17038TIP3   OH272604   4.881   4.778   0.406  0.2086 -0.0376  0.8884
17038TIP3    H172605   4.824   4.705   0.430  0.2951 -0.5252 -0.3290
17038TIP3    H272606   4.842   4.855   0.448 -1.7187 -0.2498 -0.4102
17039TIP3   OH272607   3.925   3.813  16.826 -0.3512 -0.0200  0.4864
17039TIP3    H172608   3.983   3.754  16.874 -0.0472  1.2120  1.6842
17039TIP3    H272609   3.837   3.784  16.850 -0.2309 -0.9165 -0.1182
17040TIP3   OH272610   3.161   3.065   3.101  0.0123 -0.1063  0.5663
17040TIP3    H172611   3.221   3.140   3.101 -1.2432  0.9299 -0.3394
17040TIP3    H272612   3.137   3.053   3.192 -0.1225  0.8890  0.6661
17041TIP3   OH272613   5.724   1.384  11.569  0.1831  0.5241  0.1187
17041TIP3    H172614   5.809   1.425  11.556  0.8929 -1.7269 -3.2791
17041TIP3    H272615   5.701   1.347  11.484 -2.6687 -1.8266  1.7342
17042TIP3   OH272616   3.688   5.934   1.347  0.4157  0.0051  0.1146
17042TIP3    H172617   3.770   5.982   1.359 -0.0407  0.5886  1.0521
17042TIP3    H272618   3.675   5.888   1.430 -0.4954  0.3930  0.2040
17043TIP3   OH272619   2.330   2.725  16.368 -0.8287 -0.2575 -0.2451
17043TIP3    H172620   2.380   2.802  16.341  0.7855 -1.4567 -0.8270
17043TIP3    H272621   2.343   2.720  16.463  0.3145 -0.6045 -0.3957
17044TIP3   OH272622   3.919   0.282  16.248  0.0727 -1.0797 -0.8133
17044TIP3    H172623   3.841   0.281  16.304  2.0127 -1.0400  2.1421
17044TIP3    H272624   3.891   0.328  16.169 -2.1897  1.5215  1.2795
17045TIP3   OH272625   3.181   6.264  10.662  0.2090  0.1583  0.1018
17045TIP3    H172626   3.214   6.301  10.744 -1.4074  1.1718  0.3337
17045TIP3    H272627   3.147   6.338  10.614 -0.1712 -0.6246 -0.8667
17046TIP3   OH272628   2.755   0.824   2.351  0.5049 -0.2480 -0.7049
17046TIP3    H172629   2.688   0.850   2.414 -0.2792 -0.4856 -1.4222
17046TIP3    H272630   2.793   0.744   2.388  1.8853  1.0148  0.7613
17047TIP3   OH272631   2.532   6.601  16.878  0.5566 -0.2402 -0.5357
17047TIP3    H172632   2.605   6.661  16.893  0.5717 -0.0838 -1.2310
17047TIP3    H272633   2.454   6.657  16.881  0.5236 -0.2831 -0.6008
17048TIP3   OH272634   1.594   5.400   3.341  0.0180  0.6144 -0.5878
17048TIP3    H172635   1.564   5.314   3.369  0.2053  0.5088 -0.7117
17048TIP3    H272636   1.677   5.384   3.296 -1.5313  0.4129 -3.6732
17049TIP3   OH272637   1.614   1.991   0.070 -0.4065 -0.7641 -0.1938
17049TIP3    H172638   1.573   2.076   0.057 -1.0150 -0.7544  1.5098
17049TIP3    H272639   1.705   2.003   0.043 -0.8411 -0.0357 -1.4446
17050TIP3   OH272640   2.568   2.133  12.794 -1.1197 -0.0707  0.4686
17050TIP3    H172641   2.609   2.068  12.736 -2.3915  0.2836 -0.9065
17050TIP3    H272642   2.622   2.211  12.785 -2.3142  0.5782 -1.7740
17051TIP3   OH272643   3.875   3.342   1.539  0.2991 -0.4559  0.1980
17051TIP3    H172644   3.927   3.346   1.459  1.3445 -1.2572  0.8078
17051TIP3    H272645   3.923   3.281   1.596 -1.2883 -1.1745  0.8160
17052TIP3   OH272646   3.519   2.711  16.582  0.3238  0.0790  0.3959
17052TIP3    H172647   3.474   2.760  16.650  0.4434  2.0796 -0.9031
17052TIP3    H272648   3.461   2.715  16.506  0.9044 -0.7640 -0.1151
17053TIP3   OH272649   0.021   0.602   1.851 -0.2259  0.3358  0.9165
17053TIP3    H172650   0.107   0.564   1.871 -1.1401 -0.9995  2.4681
17053TIP3    H272651  -0.035   0.527   1.834 -1.0838  1.2014 -0.2968
17054TIP3   OH272652   5.902   3.250   5.066  0.5802 -0.2665  0.0221
17054TIP3    H172653   5.851   3.331   5.056 -0.1111 -0.6976 -0.0083
17054TIP3    H272654   5.839   3.180   5.051  0.9398 -0.8316  1.0463
17055TIP3   OH272655   1.107   2.156   3.085  0.8168 -0.5449  0.1320
17055TIP3    H172656   1.111   2.251   3.078 -0.5017 -0.3843  1.1406
17055TIP3    H272657   1.136   2.137   3.174 -1.2293 -0.8515  0.7772
17056TIP3   OH272658   1.826   1.510   5.347  0.4109  0.3354  0.1057
17056TIP3    H172659   1.893   1.574   5.323  0.0895  0.8599  0.5698
17056TIP3    H272660   1.775   1.554   5.415  1.1410 -0.9937  1.5656
17057TIP3   OH272661   1.249   0.360  16.018 -0.2519  0.6263 -0.5412
17057TIP3    H172662   1.247   0.434  15.957 -2.0513  1.2707  0.2037
17057TIP3    H272663   1.169   0.371  16.071  0.0642 -1.1835  0.3964
17058TIP3   OH272664   0.436   0.763  11.043 -0.4103 -0.3375  0.8743
17058TIP3    H172665   0.377   0.821  11.091 -2.5081 -0.6529 -1.1512
17058TIP3    H272666   0.500   0.822  11.004 -0.7770  0.2898  1.1905
17059TIP3   OH272667   6.681   2.587   0.397  0.4519 -0.7685  0.2079
17059TIP3    H172668   6.638   2.532   0.332  0.9168  1.0369 -1.7467
17059TIP3    H272669   6.767   2.546   0.410  0.2872 -1.2390 -0.1848
17060TIP3   OH272670   2.184   0.039   0.286 -0.1739  0.0732  0.3309
17060TIP3    H172671   2.193  -0.052   0.258 -0.8261  0.5902 -1.6984
17060TIP3    H272672   2.234   0.044   0.367  0.1427 -2.0089  0.3169
17061TIP3   OH272673   0.262   4.436   2.045 -0.1388  0.2409 -0.4856
17061TIP3    H172674   0.293   4.495   2.114  0.4027  2.2425 -2.3253
17061TIP3    H272675   0.190   4.483   2.003  0.9725  0.1136 -2.6706
17062TIP3   OH272676   5.505   1.323   5.295 -0.3703 -0.2013  0.4218
17062TIP3    H172677   5.441   1.308   5.364 -1.5872  3.4955  0.3502
17062TIP3    H272678   5.568   1.385   5.334 -0.4917  1.1406 -1.3787
17063TIP3   OH272679   4.981   5.535   0.456 -0.4183  0.2802 -0.6642
17063TIP3    H172680   4.964   5.598   0.526  0.3248 -0.1852 -0.0433
17063TIP3    H272681   5.076   5.541   0.441 -0.2556 -1.0264 -0.2613
17064TIP3   OH272682   5.914   0.529  17.125 -1.0474  0.0239 -0.2404
17064TIP3    H172683   6.004   0.499  17.138 -1.2664 -0.1063  1.0974
17064TIP3    H272684   5.891   0.497  17.037  0.5957  1.1059 -1.1154
17065TIP3   OH272685   6.776   5.018  12.908  0.0292 -0.0565 -0.0442
17065TIP3    H172686   6.723   4.939  12.915  0.2505 -0.1859  0.1742
17065TIP3    H272687   6.739   5.064  12.832 -0.7491  0.1239  0.4345
17066TIP3   OH272688   0.502   4.857  15.510 -0.1606 -0.5309  0.5205
17066TIP3    H172689   0.443   4.857  15.434  1.3243 -2.2089 -0.7188
17066TIP3    H272690   0.451   4.815  15.579 -0.6919 -1.3054 -0.3151
17067TIP3   OH272691   3.836   5.745  12.118  0.1162  0.4629 -0.5223
17067TIP3    H172692   3.839   5.661  12.071  0.7967 -0.5094  1.1890
17067TIP3    H272693   3.761   5.737  12.177  0.4815  0.8781  0.0021
17068TIP3   OH272694   3.064   1.820   2.696 -0.0380  0.1982  0.0723
17068TIP3    H172695   3.065   1.915   2.706 -0.0594  0.3073 -0.9084
17068TIP3    H272696   3.148   1.791   2.730 -0.5893  0.4079  1.7268
17069TIP3   OH272697   0.587   5.030   1.555 -0.3892 -0.8573  0.1278
17069TIP3    H172698   0.659   4.971   1.529 -2.0871 -1.9201 -2.5700
17069TIP3    H272699   0.510   4.974   1.555 -1.7668  0.9664 -0.5250
17070TIP3   OH272700   0.706   0.637  16.383 -0.0692  0.5975 -0.0327
17070TIP3    H172701   0.793   0.603  16.406 -0.2738 -1.0835 -1.5148
17070TIP3    H272702   0.720   0.687  16.303 -0.6792 -1.1182 -1.2632
17071TIP3   OH272703   3.102   5.176  10.292  0.0575 -0.3319  0.3670
17071TIP3    H172704   3.177   5.197  10.236 -1.7691  2.9347 -1.1210
17071TIP3    H272705   3.036   5.142  10.231 -1.2628  1.3708  0.7731
17072TIP3   OH272706   6.028   4.267  10.921 -0.8457  0.1491 -0.0122
17072TIP3    H172707   5.973   4.342  10.941 -2.0356 -0.5451 -0.5765
17072TIP3    H272708   5.973   4.209  10.868  0.4548 -0.5376 -0.6814
17073TIP3   OH272709   1.773   5.264   3.711  0.1091 -0.3425  0.0346
17073TIP3    H172710   1.792   5.213   3.790 -0.9337  0.3933  0.7814
17073TIP3    H272711   1.682   5.292   3.721  0.8433  2.3207  0.0625
17074TIP3   OH272712   1.771   2.877  16.875  0.6250  0.5154 -0.1619
17074TIP3    H172713   1.678   2.882  16.850  0.4097 -1.4230  0.0930
17074TIP3    H272714   1.816   2.929  16.808 -0.4157 -0.5299 -1.7653
17075TIP3   OH272715   1.006   3.976  11.352  0.3974  0.1079  0.1337
17075TIP3    H172716   1.056   3.983  11.434  2.4365  1.4397 -1.1427
17075TIP3    H272717   0.925   4.023  11.370  1.2994  1.3894  1.0885
17076TIP3   OH272718   4.261   3.229  13.193 -0.2516  0.1938  0.1474
17076TIP3    H172719   4.225   3.214  13.106 -0.8916  0.1830  0.4078
17076TIP3    H272720   4.252   3.323  13.207  2.4456  0.7071 -0.9076
17077TIP3   OH272721   6.266   2.348  12.230  0.1909 -0.0384  0.4898
17077TIP3    H172722   6.265   2.257  12.258  0.4153  0.2704  1.5413
17077TIP3    H272723   6.244   2.345  12.137 -1.4251 -1.0393  0.8539
17078TIP3   OH272724   0.256   5.167  15.816 -0.5714  0.0383 -0.2489
17078TIP3    H172725   0.334   5.137  15.864 -1.7239 -1.9288  0.5496
17078TIP3    H272726   0.290   5.208  15.737  1.2941 -0.5676  0.1935
17079TIP3   OH272727   2.399   1.284  13.136  0.2329 -0.4435 -0.9855
17079TIP3    H172728   2.341   1.259  13.208 -1.5976 -1.0125 -2.5521
17079TIP3    H272729   2.339   1.306  13.064  1.9746 -1.6186 -2.8919
17080TIP3   OH272730   2.456   3.867  17.007 -0.0686 -0.0515  0.6102
17080TIP3    H172731   2.477   3.778  16.978  0.9401  0.5601 -0.6551
17080TIP3    H272732   2.414   3.907  16.930 -1.5821  0.2357  1.5417
17081TIP3   OH272733   4.499   4.185  11.279 -0.1082  0.3639 -0.2181
17081TIP3    H172734   4.592   4.177  11.259 -0.2803 -0.5546 -0.7120
17081TIP3    H272735   4.486   4.279  11.296  0.7701  0.6016 -0.7939
17082TIP3   OH272736   5.490   1.156   2.230 -0.0676  0.0277  0.8168
17082TIP3    H172737   5.509   1.086   2.292  1.1732  0.4909  0.9953
17082TIP3    H272738   5.551   1.226   2.253  0.3966  0.2340 -0.8952
17083TIP3   OH272739   2.605   1.099  11.433  0.2669 -0.2934  0.0597
17083TIP3    H172740   2.606   1.162  11.361  1.3403 -0.4320 -0.0607
17083TIP3    H272741   2.520   1.055  11.426  1.0125 -1.4924 -2.1497
17084TIP3   OH272742   4.389   5.385   2.200  0.5766  0.3572  0.7698
17084TIP3    H172743   4.324   5.345   2.258 -2.0577  1.9360 -0.8824
17084TIP3    H272744   4.341   5.402   2.119  3.8235 -0.8912 -1.6347
17085TIP3   OH272745   4.315   4.384   5.677 -0.6233  0.2726  0.5272
17085TIP3    H172746   4.330   4.478   5.682  0.2527  0.1439  0.5363
17085TIP3    H272747   4.339   4.361   5.587 -1.4699  0.1597  0.3240
17086TIP3   OH272748   2.588   5.765  11.680  0.6139 -0.2864  0.0227
17086TIP3    H172749   2.594   5.821  11.757  2.4028 -0.3062 -0.0429
17086TIP3    H272750   2.586   5.676  11.715 -3.4503 -0.3042  0.1821
17087TIP3   OH272751   0.969   3.203  16.924 -0.6749 -0.1501  0.5184
17087TIP3    H172752   0.911   3.276  16.944  0.3427  0.7402  0.2902
17087TIP3    H272753   0.962   3.146  17.002 -0.7750  0.6404  1.0986
17088TIP3   OH272754   0.162   0.959  14.520  0.2010  0.0220  0.0227
17088TIP3    H172755   0.159   0.882  14.576  2.5133  0.1349  0.4193
17088TIP3    H272756   0.103   0.939  14.448 -1.4509 -0.8881  1.5349
17089TIP3   OH272757   1.407   5.813   0.754  0.1511  0.3169  0.4761
17089TIP3    H172758   1.442   5.744   0.811 -1.7033 -0.4314  0.7545
17089TIP3    H272759   1.441   5.894   0.792  0.9572 -0.3179  1.1661
17090TIP3   OH272760   5.127   2.948  13.529 -0.6673  0.1781 -0.0480
17090TIP3    H172761   5.157   2.971  13.617 -0.6419  1.5631 -0.3957
17090TIP3    H272762   5.036   2.977  13.525 -1.0356 -0.9426 -0.1075
17091TIP3   OH272763   5.222   2.214  11.565 -0.1573 -1.1287 -0.5642
17091TIP3    H172764   5.147   2.183  11.514 -1.0430 -0.2957  0.1863
17091TIP3    H272765   5.279   2.138  11.574 -0.9585 -1.7982 -1.0763
17092TIP3   OH272766   3.354   6.572   5.027  0.3822  0.3182  0.1070
17092TIP3    H172767   3.274   6.573   4.974 -0.3077  0.0156  1.1307
17092TIP3    H272768   3.394   6.487   5.008  1.6480  1.3140 -2.0927
17093TIP3   OH272769   0.278   2.224  12.484  0.0787  0.8134 -0.7474
17093TIP3    H172770   0.314   2.158  12.424 -0.8180  0.7337 -1.2027
17093TIP3    H272771   0.255   2.298  12.428 -0.7164  0.7596 -0.5031
17094TIP3   OH272772   6.016   2.549   2.567  0.0730 -0.0306  0.3918
17094TIP3    H172773   6.019   2.537   2.472 -0.4382  1.1934  0.1923
17094TIP3    H272774   6.100   2.589   2.589 -0.0552  0.2670  0.3509
17095TIP3   OH272775   3.995   2.088  13.369  0.1161  0.1655 -0.1918
17095TIP3    H172776   3.937   2.014  13.385  1.4730 -1.3283 -1.7097
17095TIP3    H272777   3.995   2.099  13.274  0.1914  1.9354 -0.0188
17096TIP3   OH272778   3.333   2.305   6.415  0.7209 -0.4800 -0.0427
17096TIP3    H172779   3.359   2.363   6.486 -2.0080 -0.2341  0.8774
17096TIP3    H272780   3.267   2.248   6.454 -1.6045  0.2912 -2.5409
17097TIP3   OH272781   3.108   4.153  13.029 -0.2445  0.2713  0.2720
17097TIP3    H172782   3.042   4.132  13.095 -0.1475  1.8185  0.9099
17097TIP3    H272783   3.061   4.202  12.962  0.1701  1.1235  0.5816
17098TIP3   OH272784   1.346   2.668  16.499 -0.3783 -0.7033 -0.0165
17098TIP3    H172785   1.412   2.709  16.443 -0.6224  0.4386  0.4962
17098TIP3    H272786   1.360   2.574  16.488  1.4368 -0.5052  0.1946
17099TIP3   OH272787   1.973   6.597  14.939  0.2214 -0.9136  0.3133
17099TIP3    H172788   2.044   6.661  14.930  0.5860 -1.3633 -0.0158
17099TIP3    H272789   1.904   6.645  14.985 -0.2843  0.3604 -1.6402
17100TIP3   OH272790   6.387   4.038  17.096 -0.0659  0.4960  0.2414
17100TIP3    H172791   6.402   4.133  17.091 -0.0115  0.5132  0.7052
17100TIP3    H272792   6.472   3.999  17.076 -0.3191  0.5198 -0.9575
17101TIP3   OH272793   2.032   2.069  12.892 -0.3803  0.2691  0.7204
17101TIP3    H172794   2.000   2.146  12.938  0.5286  0.3310  1.2795
17101TIP3    H272795   2.041   2.003  12.961  0.1864  0.1012  0.4882
17102TIP3   OH272796   0.080   2.740   5.002  0.9128 -0.0353  0.3618
17102TIP3    H172797   0.089   2.749   5.097  2.6843 -0.8280  0.3068
17102TIP3    H272798   0.105   2.826   4.968 -0.2107  0.4075  0.6115
17103TIP3   OH272799   6.035   0.773  14.906  0.2777 -0.2849 -0.5810
17103TIP3    H172800   6.089   0.842  14.868  1.7684 -1.8160 -1.3596
17103TIP3    H272801   6.094   0.728  14.967 -1.0202 -0.1487  0.8315
17104TIP3   OH272802   0.391   3.898   2.072 -0.0332  0.1843 -0.0810
17104TIP3    H172803   0.472   3.931   2.112 -0.5315  0.4381  0.7329
17104TIP3    H272804   0.354   3.839   2.137 -1.6622  1.8079  0.5368
17105TIP3   OH272805   5.350   2.630  11.906  0.2188  0.1944  0.5128
17105TIP3    H172806   5.405   2.693  11.952 -0.3988  1.3403 -0.2553
17105TIP3    H272807   5.405   2.598  11.834 -0.0573  1.2548 -0.1903
17106TIP3   OH272808   5.333   1.976  12.048  0.8197  0.1490 -0.0015
17106TIP3    H172809   5.382   1.898  12.074 -0.0513 -0.1708  0.7497
17106TIP3    H272810   5.391   2.023  11.988  0.6596 -1.9684 -1.9056
17107TIP3   OH272811   3.745   5.503  11.979 -0.2985  0.1541 -0.0048
17107TIP3    H172812   3.667   5.453  12.003  0.5773 -1.4604 -0.3503
17107TIP3    H272813   3.743   5.507  11.883 -0.6499  1.2928  0.0419
17108TIP3   OH272814   3.867   0.032   0.887 -0.8772 -0.3734 -0.0011
17108TIP3    H172815   3.896   0.068   0.971 -1.7046 -0.5467  0.3715
17108TIP3    H272816   3.791   0.086   0.864 -1.6694 -1.3843  0.1927
17109TIP3   OH272817   0.934   0.840   3.810 -0.2204  0.3526 -0.0528
17109TIP3    H172818   0.911   0.835   3.903 -0.2487 -2.8050 -0.1450
17109TIP3    H272819   1.001   0.908   3.806 -1.7697  2.1242  1.8782
17110TIP3   OH272820   0.507   4.613  12.972 -0.6862  0.1990  0.8536
17110TIP3    H172821   0.443   4.542  12.959 -0.3317  0.3783 -3.0852
17110TIP3    H272822   0.494   4.640  13.062 -4.4409 -1.4472  1.0123
17111TIP3   OH272823   3.753   5.463   0.280 -0.6008  0.5319  0.5944
17111TIP3    H172824   3.731   5.457   0.187  0.1733 -1.9465  0.4945
17111TIP3    H272825   3.681   5.512   0.319 -0.8151  1.8652 -1.3088
17112TIP3   OH272826   3.275   3.293   3.090  0.3629 -0.2999  0.0318
17112TIP3    H172827   3.217   3.366   3.069 -1.4534 -1.5848  0.2879
17112TIP3    H272828   3.319   3.272   3.008 -0.9221 -0.4497 -0.6345
17113TIP3   OH272829   4.611   3.056  16.398  0.3300  0.4013 -0.1797
17113TIP3    H172830   4.591   3.037  16.307 -0.3018  0.1478  0.0093
17113TIP3    H272831   4.673   3.129  16.395 -2.2223  2.6979 -0.7251
17114TIP3   OH272832   1.710   3.496  16.972  0.2686  0.3701 -0.3609
17114TIP3    H172833   1.618   3.476  16.988  0.1537 -0.4457 -1.7795
17114TIP3    H272834   1.708   3.563  16.903  0.7078 -0.3249 -1.0776
17115TIP3   OH272835   5.018   0.490  15.429  0.2670  0.0689 -0.3607
17115TIP3    H172836   5.005   0.573  15.475 -0.9057 -0.0152 -0.5034
17115TIP3    H272837   5.008   0.423  15.496  2.9181  0.0525  0.1062
17116TIP3   OH272838   1.706   2.377   3.584  0.0726 -0.1892 -0.2557
17116TIP3    H172839   1.694   2.437   3.657  1.4021 -0.7143  0.4376
17116TIP3    H272840   1.785   2.328   3.607 -0.0428 -1.0384 -1.5917
17117TIP3   OH272841   0.987   0.515   1.956  0.0494  0.2615 -0.2966
17117TIP3    H172842   0.912   0.562   1.994  1.5265  0.1532  3.0285
17117TIP3    H272843   0.972   0.423   1.978  0.8894  0.1646 -0.1012
17118TIP3   OH272844   0.662   0.445   0.743 -0.5658 -0.2639 -0.3461
17118TIP3    H172845   0.752   0.428   0.715 -0.3176 -1.3151  1.0030
17118TIP3    H272846   0.670   0.512   0.810 -0.8120 -0.2178 -0.3618
17119TIP3   OH272847   0.149   0.084   3.131  0.1898 -0.4060  0.0153
17119TIP3    H172848   0.214   0.016   3.113 -0.1988 -0.3224 -1.9679
17119TIP3    H272849   0.135   0.080   3.226  0.8868 -2.4285  0.0773
17120TIP3   OH272850   2.279   3.410   4.487  0.1096 -0.9369  0.5897
17120TIP3    H172851   2.256   3.320   4.508 -1.3623 -0.4326  1.3646
17120TIP3    H272852   2.351   3.404   4.425 -0.2691 -2.6484  0.2737
17121TIP3   OH272853   4.606   3.307  16.715  0.3531 -0.4065 -0.7026
17121TIP3    H172854   4.687   3.317  16.664  0.3309  0.6401 -0.5596
17121TIP3    H272855   4.590   3.213  16.717  0.7722 -0.5218 -1.9765
17122TIP3   OH272856   0.931   6.216   5.475  0.0381  0.5420  0.1456
17122TIP3    H172857   0.908   6.179   5.560  2.6210 -3.0387 -0.4700
17122TIP3    H272858   1.024   6.236   5.482  0.2128  0.5329 -1.7089
17123TIP3   OH272859   4.624   5.129  14.599  0.2734  0.1791  0.5308
17123TIP3    H172860   4.549   5.072  14.617  0.3384 -0.6805 -1.6256
17123TIP3    H272861   4.700   5.071  14.605  0.2751 -0.2901 -2.5023
17124TIP3   OH272862   4.419   3.927   2.366 -0.0216  0.6510  0.0911
17124TIP3    H172863   4.444   3.948   2.456 -1.1035 -0.4013  0.6664
17124TIP3    H272864   4.499   3.937   2.316  0.6171  1.1860  1.1892
17125TIP3   OH272865   2.492   5.447   3.575 -0.0635  0.4334  0.4093
17125TIP3    H172866   2.451   5.416   3.494  1.4522 -0.0955 -0.1821
17125TIP3    H272867   2.518   5.367   3.621  0.2976  0.7629  0.7856
17126TIP3   OH272868   3.888   4.806  12.460  0.3626 -0.4159 -0.1104
17126TIP3    H172869   3.978   4.838  12.466  0.3673 -0.5261  0.4423
17126TIP3    H272870   3.858   4.837  12.375  0.5640  0.5579  0.1572
17127TIP3   OH272871   0.103   0.482  12.108  0.1111  0.5066 -0.5824
17127TIP3    H172872   0.180   0.520  12.067  0.2385  2.0280  0.9479
17127TIP3    H272873   0.049   0.557  12.134 -0.1534 -0.3290  1.5668
17128TIP3   OH272874   3.203   5.399   4.758  0.6099 -0.1451 -0.1961
17128TIP3    H172875   3.142   5.340   4.803 -0.4578 -0.5957 -2.1189
17128TIP3    H272876   3.289   5.376   4.793 -0.0948 -0.8284  1.1819
17129TIP3   OH272877   2.205   0.735  16.145 -0.7283 -0.1403 -1.6060
17129TIP3    H172878   2.275   0.670  16.136 -0.8855 -0.6172  0.1938
17129TIP3    H272879   2.125   0.683  16.148 -0.8527  0.1049 -0.1111
17130TIP3   OH272880   1.415   1.233   3.661  0.6259  0.5516 -0.2801
17130TIP3    H172881   1.369   1.264   3.583 -1.5350 -0.5716  0.4691
17130TIP3    H272882   1.400   1.302   3.726  1.2673  0.8471 -0.4322
17131TIP3   OH272883   2.509   6.269  14.413 -0.0995 -0.2761 -0.1896
17131TIP3    H172884   2.542   6.356  14.394  1.1499 -0.8194 -0.5976
17131TIP3    H272885   2.427   6.284  14.461 -0.7138  1.1101 -1.6075
17132TIP3   OH272886   2.461   1.282  13.454 -0.5207  0.3155 -0.1450
17132TIP3    H172887   2.511   1.230  13.518  0.2398  0.2326 -0.7917
17132TIP3    H272888   2.428   1.356  13.504 -0.4277 -0.0526  0.4744
17133TIP3   OH272889   5.220   0.599   4.857  0.1882  0.4386  0.8634
17133TIP3    H172890   5.278   0.631   4.787 -0.2190 -2.1550 -0.7701
17133TIP3    H272891   5.132   0.614   4.823 -0.0133 -0.4487  0.9742
17134TIP3   OH272892   4.719   0.477  13.171  0.0521  0.1244  0.1606
17134TIP3    H172893   4.656   0.542  13.140 -0.0006 -0.9412 -2.1605
17134TIP3    H272894   4.773   0.457  13.095  1.2680 -1.2028  1.3055
17135TIP3   OH272895   2.222   5.063   3.368 -0.8163  0.0487 -0.1017
17135TIP3    H172896   2.223   5.058   3.273 -1.8547  1.2210 -0.1958
17135TIP3    H272897   2.217   5.156   3.387  0.1140 -0.1284  1.1237
17136TIP3   OH272898   4.676   0.628  12.831  0.1474 -0.8962  0.6358
17136TIP3    H172899   4.643   0.541  12.807 -0.2549  0.0197 -2.6930
17136TIP3    H272900   4.626   0.689  12.776  1.4471  1.3196  1.7421
17137TIP3   OH272901   1.092   2.409  11.648  0.0242 -0.3954  0.8044
17137TIP3    H172902   1.067   2.498  11.673 -1.3077 -0.4162 -0.3146
17137TIP3    H272903   1.133   2.419  11.562 -0.4736 -0.8809  0.5027
17138TIP3   OH272904   0.020   1.341  15.891 -0.5365 -0.5191  0.4248
17138TIP3    H172905   0.109   1.338  15.855 -0.9943  0.6154 -0.9214
17138TIP3    H272906   0.013   1.429  15.927 -1.3366 -0.3340 -0.1550
17139TIP3   OH272907   6.422   3.675  15.328 -0.3212 -0.2292 -0.4064
17139TIP3    H172908   6.397   3.671  15.421  1.2528 -1.4267  0.0207
17139TIP3    H272909   6.339   3.672  15.281 -1.2103  1.2991  0.9501
17140TIP3   OH272910   5.056   5.540   1.339 -0.3287 -0.1326 -0.0770
17140TIP3    H172911   5.071   5.483   1.414 -2.4869  0.9411  1.2836
17140TIP3    H272912   5.128   5.522   1.280  1.1284 -1.4806  1.9857
17141TIP3   OH272913   3.955   4.811  12.073 -0.1942  0.5170 -0.0696
17141TIP3    H172914   3.970   4.834  11.982 -2.0822  1.6508 -0.1456
17141TIP3    H272915   3.883   4.868  12.101 -1.4830 -1.6488  1.3335
17142TIP3   OH272916   0.669   2.826  11.185  0.4282 -0.4579  0.4360
17142TIP3    H172917   0.729   2.830  11.110  0.5911  0.4973  0.6031
17142TIP3    H272918   0.612   2.902  11.174  1.0863  0.2678  1.7988
17143TIP3   OH272919   2.913   1.995  11.922 -0.4624 -0.4394  0.3158
17143TIP3    H172920   2.826   1.960  11.904 -1.0495 -0.0887  2.2416
17143TIP3    H272921   2.915   2.007  12.017  2.4410 -2.4258  0.6467
17144TIP3   OH272922   3.737   0.485  12.766 -0.1868  0.0291  0.3853
17144TIP3    H172923   3.826   0.450  12.767 -0.6085 -1.2109 -0.8050
17144TIP3    H272924   3.685   0.419  12.812 -0.5249  0.6686  0.9331
17145TIP3   OH272925   5.835   2.307  16.439  0.6582  0.5622  0.5339
17145TIP3    H172926   5.758   2.288  16.384  1.4700 -0.5819 -0.2584
17145TIP3    H272927   5.798   2.326  16.525 -0.5506  0.6625  0.0265
17146TIP3   OH272928   1.567   1.062   1.317  0.1147  0.2035 -0.2626
17146TIP3    H172929   1.617   0.986   1.345 -1.1995 -0.7165 -0.3426
17146TIP3    H272930   1.633   1.123   1.284  1.1966 -0.8709 -0.1474
17147TIP3   OH272931   0.158   4.544  12.291  0.0726 -0.4130 -0.2037
17147TIP3    H172932   0.112   4.484  12.233 -0.6582 -0.8414  0.7855
17147TIP3    H272933   0.250   4.519  12.285  0.0662 -0.2019 -1.4408
17148TIP3   OH272934   5.134   1.576  14.335  0.5433  0.1854  0.3387
17148TIP3    H172935   5.041   1.554  14.341  0.6127 -0.5769 -1.1049
17148TIP3    H272936   5.165   1.574  14.426 -0.7729  0.1570  0.8042
17149TIP3   OH272937   5.637   1.661  11.020  0.5378  0.9344  0.3817
17149TIP3    H172938   5.686   1.667  10.938  0.7870 -2.9162  0.0399
17149TIP3    H272939   5.703   1.641  11.086 -0.0367  0.0727  0.7266
17150TIP3   OH272940   1.322   5.606   5.799  0.1546 -0.1622  0.6029
17150TIP3    H172941   1.360   5.570   5.879  1.4932  0.2397  0.1619
17150TIP3    H272942   1.379   5.575   5.729  1.2264  2.5662  0.1656
17151TIP3   OH272943   5.181   4.896  13.479 -0.4451  0.0312 -0.2370
17151TIP3    H172944   5.231   4.973  13.453  1.9626 -0.6040  2.0251
17151TIP3    H272945   5.113   4.929  13.537 -0.3687  0.5767 -0.4584
17152TIP3   OH272946   0.976   0.634  10.635  0.3536 -0.2813  0.0322
17152TIP3    H172947   1.033   0.560  10.614 -0.8112 -1.1592 -0.1452
17152TIP3    H272948   1.028   0.689  10.694  1.9018 -0.2819 -1.2691
17153TIP3   OH272949   0.782   0.826   5.324  0.4478  0.1141 -0.5470
17153TIP3    H172950   0.804   0.908   5.368  0.9937 -0.0937 -0.4241
17153TIP3    H272951   0.841   0.761   5.362  1.5645  0.0939 -2.1781
17154TIP3   OH272952   6.356   5.220  13.079  0.1729  0.0740  0.3111
17154TIP3    H172953   6.411   5.143  13.094  0.2245  0.3797  1.7851
17154TIP3    H272954   6.400   5.291  13.126 -0.1131  0.9260 -0.6576
17155TIP3   OH272955   1.407   5.992   1.697 -0.0101  0.0524 -0.4428
17155TIP3    H172956   1.414   6.083   1.669  0.4547 -0.0550 -0.6924
17155TIP3    H272957   1.373   5.945   1.620  0.3240 -0.0778 -0.5168
17156TIP3   OH272958   4.498   1.287  14.828  0.3099 -0.1100  0.2753
17156TIP3    H172959   4.422   1.336  14.858 -0.7292 -0.9210 -0.9484
17156TIP3    H272960   4.530   1.335  14.752  0.4870 -0.2592  0.2523
17157TIP3   OH272961   5.926   2.733   3.225 -0.6181 -0.4424  0.7150
17157TIP3    H172962   5.961   2.803   3.280  0.8610 -1.3769  1.0056
17157TIP3    H272963   5.850   2.700   3.273 -1.4075  1.0117  0.5151
17158TIP3   OH272964   4.892   4.594   2.904  0.2588 -0.8432 -0.3762
17158TIP3    H172965   4.838   4.520   2.877 -2.3828 -0.0071  2.0486
17158TIP3    H272966   4.979   4.575   2.870 -0.7796 -3.9889 -1.6004
17159TIP3   OH272967   6.008   4.597   4.184 -0.0810 -0.4788  0.3751
17159TIP3    H172968   6.020   4.570   4.093  0.5504  1.8626 -0.3025
17159TIP3    H272969   5.913   4.590   4.199 -0.2389 -0.5263 -0.5917
17160TIP3   OH272970   0.266   3.349  13.924 -0.2491 -0.1960  0.0426
17160TIP3    H172971   0.327   3.341  13.997 -0.3584  1.3533  0.3244
17160TIP3    H272972   0.179   3.335  13.962 -0.4031  1.6445  0.4559
17161TIP3   OH272973   0.757   5.676   3.915 -0.1271 -0.0407  0.2197
17161TIP3    H172974   0.673   5.721   3.924 -0.1088  0.2096 -0.7759
17161TIP3    H272975   0.734   5.584   3.901 -0.2730  0.1268 -0.7215
17162TIP3   OH272976   5.723   3.437  12.925 -0.0227  0.1903  0.3886
17162TIP3    H172977   5.654   3.392  12.875 -0.5477 -1.7473  2.6639
17162TIP3    H272978   5.683   3.521  12.949 -1.2094 -0.4422  0.7318
17163TIP3   OH272979   3.585   6.815   0.633  0.5675 -0.1993  0.4693
17163TIP3    H172980   3.679   6.795   0.636  0.5549 -0.1093  2.4075
17163TIP3    H272981   3.581   6.911   0.633  0.4754 -0.1696 -1.3777
17164TIP3   OH272982   1.528   5.065   4.567  0.0399 -0.1633 -0.2238
17164TIP3    H172983   1.462   5.119   4.524 -0.8618 -0.5892  0.5798
17164TIP3    H272984   1.609   5.115   4.561 -0.4990  0.6546 -0.6828
17165TIP3   OH272985   4.159   4.561   5.822 -0.2529  0.1126  0.3678
17165TIP3    H172986   4.230   4.619   5.791 -0.4155  0.5159  0.7391
17165TIP3    H272987   4.178   4.476   5.782 -1.0101  0.8501 -1.6656
17166TIP3   OH272988   2.493   6.551  13.302  0.0874 -0.1032  0.4086
17166TIP3    H172989   2.489   6.459  13.279 -1.7047 -0.0779  0.4364
17166TIP3    H272990   2.488   6.552  13.398  0.3922  0.0068  0.4221
17167TIP3   OH272991   2.509   3.767  14.109 -0.0362  0.1515 -0.0663
17167TIP3    H172992   2.500   3.847  14.160  0.1625  1.2113 -1.6264
17167TIP3    H272993   2.524   3.797  14.019  1.4232 -1.6123 -0.4861
17168TIP3   OH272994   5.389   1.299   1.341 -0.6584  0.2255 -0.1967
17168TIP3    H172995   5.441   1.358   1.287 -0.0565 -0.3829 -0.2882
17168TIP3    H272996   5.398   1.213   1.299 -0.7284 -0.1220  0.4854
17169TIP3   OH272997   4.102   3.025   0.003 -0.1331  0.3781 -0.1949
17169TIP3    H172998   4.092   3.057   0.093  2.9290 -1.1505  0.8173
17169TIP3    H272999   4.070   2.934   0.007 -0.0427  0.3254 -0.6802
17170TIP3   OH273000   6.224   4.838  15.056  0.4020 -0.2786  0.2801
17170TIP3    H173001   6.142   4.789  15.054  1.5886 -2.3813  0.2716
17170TIP3    H273002   6.207   4.911  15.115 -0.3035 -2.9791  3.7012
17171TIP3   OH273003   0.634   5.051   0.064 -0.5303  0.3416  0.4429
17171TIP3    H173004   0.636   5.017   0.153 -0.0632  0.2541  0.4046
17171TIP3    H273005   0.605   4.977   0.010  0.0489  0.1209  0.4168
17172TIP3   OH273006   5.876   4.373   1.703  1.0321 -0.1589 -0.0385
17172TIP3    H173007   5.809   4.405   1.763  1.5041 -1.7729  1.3962
17172TIP3    H273008   5.958   4.381   1.752  1.3209 -2.3337 -0.0790
17173TIP3   OH273009   4.263   6.594   3.127 -0.0081  0.4188 -0.2379
17173TIP3    H173010   4.255   6.579   3.033  0.3087  2.7876 -0.6997
17173TIP3    H273011   4.178   6.569   3.162  0.2082 -1.5317 -0.9341
17174TIP3   OH273012   6.059   1.619  11.391 -0.4293 -0.5352  0.2298
17174TIP3    H173013   6.037   1.549  11.330  1.4047 -2.0053  1.1411
17174TIP3    H273014   6.079   1.695  11.336 -1.2195 -1.0780 -0.8350
17175TIP3   OH273015   4.771   3.703  10.376  0.0683 -0.5252 -0.5951
17175TIP3    H173016   4.713   3.628  10.390  0.6029 -1.3823 -2.5308
17175TIP3    H273017   4.850   3.665  10.338  1.2485  0.8095  0.3922
17176TIP3   OH273018   5.143   2.104  13.715 -0.4541 -0.2739 -0.1970
17176TIP3    H173019   5.066   2.149  13.748 -0.8531 -1.2839  0.2997
17176TIP3    H273020   5.140   2.017  13.757  0.1774 -0.8386 -1.2671
17177TIP3   OH273021   5.036   3.873   2.612  0.3810 -0.0921  0.4583
17177TIP3    H173022   5.016   3.796   2.664 -2.7612 -1.3509 -2.2377
17177TIP3    H273023   4.969   3.937   2.637 -0.2639 -0.1899 -0.9338
17178TIP3   OH273024   1.532   6.217  10.826  0.1842  0.0367  0.1367
17178TIP3    H173025   1.568   6.137  10.787 -0.5232 -0.3631  0.2990
17178TIP3    H273026   1.595   6.285  10.802  1.1805 -0.6898  0.6199
17179TIP3   OH273027   4.956   2.842  14.786 -0.8590  0.8611 -0.2474
17179TIP3    H173028   4.941   2.833  14.880 -0.7259 -0.2891 -0.3310
17179TIP3    H273029   4.903   2.918  14.761 -0.6948  1.3446  0.7919
17180TIP3   OH273030   1.458   3.390   3.942 -0.0180 -0.2971  0.0771
17180TIP3    H173031   1.416   3.313   3.903  2.3301 -1.5920 -0.0458
17180TIP3    H273032   1.454   3.456   3.873  0.4976 -1.2546 -0.8952
17181TIP3   OH273033   2.165   4.404   0.408 -0.1473 -0.5890 -0.1434
17181TIP3    H173034   2.216   4.396   0.328 -1.7456 -0.2031 -1.2572
17181TIP3    H273035   2.143   4.497   0.414 -1.4228 -0.8681 -0.1772
17182TIP3   OH273036   3.650   1.923   1.461  0.3758 -0.1098  0.6997
17182TIP3    H173037   3.734   1.889   1.430  0.0060 -0.0190 -0.4447
17182TIP3    H273038   3.585   1.881   1.405 -0.1776  1.6212 -0.0385
17183TIP3   OH273039   5.435   5.869  14.253 -0.4928 -0.1731 -0.1834
17183TIP3    H173040   5.415   5.857  14.160 -1.0369  0.6368 -0.1798
17183TIP3    H273041   5.473   5.957  14.258 -3.1996  1.0302  0.7443
17184TIP3   OH273042   2.922   1.327  14.303 -0.0327 -0.5933  0.2763
17184TIP3    H173043   2.892   1.362  14.387  0.4399 -2.4518  1.2845
17184TIP3    H273044   2.847   1.277  14.270 -0.2478  0.2099 -0.4638
17185TIP3   OH273045   5.753   6.196   5.441  0.1096 -0.5309  0.2219
17185TIP3    H173046   5.674   6.171   5.488  0.9242 -1.7646  0.9827
17185TIP3    H273047   5.731   6.184   5.349 -1.6452  2.3049  0.1559
17186TIP3   OH273048   0.250   5.888  12.297  1.0058  0.1476  0.1680
17186TIP3    H173049   0.277   5.809  12.250  0.8775  0.0218  0.3067
17186TIP3    H273050   0.171   5.862  12.344  0.6364  0.5232 -0.2451
17187TIP3   OH273051   2.124   1.356  14.764 -0.7887  0.1836  0.0149
17187TIP3    H173052   2.078   1.273  14.764  0.9589 -0.8426 -0.1795
17187TIP3    H273053   2.116   1.388  14.854 -2.5157  0.4461 -0.2111
17188TIP3   OH273054   1.365   6.781   0.941 -0.5603 -0.2617  0.3073
17188TIP3    H173055   1.380   6.796   0.848 -2.3156 -0.8762 -0.1090
17188TIP3    H273056   1.296   6.714   0.944 -1.8262  1.0180  2.0275
17189TIP3   OH273057   6.762   5.169  15.177  0.7454 -0.2617 -0.1773
17189TIP3    H173058   6.778   5.228  15.251  1.0946 -0.1721 -0.3201
17189TIP3    H273059   6.838   5.181  15.120  0.1054  0.2527 -0.9339
17190TIP3   OH273060   1.702   4.714   0.928 -0.6875  0.0163  0.1633
17190TIP3    H173061   1.662   4.714   0.841 -2.6085 -0.9943  1.0016
17190TIP3    H273062   1.636   4.752   0.985  0.1954 -0.1913  1.3555
17191TIP3   OH273063   4.046   6.562   2.540 -0.6162 -0.2523 -0.4813
17191TIP3    H173064   4.073   6.622   2.471  0.2381  1.0607  0.9243
17191TIP3    H273065   4.117   6.498   2.547 -0.1706  0.2827 -0.0742
17192TIP3   OH273066   1.473   5.056  15.056  0.1543 -0.5082 -0.4014
17192TIP3    H173067   1.504   5.099  15.136 -3.0502  0.5572  0.4355
17192TIP3    H273068   1.484   4.963  15.072  0.5507 -0.2591  0.8479
17193TIP3   OH273069   4.392   0.951   3.747  0.1975  0.0593  0.0131
17193TIP3    H173070   4.405   0.961   3.842  0.0265  2.8316 -0.1765
17193TIP3    H273071   4.341   1.028   3.722  0.1811 -0.6541 -2.3526
17194TIP3   OH273072   5.857   1.754  15.160  0.1527 -0.1108  0.3470
17194TIP3    H173073   5.868   1.692  15.232  0.8153  0.6660  0.9314
17194TIP3    H273074   5.914   1.720  15.091  2.4366  1.1003  1.5238
17195TIP3   OH273075   5.040   2.617   5.210 -0.2581  0.2523  0.0257
17195TIP3    H173076   5.039   2.615   5.306  1.9931  0.3483  0.0951
17195TIP3    H273077   4.995   2.536   5.185 -0.1289 -0.2038  1.1723
17196TIP3   OH273078   4.352   1.145   5.976  0.7518  1.1399  0.3436
17196TIP3    H173079   4.258   1.126   5.980  0.7598 -0.5169 -3.2969
17196TIP3    H273080   4.393   1.071   6.021  0.3331  0.3336 -0.5548
17197TIP3   OH273081   4.243   2.041  14.145  0.6378  0.1327  0.4268
17197TIP3    H173082   4.326   2.012  14.108  0.7530 -0.6351  1.2409
17197TIP3    H273083   4.193   1.960  14.158  0.0116  0.5266  0.5226
17198TIP3   OH273084   4.585   5.218   4.978  0.4011 -0.7670  0.2254
17198TIP3    H173085   4.515   5.187   4.920  0.4468 -1.0070  0.2973
17198TIP3    H273086   4.546   5.218   5.065  0.4354 -0.7252  0.2414
17199TIP3   OH273087   4.964   4.250   2.568  0.1240  0.0251  0.1720
17199TIP3    H173088   4.914   4.325   2.601 -1.7578 -0.5759 -1.1412
17199TIP3    H273089   4.949   4.181   2.633  1.0204  0.4521  0.8561
17200TIP3   OH273090   3.765   5.467   3.053  0.1323  0.0494 -0.1956
17200TIP3    H173091   3.829   5.538   3.056  0.7675 -0.5204 -0.1557
17200TIP3    H273092   3.779   5.419   3.134  0.3268 -0.6607 -0.6473
17201TIP3   OH273093   1.305   0.567   0.945 -0.1326  0.5053  0.0598
17201TIP3    H173094   1.372   0.565   1.013 -0.3144 -0.4342  0.2157
17201TIP3    H273095   1.230   0.610   0.986  1.1776  4.0306 -0.8965
17202TIP3   OH273096   1.912   4.129  17.148 -0.0353  0.2112 -0.5703
17202TIP3    H173097   1.898   4.147  17.241 -1.1600  0.5194 -0.7882
17202TIP3    H273098   1.916   4.033  17.142 -1.0109  0.1532 -0.3401
17203TIP3   OH273099   4.049   4.606  12.827  0.4995  0.2055  0.2984
17203TIP3    H173100   3.991   4.607  12.751  0.2820  3.1382  0.4191
17203TIP3    H273101   4.102   4.527  12.815 -0.0232  0.1894 -2.4939
17204TIP3   OH273102   1.026   6.347  12.889  0.0741 -0.2029  0.2624
17204TIP3    H173103   1.005   6.324  12.799  2.1742 -1.4463  0.0051
17204TIP3    H273104   1.097   6.287  12.913 -0.1296  0.3859  2.6010
17205TIP3   OH273105   3.278   5.913  15.196 -0.3364 -0.3413 -0.7939
17205TIP3    H173106   3.368   5.880  15.198  0.3309  1.3933 -0.2838
17205TIP3    H273107   3.256   5.928  15.288 -1.1022 -0.6120 -0.9282
17206TIP3   OH273108   2.964   1.879   6.208 -0.3182 -0.2489  0.5061
17206TIP3    H173109   2.890   1.910   6.260 -2.4607 -2.3813 -0.9889
17206TIP3    H273110   2.997   1.803   6.255  1.8065  1.3517  1.7625
17207TIP3   OH273111   4.919   6.370  13.382  0.1744 -0.1736 -0.0801
17207TIP3    H173112   4.900   6.290  13.331  2.1912 -0.2756 -0.7672
17207TIP3    H273113   4.996   6.407  13.340  1.4367  0.2074  2.4287
17208TIP3   OH273114   1.648   4.786  14.561 -0.0421  0.3167 -0.4691
17208TIP3    H173115   1.677   4.700  14.532 -1.4274 -0.1768 -0.4984
17208TIP3    H273116   1.554   4.786  14.543 -0.5771  0.8181  1.9468
17209TIP3   OH273117   0.353   2.914  11.394 -0.0379  0.3203 -0.4513
17209TIP3    H173118   0.367   2.864  11.313 -1.7693 -2.1994  0.6693
17209TIP3    H273119   0.316   2.850  11.455 -1.1712  2.7329  1.5392
17210TIP3   OH273120   0.497   0.204  13.316  0.1117 -0.3645 -0.6080
17210TIP3    H173121   0.577   0.153  13.331  0.0742 -0.8833 -2.0416
17210TIP3    H273122   0.426   0.141  13.329  0.0129 -0.3435 -1.0324
17211TIP3   OH273123   0.950   5.592  15.815  0.0670  0.2244 -0.1909
17211TIP3    H173124   1.030   5.595  15.764  0.7674 -2.7122  0.5264
17211TIP3    H273125   0.967   5.526  15.882 -3.2432 -1.2510 -0.5997
17212TIP3   OH273126   4.054   6.023   5.428 -0.1137 -0.3603 -0.1537
17212TIP3    H173127   3.970   6.057   5.397  0.9375 -0.0839 -2.9546
17212TIP3    H273128   4.117   6.093   5.412  0.7650 -0.7443  1.4288
17213TIP3   OH273129   4.148   1.894   3.937  0.3946  0.1086 -0.0283
17213TIP3    H173130   4.120   1.966   3.994  0.8049 -0.7880  1.3455
17213TIP3    H273131   4.217   1.849   3.987  2.2470  0.4981 -2.0795
17214TIP3   OH273132   3.231   1.291   6.104 -0.4795 -0.2577 -0.0001
17214TIP3    H173133   3.248   1.380   6.135 -0.3499 -0.2658 -0.0500
17214TIP3    H273134   3.316   1.259   6.075 -0.7053 -0.0378 -0.9335
17215TIP3   OH273135   3.583   4.247   2.248  0.4376 -0.4661 -0.2402
17215TIP3    H173136   3.673   4.226   2.223  0.8626  0.1467  0.7217
17215TIP3    H273137   3.569   4.336   2.217  1.4848  0.8924  2.8326
17216TIP3   OH273138   0.929   1.167  15.975  0.0011  0.1104  0.1857
17216TIP3    H173139   0.887   1.193  15.894 -0.9026  1.4011  1.0390
17216TIP3    H273140   0.941   1.072  15.966 -0.9371  0.0843 -1.0521
17217TIP3   OH273141   1.132   1.925  15.083 -0.0624 -0.0844  0.0617
17217TIP3    H173142   1.083   1.881  15.153  0.8426  1.2776  1.6427
17217TIP3    H273143   1.090   2.011  15.076 -0.7457 -0.5271 -1.7979
17218TIP3   OH273144   3.515   4.504   2.161  0.0631  0.2868 -0.6695
17218TIP3    H173145   3.450   4.570   2.184  0.4517  0.6761 -0.6800
17218TIP3    H273146   3.587   4.554   2.122  1.0381  0.0442  0.7298
17219TIP3   OH273147   5.875   2.837  13.977  0.3181 -0.0915  0.7586
17219TIP3    H173148   5.836   2.787  13.905  2.0093  0.3329 -0.5092
17219TIP3    H273149   5.912   2.915  13.936  0.1827  0.8255  2.2937
17220TIP3   OH273150   5.878   6.731   4.250 -0.1899  0.5092 -0.5885
17220TIP3    H173151   5.837   6.645   4.245  0.4083  0.1783  0.0365
17220TIP3    H273152   5.969   6.717   4.222  0.1877  0.7255  0.4567
17221TIP3   OH273153   6.274   6.648  15.055  0.2644 -0.1696  0.3854
17221TIP3    H173154   6.250   6.729  15.100 -0.1672  0.9837 -1.7736
17221TIP3    H273155   6.239   6.579  15.111 -0.1961  1.1476  1.8191
17222TIP3   OH273156   2.297   0.682   0.203 -0.9082  0.0711  0.0335
17222TIP3    H173157   2.371   0.673   0.143 -0.8301 -1.3975  0.3095
17222TIP3    H273158   2.255   0.596   0.203 -0.5567 -0.1805  2.5346
17223TIP3   OH273159   0.066   2.246   1.058  0.2402 -0.7480 -0.1652
17223TIP3    H173160   0.129   2.198   1.111  1.2493  0.8407  0.1391
17223TIP3    H273161   0.070   2.336   1.092  0.1650  0.0830 -2.2237
17224TIP3   OH273162   1.134   2.783  14.896  0.1627  0.2417 -0.4752
17224TIP3    H173163   1.099   2.765  14.983  1.8407  0.3400  0.2711
17224TIP3    H273164   1.176   2.869  14.904  1.4404 -0.2991 -0.9889
17225TIP3   OH273165   0.226   2.780   4.678 -0.2289  0.3327  0.0495
17225TIP3    H173166   0.223   2.845   4.608 -2.4850  0.6919  0.4076
17225TIP3    H273167   0.237   2.831   4.758 -0.1315  0.1051  0.1841
17226TIP3   OH273168   5.642   5.639   0.971 -0.2992  0.3083  0.6374
17226TIP3    H173169   5.710   5.699   0.938 -1.1968  0.5964 -0.8065
17226TIP3    H273170   5.673   5.613   1.057  2.3903 -0.6941 -0.4952
17227TIP3   OH273171   0.124   3.062  12.143  0.2419 -0.0164 -0.5304
17227TIP3    H173172   0.179   3.107  12.207 -0.4943 -0.9212  0.8003
17227TIP3    H273173   0.050   3.121  12.129 -2.0451 -1.6562  3.1416
17228TIP3   OH273174   0.279   6.078  17.116 -0.4130 -0.6158 -0.2604
17228TIP3    H173175   0.346   6.118  17.060 -1.5381 -0.0329 -1.2385
17228TIP3    H273176   0.197   6.118  17.088 -1.3061 -1.9855  0.2786
17229TIP3   OH273177   5.138   3.896   3.630  0.2661  0.1458  0.5167
17229TIP3    H173178   5.164   3.806   3.645  0.4306  0.3572  1.5844
17229TIP3    H273179   5.138   3.936   3.717 -0.0774  1.0992  0.0949
17230TIP3   OH273180   5.929   2.754  15.706 -0.3647 -0.3395 -0.1714
17230TIP3    H173181   5.883   2.683  15.752  0.2392 -1.3925 -1.1408
17230TIP3    H273182   5.891   2.834  15.742  0.2463 -1.0909  2.3457
17231TIP3   OH273183   2.456   1.979  14.842  0.1446  0.4250 -0.3181
17231TIP3    H173184   2.467   2.057  14.895 -1.2152  0.5150 -0.1404
17231TIP3    H273185   2.450   1.907  14.906  0.1485  0.3289 -0.4253
17232TIP3   OH273186   6.831   5.468   5.240 -0.0979  0.0899 -0.7651
17232TIP3    H173187   6.810   5.549   5.286 -1.4493 -1.8152  2.3050
17232TIP3    H273188   6.913   5.439   5.279 -0.3076 -0.6619 -0.8612
17233TIP3   OH273189   0.025   4.525  15.962 -0.6399  0.2539  0.3973
17233TIP3    H173190  -0.003   4.591  15.898  1.2901 -0.9467 -1.8269
17233TIP3    H273191   0.109   4.493  15.929 -0.9913 -2.5962  1.9306
17234TIP3   OH273192   2.942   1.988   3.585  0.4434  0.5361  0.1335
17234TIP3    H173193   2.998   1.997   3.662 -2.2263  0.6502  2.2119
17234TIP3    H273194   2.935   1.893   3.571  0.4350  0.4917  0.4358
17235TIP3   OH273195   2.222   3.597   0.146 -0.2302  0.2592 -0.2532
17235TIP3    H173196   2.261   3.632   0.226  0.4626 -0.2384 -0.3627
17235TIP3    H273197   2.191   3.674   0.098 -2.7085  0.4764  1.4858
17236TIP3   OH273198   3.839   4.017   6.489 -0.3857  0.5428  0.5279
17236TIP3    H173199   3.751   4.013   6.452 -0.2447  0.1068  0.2269
17236TIP3    H273200   3.854   3.929   6.525  0.1479  0.4368  0.0612
17237TIP3   OH273201   6.550   0.046  12.630 -0.0885  0.1937  0.2172
17237TIP3    H173202   6.469   0.002  12.655 -0.9431  0.0208 -2.5735
17237TIP3    H273203   6.615  -0.025  12.624 -0.0775  0.1270  0.9601
17238TIP3   OH273204   2.652   6.261   4.104  0.0366 -0.0822  0.2887
17238TIP3    H173205   2.627   6.169   4.115  1.7454 -0.6971 -0.6799
17238TIP3    H273206   2.663   6.294   4.194  0.7468 -1.2199  0.6363
17239TIP3   OH273207   4.866   2.074  16.979 -0.5431 -0.1458  0.1839
17239TIP3    H173208   4.787   2.043  17.022 -1.3232 -1.9208 -2.2570
17239TIP3    H273209   4.938   2.030  17.024 -1.1323 -0.2900  0.9834
17240TIP3   OH273210   3.059   5.322   2.907 -0.1376  0.0113  0.1741
17240TIP3    H173211   3.007   5.402   2.910 -0.8928 -0.4023 -1.0503
17240TIP3    H273212   3.003   5.259   2.860  0.4955 -1.1875  0.9602
17241TIP3   OH273213   4.087   0.989  13.633 -0.6113 -0.3781  0.3366
17241TIP3    H173214   4.182   0.976  13.627 -0.4466  0.9773 -0.4985
17241TIP3    H273215   4.057   0.922  13.695  0.9989 -0.2909  1.2671
17242TIP3   OH273216   5.073   1.061   4.631 -0.5224  0.3163  0.1194
17242TIP3    H173217   5.150   1.008   4.611 -1.3084 -0.3166 -1.3492
17242TIP3    H273218   5.042   1.029   4.715  0.6554  0.4096  0.6064
17243TIP3   OH273219   3.937   0.442   2.691  0.2049  0.2150 -0.1720
17243TIP3    H173220   4.027   0.475   2.688  0.0408  0.6336 -0.5217
17243TIP3    H273221   3.926   0.411   2.781 -0.6780  4.0968  1.2445
17244TIP3   OH273222   4.817   6.010  11.496 -0.1762  0.3097 -0.0572
17244TIP3    H173223   4.757   6.020  11.569 -0.4972 -1.2485 -0.0750
17244TIP3    H273224   4.899   6.051  11.526 -0.5245  0.3391  0.8773
17245TIP3   OH273225   2.108   4.718  11.633 -0.0053 -0.5687  0.3594
17245TIP3    H173226   2.033   4.743  11.686  1.2871  1.3446  1.4355
17245TIP3    H273227   2.134   4.632  11.667 -1.3220 -0.9863  0.3643
17246TIP3   OH273228   2.790   3.454  10.838  0.0402  0.2936 -0.1630
17246TIP3    H173229   2.776   3.492  10.752  0.0402  1.3207  0.2737
17246TIP3    H273230   2.885   3.445  10.846  0.1454  1.5215  0.2530
17247TIP3   OH273231   5.265   1.723  16.588 -0.5473 -0.0851 -0.3006
17247TIP3    H173232   5.345   1.672  16.601 -0.5370  0.0624  0.2168
17247TIP3    H273233   5.290   1.813  16.605 -0.9582 -0.1040  0.4453
17248TIP3   OH273234   4.507   1.480   2.708 -0.1474 -0.0340 -0.2056
17248TIP3    H173235   4.415   1.477   2.733 -0.1453 -0.4702 -0.2502
17248TIP3    H273236   4.513   1.426   2.629  0.0747  0.3142 -0.4333
17249TIP3   OH273237   1.906   3.974  11.034  0.8843  0.1156  0.5407
17249TIP3    H173238   1.832   3.924  11.000 -1.7300  2.8336  1.8215
17249TIP3    H273239   1.983   3.926  11.004 -1.2795 -1.3630 -3.3549
17250TIP3   OH273240   1.765   2.317  13.967 -0.0945  0.1130  0.6089
17250TIP3    H173241   1.746   2.405  13.933 -0.7002  0.9308  2.8644
17250TIP3    H273242   1.680   2.272  13.964  0.0308 -0.1119  0.2995
17251TIP3   OH273243   5.891   1.147   4.920  0.2444  0.0775 -0.2235
17251TIP3    H173244   5.807   1.173   4.958  0.8628 -0.3612  1.5217
17251TIP3    H273245   5.927   1.229   4.886 -0.3232  0.4942  0.1454
17252TIP3   OH273246   1.245   1.535  15.861  0.0833  0.4889  0.0015
17252TIP3    H173247   1.203   1.503  15.781  0.4543  1.1760 -0.4773
17252TIP3    H273248   1.272   1.456  15.907  0.8985  0.0843 -1.1134
17253TIP3   OH273249   2.936   0.809   2.036 -0.3530  0.8040  0.0456
17253TIP3    H173250   2.877   0.782   2.106  0.6728  3.7010  2.2459
17253TIP3    H273251   2.891   0.882   1.994 -0.6181 -0.4189 -1.9188
17254TIP3   OH273252   0.724   0.773  12.268 -0.0408 -0.2254  0.4196
17254TIP3    H173253   0.716   0.686  12.307  1.0295  0.2736  1.8398
17254TIP3    H273254   0.818   0.788  12.260 -0.1436  1.3570  1.5598
17255TIP3   OH273255   2.271   3.987   0.168 -0.1314 -0.2213  0.6191
17255TIP3    H173256   2.212   3.949   0.103  0.2931  1.0653 -0.5850
17255TIP3    H273257   2.308   3.912   0.215 -0.1348 -1.2264 -0.9139
17256TIP3   OH273258   6.642   5.901  15.484  0.3144  0.5386  0.4590
17256TIP3    H173259   6.554   5.899  15.523 -0.1431 -1.9988 -0.4907
17256TIP3    H273260   6.694   5.954  15.544 -1.4384  0.5830  2.0278
17257TIP3   OH273261   0.767   4.479  13.703 -0.0174  0.0681 -0.0733
17257TIP3    H173262   0.813   4.487  13.620 -0.4027  0.3488 -0.2608
17257TIP3    H273263   0.680   4.447  13.680  0.3533 -1.2985  0.3540
17258TIP3   OH273264   6.181   5.461  11.667 -0.4292  0.2315 -0.3042
17258TIP3    H173265   6.261   5.411  11.680 -0.0794  0.6516 -0.7729
17258TIP3    H273266   6.185   5.488  11.575 -0.8215  0.7395 -0.1781
17259TIP3   OH273267   5.005   2.129   0.681  0.2083 -0.2203 -0.6985
17259TIP3    H173268   5.100   2.124   0.682  0.2312 -0.3742  1.2498
17259TIP3    H273269   4.978   2.096   0.767 -1.7318 -2.1615 -1.9430
17260TIP3   OH273270   6.427   3.554  15.612  0.0507  0.2707  1.4355
17260TIP3    H173271   6.515   3.578  15.583 -0.8847  0.9786 -1.1320
17260TIP3    H273272   6.409   3.471  15.568 -0.8748  0.6011  1.1573
17261TIP3   OH273273   2.385   4.535   6.515  0.5881 -0.4773  0.2524
17261TIP3    H173274   2.371   4.508   6.425  1.2864  1.3160 -0.4560
17261TIP3    H273275   2.310   4.591   6.536  0.2214 -1.2046  0.9425
17262TIP3   OH273276   0.472   1.473   3.447  0.4413  0.6150  0.3349
17262TIP3    H173277   0.420   1.394   3.463 -0.4001  1.5104  2.3635
17262TIP3    H273278   0.475   1.518   3.531  1.4636  2.4348 -0.5949
17263TIP3   OH273279   2.367   4.228  16.863  0.3458  0.4168  0.3688
17263TIP3    H173280   2.374   4.140  16.828 -0.7739 -0.7602  2.8749
17263TIP3    H273281   2.274   4.242  16.879  0.5719  1.7419  0.7383
17264TIP3   OH273282   1.278   0.492  12.078  0.1943  0.1518 -0.6287
17264TIP3    H173283   1.344   0.442  12.124  1.7147  0.5929 -2.2288
17264TIP3    H273284   1.258   0.439  12.000  0.0705  0.9019 -1.1176
17265TIP3   OH273285   4.589   3.900  14.627  0.4865  0.1278 -0.0755
17265TIP3    H173286   4.638   3.895  14.545 -0.1373  2.8964 -0.7046
17265TIP3    H273287   4.498   3.884  14.602  0.5432 -1.2497  0.4909
17266TIP3   OH273288   4.914   5.298  13.622  0.4707 -0.1312 -0.4380
17266TIP3    H173289   4.994   5.264  13.662  0.5437  0.0463 -0.4351
17266TIP3    H273290   4.945   5.354  13.551  0.3803  1.2551  0.5918
17267TIP3   OH273291   4.606   0.309  12.384 -0.4439  0.0037  0.0207
17267TIP3    H173292   4.517   0.289  12.356  0.5688 -1.4748 -2.4493
17267TIP3    H273293   4.614   0.404  12.373 -1.3412 -0.0133 -0.9523
17268TIP3   OH273294   2.903   0.362   2.758  0.3099  0.3942  0.5278
17268TIP3    H173295   2.893   0.289   2.819  2.3963  1.2954  2.0636
17268TIP3    H273296   2.910   0.321   2.672  0.9016 -1.1913  1.2937
17269TIP3   OH273297   5.088   1.819  14.576  0.3370 -0.3862  0.4849
17269TIP3    H173298   5.037   1.840  14.498  1.6772  0.0835 -0.2949
17269TIP3    H273299   5.077   1.895  14.633  1.8404  0.7002 -0.5912
17270TIP3   OH273300   1.030   4.939  10.799  0.2674  0.4661 -0.3387
17270TIP3    H173301   1.005   4.967  10.711 -0.6889 -1.2031 -0.6454
17270TIP3    H273302   1.122   4.915  10.792  0.2265  0.4647 -0.8567
17271TIP3   OH273303   0.757   3.761  13.821 -0.3614 -0.1778 -0.0639
17271TIP3    H173304   0.793   3.684  13.864 -0.4145 -0.0212  0.2617
17271TIP3    H273305   0.722   3.728  13.738 -1.6627 -0.7787  0.6818
17272TIP3   OH273306   1.191   2.080  12.730 -0.2817  1.3158 -0.0471
17272TIP3    H173307   1.220   2.088  12.821 -0.4134  1.8386 -0.0493
17272TIP3    H273308   1.271   2.061  12.681 -0.1364  1.5125  0.1142
17273TIP3   OH273309   1.228   4.396  16.131  0.0857  0.4922 -0.1007
17273TIP3    H173310   1.144   4.358  16.157 -0.0675 -0.8650 -2.2386
17273TIP3    H273311   1.227   4.485  16.165 -2.1585  0.4424  0.0763
17274TIP3   OH273312   6.484   3.837   3.555  0.2758  0.0975 -0.2282
17274TIP3    H173313   6.554   3.838   3.489 -0.2648 -0.9814 -0.8500
17274TIP3    H273314   6.487   3.749   3.591  1.2744  0.9771  2.0332
17275TIP3   OH273315   1.409   6.223   1.986  0.0113 -0.0239 -0.2190
17275TIP3    H173316   1.352   6.251   1.914 -1.8793 -1.4819  0.6445
17275TIP3    H273317   1.369   6.260   2.064  1.1834  0.2605  0.2703
17276TIP3   OH273318   5.217   6.822   4.483 -0.6022  0.5317 -0.1607
17276TIP3    H173319   5.276   6.815   4.558  2.1720 -0.0901 -2.2199
17276TIP3    H273320   5.240   6.904   4.441 -2.0963  0.8629 -0.4047
17277TIP3   OH273321   2.962   5.099  12.151 -0.1337  0.0136 -0.3050
17277TIP3    H173322   2.884   5.129  12.103 -0.0784 -2.1535 -1.9507
17277TIP3    H273323   3.030   5.162  12.128 -1.1745  1.5493  0.5975
17278TIP3   OH273324   3.942   4.817  13.700  0.7663  0.2557  0.5241
17278TIP3    H173325   3.941   4.781  13.788  0.8518  0.1551  0.4842
17278TIP3    H273326   3.953   4.741  13.643  1.7889  0.4288  0.4842
17279TIP3   OH273327   3.874   2.077   5.027  0.0004 -0.0168  0.4950
17279TIP3    H173328   3.947   2.036   5.073 -0.3748  1.1776  2.2954
17279TIP3    H273329   3.915   2.142   4.970  0.4061  0.0923  0.8975
17280TIP3   OH273330   3.639   0.997  11.410 -0.0444  0.4357 -0.0801
17280TIP3    H173331   3.549   1.023  11.431 -0.7776 -3.0031  1.6782
17280TIP3    H273332   3.629   0.927  11.345  1.6859  2.4058 -2.7004
17281TIP3   OH273333   1.858   0.375   3.123 -0.2736  0.3475 -0.0679
17281TIP3    H173334   1.935   0.384   3.067  0.5260  1.6143  1.1535
17281TIP3    H273335   1.784   0.395   3.066  0.2069 -1.4156 -1.3977
17282TIP3   OH273336   4.439   4.160   1.430 -0.1375  0.1987  0.1852
17282TIP3    H173337   4.413   4.105   1.357 -0.1146 -1.7058  1.5461
17282TIP3    H273338   4.356   4.184   1.473 -0.1499  1.2932 -0.4108
17283TIP3   OH273339   4.467   3.454   3.269 -0.0701 -0.4066 -0.2763
17283TIP3    H173340   4.428   3.367   3.272  1.5657 -1.1541  0.8167
17283TIP3    H273341   4.425   3.502   3.340 -1.0166 -0.2582 -0.9184
17284TIP3   OH273342   1.450   4.232  14.228  0.3563 -0.3343  0.2783
17284TIP3    H173343   1.356   4.214  14.229 -0.2726  2.2774  2.3619
17284TIP3    H273344   1.464   4.279  14.146  0.4076 -2.7356 -1.1786
17285TIP3   OH273345   3.224   5.265   0.067  0.4822  0.1445 -0.0632
17285TIP3    H173346   3.313   5.283   0.100 -0.2848  0.3675  2.0443
17285TIP3    H273347   3.196   5.187   0.116 -0.5160  0.1095 -0.6622
17286TIP3   OH273348   3.727   4.899  16.265 -0.5321 -0.5480 -0.5998
17286TIP3    H173349   3.687   4.874  16.182  0.1526 -0.5108 -0.9545
17286TIP3    H273350   3.782   4.975  16.242 -0.6749 -0.2721 -0.0307
17287TIP3   OH273351   2.526   2.661  14.019 -0.4406  0.6694  0.8135
17287TIP3    H173352   2.560   2.674  13.931 -1.7546  0.0468  0.1886
17287TIP3    H273353   2.532   2.747  14.060  1.1513  0.7457  0.4981
17288TIP3   OH273354   4.237   6.717   0.862  0.5491 -0.0054  0.3074
17288TIP3    H173355   4.204   6.680   0.780 -0.9734  0.1030  0.8417
17288TIP3    H273356   4.299   6.652   0.895 -0.1324 -0.8652 -0.0654
17289TIP3   OH273357   2.286   1.519  10.567 -0.1111 -0.3227 -0.2159
17289TIP3    H173358   2.376   1.497  10.543  0.2633  0.0568  0.7736
17289TIP3    H273359   2.265   1.458  10.637 -0.2959  0.1932  0.1818
17290TIP3   OH273360   1.070   5.980  12.907  0.4832 -0.0827  0.1350
17290TIP3    H173361   1.083   6.073  12.927 -0.5333 -0.2312  1.7230
17290TIP3    H273362   0.976   5.972  12.891  0.5915 -0.8161 -0.1753
17291TIP3   OH273363   1.584   1.689  10.718  0.5910 -0.2022 -0.1049
17291TIP3    H173364   1.533   1.716  10.641  1.8829 -1.0895 -1.3118
17291TIP3    H273365   1.549   1.603  10.741 -0.6995  0.6004  1.1922
17292TIP3   OH273366   3.489   4.305   0.472 -0.2367  0.0041  0.0939
17292TIP3    H173367   3.407   4.256   0.464 -0.5403  0.0399  2.3077
17292TIP3    H273368   3.484   4.372   0.405 -0.3322 -2.2165 -2.2880
17293TIP3   OH273369   6.683   6.223  12.705  1.0248  0.3557 -0.2213
17293TIP3    H173370   6.618   6.279  12.665  1.2482  0.5135 -0.3637
17293TIP3    H273371   6.647   6.134  12.697  1.5028  0.2635 -1.6465
17294TIP3   OH273372   3.068   4.282  10.879 -0.3310 -0.4435  0.1088
17294TIP3    H173373   3.154   4.310  10.848 -0.8528 -0.2525 -1.2254
17294TIP3    H273374   3.030   4.234  10.805 -2.0249  0.8828  0.0574
17295TIP3   OH273375   4.118   0.184  15.477  0.1375  0.4701  0.3736
17295TIP3    H173376   4.039   0.226  15.510 -1.1421 -1.2103 -0.3750
17295TIP3    H273377   4.092   0.093  15.462  1.6760  0.2934 -1.6940
17296TIP3   OH273378   3.496   6.219  15.325 -0.1338  0.2215 -0.1231
17296TIP3    H173379   3.564   6.179  15.379 -1.2982 -0.5305  0.8536
17296TIP3    H273380   3.432   6.253  15.388 -0.8650  0.5342 -1.0125
17297TIP3   OH273381   5.830   5.530  12.405 -0.8110 -0.1290 -0.4325
17297TIP3    H173382   5.902   5.517  12.344  1.1752 -2.7265  2.2290
17297TIP3    H273383   5.764   5.465  12.379 -0.4870 -0.4202 -0.5294
17298TIP3   OH273384   3.835   3.706  15.584 -0.1555 -0.2754  0.7009
17298TIP3    H173385   3.837   3.726  15.490 -0.0483 -1.0703  0.5259
17298TIP3    H273386   3.757   3.652  15.595 -0.7481  0.6664  1.2617
17299TIP3   OH273387   6.390   4.696  14.539 -0.1406 -0.1246 -0.1201
17299TIP3    H173388   6.374   4.752  14.615 -1.5053 -1.4715  0.6482
17299TIP3    H273389   6.406   4.609  14.576  2.8179 -0.1543 -1.2386
17300TIP3   OH273390   6.788   6.360   2.580 -0.1542  0.2597 -0.2168
17300TIP3    H173391   6.812   6.359   2.673 -0.0257 -1.0337 -0.2455
17300TIP3    H273392   6.833   6.437   2.545  0.6131  0.1994  0.5938
17301TIP3   OH273393   5.219   5.783   6.040  0.4237 -0.7046  0.1390
17301TIP3    H173394   5.179   5.838   6.107  0.3689 -1.2912  0.5945
17301TIP3    H273395   5.309   5.769   6.070  0.5031 -0.6799 -0.0858
17302TIP3   OH273396   2.162   4.023  12.740 -0.3978 -0.4722 -0.2037
17302TIP3    H173397   2.145   3.976  12.658 -0.3630 -0.3923 -0.2566
17302TIP3    H273398   2.245   3.987  12.771 -0.1152 -0.0897 -0.5025
17303TIP3   OH273399   3.923   2.666   0.463 -0.3218 -0.4298  0.1740
17303TIP3    H173400   3.970   2.737   0.419  1.6808  0.7528  3.8212
17303TIP3    H273401   3.969   2.586   0.435  1.0003  0.2781  0.2555
17304TIP3   OH273402   2.227   1.959  11.502 -0.4083  0.2973 -0.3639
17304TIP3    H173403   2.270   1.875  11.488 -2.0879 -0.7817  0.5428
17304TIP3    H273404   2.295   2.016  11.537  0.7467 -0.7070 -0.9180
17305TIP3   OH273405   0.264   5.686   3.762 -0.2461 -0.1394 -0.0643
17305TIP3    H173406   0.233   5.677   3.672 -1.8465  0.0656  0.4265
17305TIP3    H273407   0.246   5.778   3.784 -1.2588 -0.5523  0.9208
17306TIP3   OH273408   5.962   5.075   0.451  0.0705 -0.2291 -0.0194
17306TIP3    H173409   5.897   5.083   0.520  0.5216  0.3964  0.3439
17306TIP3    H273410   6.041   5.042   0.495  0.0789 -0.7436 -0.4097
17307TIP3   OH273411   4.128   3.704  15.783 -0.5918 -0.3187  0.3340
17307TIP3    H173412   4.178   3.679  15.861  3.1637  0.3032 -1.6546
17307TIP3    H273413   4.075   3.779  15.812  1.1706  0.3242  2.1987
17308TIP3   OH273414   4.652   2.884   0.337 -0.4280  0.1542  0.3284
17308TIP3    H173415   4.635   2.977   0.354 -1.1115 -0.3362  2.6337
17308TIP3    H273416   4.729   2.864   0.390  0.3838 -0.3877 -0.9975
17309TIP3   OH273417   0.234   4.094   3.722  0.2432 -0.3264  0.6117
17309TIP3    H173418   0.326   4.116   3.710 -0.0107 -0.2716 -1.4359
17309TIP3    H273419   0.188   4.177   3.711 -0.3131 -0.9279 -2.1468
17310TIP3   OH273420   4.272   2.844  15.674  0.5776 -0.2086 -0.0563
17310TIP3    H173421   4.295   2.936  15.664  0.7007 -0.4749 -3.3825
17310TIP3    H273422   4.345   2.796  15.635 -1.2680 -1.4562 -2.2265
17311TIP3   OH273423   5.491   1.292  15.968  0.2005  0.2703 -0.0506
17311TIP3    H173424   5.464   1.316  15.879  0.9569  2.0850  0.1635
17311TIP3    H273425   5.453   1.205  15.982 -0.3203  0.1387 -1.9708
17312TIP3   OH273426   2.305   0.549  15.839 -0.5882 -0.2514 -0.3658
17312TIP3    H173427   2.247   0.615  15.800  0.5277  0.7939 -0.3311
17312TIP3    H273428   2.260   0.466  15.824 -1.3175  0.3561 -1.7634
17313TIP3   OH273429   5.362   0.287  13.355  0.0843  0.4885 -0.0769
17313TIP3    H173430   5.277   0.318  13.388  0.4368  1.0198  0.3557
17313TIP3    H273431   5.372   0.329  13.270 -0.8736 -0.9613 -0.9664
17314TIP3   OH273432   1.354   0.003   2.738 -0.0222 -0.5565 -0.1252
17314TIP3    H173433   1.306   0.059   2.677  0.4943  0.6615  0.5576
17314TIP3    H273434   1.437  -0.016   2.693  0.4611  0.5400  0.2603
17315TIP3   OH273435   2.226   0.743   3.227 -0.1335  0.4278 -0.2929
17315TIP3    H173436   2.147   0.697   3.255 -0.2233  0.4477 -0.5167
17315TIP3    H273437   2.297   0.703   3.278 -0.4843  1.4104  1.0104
17316TIP3   OH273438   4.356   6.024   3.900  0.0187 -0.3630  0.2974
17316TIP3    H173439   4.438   6.072   3.906 -0.4998  0.4189  1.6147
17316TIP3    H273440   4.288   6.092   3.899 -0.6917 -1.0216  1.2158
17317TIP3   OH273441   0.069   0.719   3.206 -0.5351 -0.5601 -0.3298
17317TIP3    H173442   0.102   0.747   3.292  2.0356  0.6120 -1.5946
17317TIP3    H273443   0.069   0.800   3.154 -2.5592 -1.1452 -1.3460
17318TIP3   OH273444   6.332   6.742  13.897  0.4489 -0.3997  0.2672
17318TIP3    H173445   6.370   6.778  13.977  0.5896  0.9390 -0.3723
17318TIP3    H273446   6.258   6.799  13.878  0.0639 -1.0527 -0.2477
17319TIP3   OH273447   3.705   5.282   3.730  0.1946 -0.3035  0.0231
17319TIP3    H173448   3.617   5.255   3.704 -0.5760 -0.0053  2.1282
17319TIP3    H273449   3.713   5.372   3.699 -0.7813  0.1155  0.9047
17320TIP3   OH273450   2.062   1.277   2.593  0.0846 -0.1537 -0.1949
17320TIP3    H173451   2.001   1.231   2.651 -0.1077 -0.9781 -1.0277
17320TIP3    H273452   2.092   1.209   2.532 -0.9487  0.9915 -2.0838
17321TIP3   OH273453   2.469   0.600  16.339 -0.1927  0.2767  0.4243
17321TIP3    H173454   2.400   0.610  16.404 -1.0899  0.9489 -0.5981
17321TIP3    H273455   2.431   0.544  16.271  0.7738 -0.5240  0.5156
17322TIP3   OH273456   1.911   4.150   6.205  0.8128 -0.0892  0.2152
17322TIP3    H173457   1.930   4.087   6.275  1.3606  0.4578  0.5783
17322TIP3    H273458   1.912   4.098   6.125 -1.1980 -0.9818  0.7255
17323TIP3   OH273459   2.407   4.432  11.694  0.2970 -0.2235 -0.1937
17323TIP3    H173460   2.417   4.393  11.781  3.7989 -0.6178 -0.6205
17323TIP3    H273461   2.456   4.514  11.699 -0.0742  0.1113 -1.6142
17324TIP3   OH273462   2.429   4.343  13.582  0.3458  0.1167 -0.2913
17324TIP3    H173463   2.335   4.361  13.574  0.7212  1.9002 -1.1469
17324TIP3    H273464   2.456   4.314  13.495  0.7265  0.4114 -0.2764
17325TIP3   OH273465   4.559   1.728   0.286 -0.4234  0.4866  0.3756
17325TIP3    H173466   4.498   1.795   0.317 -0.8219 -0.1272  0.9397
17325TIP3    H273467   4.576   1.674   0.363  0.5939  0.4633  0.1443
17326TIP3   OH273468   4.698   2.586  15.098 -0.3500 -0.1755  0.6104
17326TIP3    H173469   4.630   2.590  15.030 -0.0438 -1.2377  0.2300
17326TIP3    H273470   4.778   2.567  15.050 -0.0288 -0.3855  1.2224
17327TIP3   OH273471   2.152   2.896  10.735 -0.1687  0.3240 -0.8367
17327TIP3    H173472   2.129   2.983  10.767  0.2660 -0.2986  1.2794
17327TIP3    H273473   2.247   2.893  10.739 -0.2277 -0.8454  0.9312
17328TIP3   OH273474   6.523   5.915   5.033 -0.3147  0.1155  0.2779
17328TIP3    H173475   6.509   5.989   4.974  0.2248 -1.5652 -2.0814
17328TIP3    H273476   6.492   5.839   4.984  0.8272 -1.4713  1.8927
17329TIP3   OH273477   1.452   4.695   2.129 -0.1874 -0.3133 -0.2761
17329TIP3    H173478   1.491   4.617   2.091  0.0704  0.6934 -2.1907
17329TIP3    H273479   1.360   4.673   2.139 -0.1537 -0.7983 -0.9724
17330TIP3   OH273480   1.997   6.109  13.497 -0.0744  0.1347 -0.3143
17330TIP3    H173481   1.975   6.028  13.543 -1.2296  1.2721  1.2418
17330TIP3    H273482   2.066   6.149  13.550 -1.0547  1.2103  0.1921
17331TIP3   OH273483   4.444   1.722   0.026 -0.7600  0.2652  0.1794
17331TIP3    H173484   4.481   1.716   0.114 -1.8293  1.8579  0.7902
17331TIP3    H273485   4.349   1.717   0.039 -0.9486  0.8229 -0.8440
17332TIP3   OH273486   2.038   3.143   0.490  0.0243 -0.1144 -0.0034
17332TIP3    H173487   1.948   3.113   0.500  0.1940 -0.7809 -0.4185
17332TIP3    H273488   2.083   3.114   0.569 -0.3569  1.1181  0.6819
17333TIP3   OH273489   6.649   3.266  15.332 -0.4732  0.0072 -0.1502
17333TIP3    H173490   6.727   3.211  15.331 -0.3306  0.1144  1.8913
17333TIP3    H273491   6.682   3.353  15.354 -0.8497  0.7092 -2.1645
17334TIP3   OH273492   5.304   6.115  12.348 -0.3313  0.7627  0.2490
17334TIP3    H173493   5.374   6.051  12.333 -0.2749  0.5955  1.1644
17334TIP3    H273494   5.225   6.063  12.355 -0.3364  0.8178  0.6408
17335TIP3   OH273495   4.157   0.336   3.831 -0.0491 -0.2352 -0.1436
17335TIP3    H173496   4.126   0.265   3.775  0.5568 -0.2863 -0.4255
17335TIP3    H273497   4.106   0.413   3.803  1.5877  0.2002 -2.1449
17336TIP3   OH273498   1.583   2.016   2.309 -0.1928 -0.0524 -0.3542
17336TIP3    H173499   1.677   1.998   2.302  0.1179  1.4037 -0.1528
17336TIP3    H273500   1.546   1.977   2.230  0.6566 -0.1885 -0.6998
17337TIP3   OH273501   4.793   5.746   4.193 -0.3327 -0.5308 -0.6042
17337TIP3    H173502   4.725   5.684   4.219  0.6299 -1.0956  0.7120
17337TIP3    H273503   4.749   5.831   4.193 -0.7663 -0.6833  1.6313
17338TIP3   OH273504   3.107   2.773   5.180  0.0472  0.4840  0.1375
17338TIP3    H173505   3.033   2.739   5.230  0.7948  0.0429  0.9735
17338TIP3    H273506   3.070   2.845   5.128 -1.4944 -1.3658 -1.4543
17339TIP3   OH273507   2.116   3.051   0.224  0.5982 -0.3445 -0.1311
17339TIP3    H173508   2.076   3.085   0.304  0.3084 -2.6298  0.7704
17339TIP3    H273509   2.075   3.100   0.153 -0.2584  0.6655  1.0267
17340TIP3   OH273510   5.303   2.121   1.100 -0.1650  0.2818 -0.2128
17340TIP3    H173511   5.291   2.029   1.120 -1.8026  0.1889 -1.3867
17340TIP3    H273512   5.336   2.160   1.181 -0.4802 -1.1316  0.6177
17341TIP3   OH273513   0.205   2.592  12.803 -0.1760  0.4540  0.1669
17341TIP3    H173514   0.209   2.605  12.708  0.4913  0.4213  0.1813
17341TIP3    H273515   0.179   2.500  12.813  0.3264  0.2872  0.0029
17342TIP3   OH273516   1.865   2.718   5.728  0.3477  0.4289  0.5534
17342TIP3    H173517   1.916   2.799   5.720  2.4349 -0.8103  0.5260
17342TIP3    H273518   1.833   2.719   5.818  3.0627 -0.1520  1.6191
17343TIP3   OH273519   5.266   6.385   5.640  0.7897 -0.2173 -0.4093
17343TIP3    H173520   5.307   6.307   5.679 -1.6373 -1.0758  0.6403
17343TIP3    H273521   5.226   6.430   5.714  0.0830  0.7119 -1.3380
17344TIP3   OH273522   2.287   4.809   1.388  0.1166  0.3572 -0.0371
17344TIP3    H173523   2.231   4.733   1.407  1.3414 -1.1222 -1.8619
17344TIP3    H273524   2.229   4.872   1.346 -0.7008 -0.0424  0.4654
17345TIP3   OH273525   0.791   0.223   3.702  0.4195  0.0958 -0.4011
17345TIP3    H173526   0.868   0.243   3.649  1.1224  0.7614  0.8348
17345TIP3    H273527   0.759   0.308   3.732 -0.8317 -0.1615 -0.8985
17346TIP3   OH273528   2.732   6.550   0.903  0.7256 -0.9278  0.5332
17346TIP3    H173529   2.770   6.632   0.870  2.3570 -1.4571  1.0212
17346TIP3    H273530   2.637   6.565   0.899  0.9275  0.2939 -1.1365
17347TIP3   OH273531   3.726   6.382   0.829  0.4040 -0.0665 -0.1222
17347TIP3    H173532   3.738   6.314   0.896 -2.6309  0.5259  1.2190
17347TIP3    H273533   3.769   6.459   0.866  0.2451 -0.1916  0.3361
17348TIP3   OH273534   4.013   3.995   3.860 -0.1557 -0.4343 -0.5140
17348TIP3    H173535   4.066   4.034   3.790  0.7288  0.7073  0.7308
17348TIP3    H273536   3.929   4.041   3.855 -0.0327 -0.2258 -0.7106
17349TIP3   OH273537   2.947   2.891   1.268  0.0574 -0.5470  0.4991
17349TIP3    H173538   3.012   2.944   1.315  0.6524  1.8788 -2.7663
17349TIP3    H273539   2.866   2.903   1.317  1.1392 -0.3549  2.3656
17350TIP3   OH273540   1.549   0.005  12.767  0.5444  0.2947 -0.0836
17350TIP3    H173541   1.503  -0.048  12.702 -0.5349  0.4049  0.5800
17350TIP3    H273542   1.634  -0.039  12.777  0.9877  0.6137 -1.9915
17351TIP3   OH273543   6.741   1.799  11.828  0.6218 -0.3227  0.5510
17351TIP3    H173544   6.827   1.839  11.813  0.4357  0.1259  0.6530
17351TIP3    H273545   6.706   1.784  11.741  1.0499 -1.0611  0.4975
17352TIP3   OH273546   5.415   0.342  13.060 -0.4913 -0.2836 -0.2907
17352TIP3    H173547   5.343   0.378  13.008 -0.9534 -0.9078 -0.1028
17352TIP3    H273548   5.450   0.271  13.006  1.5925  1.5367 -1.4612
17353TIP3   OH273549   4.584   2.486  12.607  0.2365  0.3633 -0.1078
17353TIP3    H173550   4.516   2.519  12.549  0.6236  1.2777 -0.0561
17353TIP3    H273551   4.665   2.491  12.555  0.2759 -0.7159 -0.1712
17354TIP3   OH273552   0.908   3.148  15.203 -0.2538  0.5664 -0.6820
17354TIP3    H173553   0.995   3.159  15.242 -0.8263  0.2078  0.7900
17354TIP3    H273554   0.878   3.237  15.186 -0.4366  0.8376  0.8508
17355TIP3   OH273555   4.722   1.238  15.450 -0.4772  0.4014 -0.4246
17355TIP3    H173556   4.657   1.270  15.513 -1.4819  0.3864 -1.4197
17355TIP3    H273557   4.720   1.143  15.461  0.2694  0.4615  0.3759
17356TIP3   OH273558   5.173   1.510   4.435 -0.0524  0.5972 -0.2888
17356TIP3    H173559   5.203   1.596   4.463  2.0890 -0.3369  0.4709
17356TIP3    H273560   5.195   1.506   4.342  3.3676 -0.4402  0.4500
17357TIP3   OH273561   4.656   4.885  11.313 -0.1244 -0.5646  0.2839
17357TIP3    H173562   4.649   4.839  11.396  0.8175  2.2469  2.0356
17357TIP3    H273563   4.628   4.975  11.332 -0.3768  0.0767 -2.5717
17358TIP3   OH273564   1.723   3.817   5.663 -0.4792  0.2430  0.1564
17358TIP3    H173565   1.700   3.857   5.748  2.0384  0.9976  0.5638
17358TIP3    H273566   1.642   3.821   5.613 -1.7874  0.7295  2.1596
17359TIP3   OH273567   2.642   2.949   0.352 -0.1842  0.1177  0.2589
17359TIP3    H173568   2.655   2.952   0.447 -1.4574 -1.4875  0.5229
17359TIP3    H273569   2.558   2.992   0.337 -0.7312 -0.9998  0.0480
17360TIP3   OH273570   4.751   6.560  16.560  0.1164 -0.6547  0.3736
17360TIP3    H173571   4.833   6.538  16.604  0.6003 -0.4682 -0.4109
17360TIP3    H273572   4.777   6.584  16.471 -0.7323 -0.0726  0.2648
17361TIP3   OH273573   6.800   5.884   4.655  0.0325 -0.0694  0.3166
17361TIP3    H173574   6.752   5.904   4.575  2.5952  2.4526 -0.7539
17361TIP3    H273575   6.890   5.869   4.626  0.8178 -0.1604  2.6174
17362TIP3   OH273576   2.795   6.810   5.358 -0.0898 -0.2556  0.5891
17362TIP3    H173577   2.788   6.785   5.266  0.6884 -0.5790  0.6074
17362TIP3    H273578   2.753   6.739   5.406 -1.4987  0.4496  0.4391
17363TIP3   OH273579   0.668   4.283   5.648 -0.4558 -0.0818  0.1970
17363TIP3    H173580   0.708   4.366   5.621 -0.1558 -0.2285  0.1780
17363TIP3    H273581   0.672   4.228   5.570 -0.8375 -0.0473  0.1521
17364TIP3   OH273582   1.513   5.967   2.002 -0.0025  0.4558 -0.2193
17364TIP3    H173583   1.464   5.978   1.921  0.4858  0.0340 -0.5731
17364TIP3    H273584   1.475   6.032   2.061 -1.4814 -0.3375 -0.2454
17365TIP3   OH273585   0.700   3.823  10.329 -0.2337  0.3161  0.3480
17365TIP3    H173586   0.765   3.826  10.259  0.3725 -0.6327  0.8402
17365TIP3    H273587   0.732   3.755  10.388 -2.0064 -0.5925  0.3086
17366TIP3   OH273588   5.181   6.028   0.394  0.1636 -0.0390 -0.0881
17366TIP3    H173589   5.240   5.986   0.332  0.0921  0.8983 -0.8117
17366TIP3    H273590   5.227   6.107   0.421 -0.5544  0.4635 -0.3042
17367TIP3   OH273591   6.398   5.952  12.833  0.0975  0.1119 -0.3436
17367TIP3    H173592   6.409   5.986  12.922  1.7791 -1.7310  0.2273
17367TIP3    H273593   6.305   5.926  12.829 -0.3330  1.4511  0.3779
17368TIP3   OH273594   6.823   1.682   1.382  0.0850  0.3814 -0.1560
17368TIP3    H173595   6.829   1.679   1.287 -0.3752 -0.1554 -0.1714
17368TIP3    H273596   6.732   1.708   1.400 -0.4022 -1.3640  0.1374
17369TIP3   OH273597   2.164   4.992   4.214 -0.1467  0.4777  0.0084
17369TIP3    H173598   2.198   4.982   4.126  0.6427  1.1439  0.2273
17369TIP3    H273599   2.106   4.916   4.226 -0.2747  0.3892 -1.0711
17370TIP3   OH273600   1.889   3.022   2.784 -0.1382  0.1952  0.2219
17370TIP3    H173601   1.932   2.949   2.828  0.4322 -0.9698 -2.1135
17370TIP3    H273602   1.938   3.099   2.812  1.2937 -0.7030  0.2936
17371TIP3   OH273603   2.373   5.476   0.285  0.2175  0.2124  0.0379
17371TIP3    H173604   2.359   5.542   0.217  1.9498 -0.9363 -1.5569
17371TIP3    H273605   2.434   5.517   0.346  2.1839 -0.1932 -1.5480
17372TIP3   OH273606   2.020   2.813   1.229 -0.1185 -0.2546 -0.3933
17372TIP3    H173607   1.952   2.875   1.255 -1.7287 -0.2077 -4.1659
17372TIP3    H273608   2.101   2.864   1.235 -0.9839  1.1794 -0.2438
17373TIP3   OH273609   0.478   6.177  16.947 -0.1814  0.0274  0.6219
17373TIP3    H173610   0.493   6.262  16.987  2.3292 -1.1478  2.4920
17373TIP3    H273611   0.562   6.155  16.907 -0.2453 -2.2228  1.5904
17374TIP3   OH273612   4.809   0.842  14.432 -0.5605  0.2041  0.0318
17374TIP3    H173613   4.789   0.933  14.412 -2.3607 -0.2729 -0.5174
17374TIP3    H273614   4.895   0.845  14.474 -1.5543  2.4025  2.1337
17375TIP3   OH273615   3.831   3.920   5.524 -0.3024  0.1134  0.1357
17375TIP3    H173616   3.759   3.868   5.559 -0.0909  0.0082  0.4148
17375TIP3    H273617   3.910   3.880   5.560 -0.0923  0.1168 -0.3128
17376TIP3   OH273618   3.268   0.674   1.239 -0.3972 -0.3817 -0.2517
17376TIP3    H173619   3.310   0.640   1.160 -1.3910 -3.5895  0.4507
17376TIP3    H273620   3.178   0.692   1.212 -0.6145 -1.0349  0.0251
17377TIP3   OH273621   4.403   2.505  11.763 -0.4266  0.3472  0.1504
17377TIP3    H173622   4.455   2.585  11.775 -0.9246  0.4766  1.7523
17377TIP3    H273623   4.467   2.434  11.770 -0.0072  0.5729 -1.1130
17378TIP3   OH273624   0.190   0.300  12.313 -0.1564 -0.5142  0.2403
17378TIP3    H173625   0.146   0.345  12.241  0.0971  0.4267  0.6496
17378TIP3    H273626   0.223   0.371  12.369  0.1048 -1.2183  1.0054
17379TIP3   OH273627   2.712   0.676   4.299 -0.1894 -0.1595 -0.0605
17379TIP3    H173628   2.672   0.757   4.331  1.6875  0.3495  1.2083
17379TIP3    H273629   2.790   0.666   4.353  0.5162 -1.9454 -1.3273
17380TIP3   OH273630   6.547   0.353   5.778  0.4737  0.3887 -0.9562
17380TIP3    H173631   6.496   0.412   5.723  2.7983  0.5017 -3.1342
17380TIP3    H273632   6.514   0.370   5.867 -0.0585  3.7825 -1.6587
17381TIP3   OH273633   2.715   4.326  16.378 -0.2905  0.1025  0.0553
17381TIP3    H173634   2.665   4.403  16.349  0.4226  1.0178  1.1393
17381TIP3    H273635   2.676   4.303  16.462  0.7249  0.4883  0.6500
17382TIP3   OH273636   0.890   5.854   6.487  0.7192  0.0440  0.2090
17382TIP3    H173637   0.824   5.829   6.422 -0.0893  0.1726  0.9624
17382TIP3    H273638   0.881   5.788   6.555  1.0652  0.3290  0.5308
17383TIP3   OH273639   3.816   6.428   1.625 -0.4138  0.5290 -0.1499
17383TIP3    H173640   3.766   6.443   1.705 -0.1508  1.2162 -0.1034
17383TIP3    H273641   3.811   6.334   1.610  1.0221  0.1135  1.6615
17384TIP3   OH273642   4.457   4.585   4.934  0.2777  0.0331  0.1370
17384TIP3    H173643   4.505   4.662   4.966 -0.8943  1.1044 -0.5707
17384TIP3    H273644   4.414   4.550   5.012 -0.8822  1.3797  0.1476
17385TIP3   OH273645   6.375   6.779   3.688  0.3483 -0.0164  0.2310
17385TIP3    H173646   6.413   6.867   3.682  0.5627 -0.0242  1.2601
17385TIP3    H273647   6.315   6.784   3.762  0.9691 -0.9503  0.8160
17386TIP3   OH273648   1.976   6.228  11.652 -0.6541  0.2657 -0.6379
17386TIP3    H173649   2.010   6.265  11.570 -0.3299 -0.3971 -0.8115
17386TIP3    H273650   1.937   6.145  11.626 -0.5762  0.0648 -0.1203
17387TIP3   OH273651   0.434   5.872   6.054 -0.0742 -0.0256  0.3048
17387TIP3    H173652   0.421   5.818   6.131  1.8231 -1.2737 -0.1775
17387TIP3    H273653   0.346   5.882   6.016 -0.9535  0.1900  2.2962
17388TIP3   OH273654   6.823   3.250  12.018 -0.3185  0.3699 -0.0304
17388TIP3    H173655   6.759   3.238  11.947 -0.2782  1.5172 -0.2734
17388TIP3    H273656   6.904   3.273  11.973 -0.0620  0.2000  0.3455
17389TIP3   OH273657   1.463   5.836   0.493  0.2460  0.2823 -0.2646
17389TIP3    H173658   1.378   5.815   0.456  0.8347 -1.6742 -0.6254
17389TIP3    H273659   1.450   5.832   0.588  0.1413 -1.1018 -0.3165
17390TIP3   OH273660   4.993   5.948  12.928 -0.3024 -0.4477  0.3956
17390TIP3    H173661   4.971   6.041  12.927 -0.0489 -0.2722  3.3099
17390TIP3    H273662   4.910   5.903  12.943 -0.0709 -0.4728  1.6814
17391TIP3   OH273663   2.826   3.895  15.359 -0.1139 -0.0916  0.0535
17391TIP3    H173664   2.856   3.894  15.450  1.0185 -0.7142 -0.3116
17391TIP3    H273665   2.732   3.875  15.365 -0.3135  0.9879  1.1492
17392TIP3   OH273666   2.855   2.775   4.488  0.1846  0.3698  0.5257
17392TIP3    H173667   2.859   2.780   4.392  0.9071  1.1318  0.5870
17392TIP3    H273668   2.913   2.703   4.511 -0.1186  0.0787  0.3818
17393TIP3   OH273669   5.801   0.926   0.369  0.0995 -0.1107 -0.4022
17393TIP3    H173670   5.836   1.007   0.407 -0.7141 -0.2278  0.6390
17393TIP3    H273671   5.826   0.858   0.432 -0.5256 -0.4353 -0.4995
17394TIP3   OH273672   5.160   1.712   1.394 -0.1164 -0.1430 -0.2358
17394TIP3    H173673   5.210   1.791   1.413  0.6414 -0.1010 -2.1518
17394TIP3    H273674   5.110   1.694   1.474  0.5955  1.5896  0.6299
17395TIP3   OH273675   1.309   1.366  11.582 -0.3910 -0.9064  0.2583
17395TIP3    H173676   1.264   1.428  11.525  0.8256  1.6084  1.8130
17395TIP3    H273677   1.238   1.323  11.630 -1.3050 -1.1723 -1.2622
17396TIP3   OH273678   5.876   1.676  12.558 -0.2768  0.0498 -0.4554
17396TIP3    H173679   5.967   1.673  12.530 -0.0751  1.1951  0.0380
17396TIP3    H273680   5.873   1.625  12.639  0.0689  0.5983 -0.0959
17397TIP3   OH273681   4.119   5.085  14.440  0.3180 -0.5160 -0.2338
17397TIP3    H173682   4.038   5.087  14.491 -0.1629 -1.5291 -0.9297
17397TIP3    H273683   4.189   5.095  14.504 -0.3651  1.4940  0.2815
17398TIP3   OH273684   1.656   2.582  11.868  0.0146  0.3361  0.2480
17398TIP3    H173685   1.634   2.575  11.960 -0.3480  0.8456  0.2026
17398TIP3    H273686   1.698   2.498  11.847  1.3010  0.7116  1.1932
17399TIP3   OH273687   4.272   1.512   1.088  0.6889  0.5198  0.2196
17399TIP3    H173688   4.283   1.607   1.078 -1.2977  0.8942  1.2298
17399TIP3    H273689   4.270   1.498   1.182 -0.2547 -0.3676  0.0760
17400TIP3   OH273690   3.623   5.197   1.807 -0.5275  0.2815 -0.1031
17400TIP3    H173691   3.529   5.179   1.815 -0.7915  1.4618 -0.3878
17400TIP3    H273692   3.635   5.214   1.713 -0.1210  0.6163  0.0095
17401TIP3   OH273693   2.927   0.761  14.999  0.0131 -0.3084 -0.1127
17401TIP3    H173694   3.014   0.762  14.960  0.3503  0.6674  0.6220
17401TIP3    H273695   2.941   0.789  15.089 -0.9639 -0.9096  0.2360
17402TIP3   OH273696   2.954   1.585  14.723 -0.1847 -0.2377  0.3143
17402TIP3    H173697   2.936   1.661  14.667  1.4574 -1.3061 -1.7819
17402TIP3    H273698   2.885   1.588  14.789 -1.0550  2.2210 -0.5726
17403TIP3   OH273699   3.769   5.360  13.793 -0.1248  0.1304 -0.0928
17403TIP3    H173700   3.771   5.326  13.883 -3.0523 -0.3896 -0.1284
17403TIP3    H273701   3.795   5.285  13.739 -1.3000 -0.5155  0.1878
17404TIP3   OH273702   4.234   3.937   2.819 -0.1319 -0.5102 -0.0499
17404TIP3    H173703   4.187   3.997   2.876  0.1457 -0.9561  0.6599
17404TIP3    H273704   4.165   3.895   2.767 -0.3383  0.2736 -0.4091
17405TIP3   OH273705   4.049   1.939   5.203 -0.0589 -0.0282  0.3249
17405TIP3    H173706   4.023   1.956   5.294  1.8000 -0.3370  0.9681
17405TIP3    H273707   4.015   1.852   5.184  0.6967 -0.5452  1.2344
17406TIP3   OH273708   2.934   6.301   4.698 -0.3652 -0.1100 -0.7396
17406TIP3    H173709   2.908   6.300   4.606 -0.8281 -0.5226 -0.6132
17406TIP3    H273710   2.853   6.322   4.745 -0.5318 -1.5973 -0.3190
17407TIP3   OH273711   2.794   1.249   6.571 -0.7372 -0.2456  0.2250
17407TIP3    H173712   2.816   1.336   6.603 -1.8075 -0.0031  0.3336
17407TIP3    H273713   2.876   1.200   6.577 -0.0382  0.8399 -0.1477
17408TIP3   OH273714   3.467   6.620  13.394 -0.0246  0.1496  0.1510
17408TIP3    H173715   3.396   6.647  13.335 -0.5539 -0.4712  0.4915
17408TIP3    H273716   3.422   6.576  13.466  0.8581 -2.4748 -0.8247
17409TIP3   OH273717   2.187   2.588   4.472 -0.3771  0.0759 -0.1084
17409TIP3    H173718   2.139   2.555   4.548 -0.2031 -2.2649 -0.9343
17409TIP3    H273719   2.273   2.612   4.506 -1.7383  3.6862  1.2644
17410TIP3   OH273720   4.140   5.004   3.907  0.3124  0.1869 -0.2017
17410TIP3    H173721   4.188   5.075   3.951 -1.6615  1.8051 -0.4783
17410TIP3    H273722   4.088   5.049   3.841 -0.5525 -1.6325 -0.8097
17411TIP3   OH273723   5.292   4.372   4.092 -0.1268 -0.5782 -1.0037
17411TIP3    H173724   5.210   4.325   4.077 -1.1428  1.0298 -0.6527
17411TIP3    H273725   5.286   4.403   4.182  1.3657 -1.3493 -0.6048
17412TIP3   OH273726   4.721   5.833   2.768 -0.5103  0.2263 -0.0501
17412TIP3    H173727   4.813   5.850   2.785 -0.6567  0.2013  0.7888
17412TIP3    H273728   4.710   5.739   2.780 -0.1083 -0.2655 -2.7926
17413TIP3   OH273729   5.388   5.256   0.300 -0.4764  0.0738 -0.5244
17413TIP3    H173730   5.404   5.349   0.312  0.1616 -0.2622  1.7728
17413TIP3    H273731   5.380   5.221   0.389 -0.8527 -2.0462 -1.3173
17414TIP3   OH273732   6.587   3.627   3.685 -0.0673  0.0501 -0.3228
17414TIP3    H173733   6.560   3.687   3.755  0.8532  1.1069 -0.8513
17414TIP3    H273734   6.664   3.583   3.720 -0.1867 -0.1466 -0.3044
17415TIP3   OH273735   4.981   4.099  17.064  0.0587 -0.4603 -0.1136
17415TIP3    H173736   4.946   4.169  17.119  0.5108  0.7934 -1.3308
17415TIP3    H273737   4.906   4.068  17.014 -0.2234 -1.1520  0.7162
17416TIP3   OH273738   4.672   2.308  10.403 -0.1561 -0.2715  0.0889
17416TIP3    H173739   4.692   2.401  10.397  0.1013 -0.3943 -1.2457
17416TIP3    H273740   4.596   2.296  10.346  0.4283 -1.0391 -0.5556
17417TIP3   OH273741   5.612   3.908  11.173  0.1276  0.2954  0.6552
17417TIP3    H173742   5.622   3.978  11.237  0.0259  0.3667  0.5933
17417TIP3    H273743   5.690   3.854  11.184 -0.1758 -0.0303  1.2590
17418TIP3   OH273744   4.468   0.590   2.228  0.0549  0.3250  0.3411
17418TIP3    H173745   4.549   0.638   2.246 -0.3113  1.1492 -0.1427
17418TIP3    H273746   4.406   0.657   2.199 -0.1977 -0.5497 -1.2712
17419TIP3   OH273747   0.929   2.316  12.902 -0.1748  0.4938  0.5488
17419TIP3    H173748   0.898   2.263  12.976 -0.0681  0.0135  0.2531
17419TIP3    H273749   1.020   2.291  12.891 -0.2226  0.4752  0.1814
17420TIP3   OH273750   1.608   2.423   1.966 -0.3271 -0.6234  0.7107
17420TIP3    H173751   1.558   2.503   1.953  0.5878 -0.0062  0.8948
17420TIP3    H273752   1.661   2.440   2.043 -0.9893 -1.8613  1.4763
17421TIP3   OH273753   5.628   2.007   3.580  0.8440  0.4911  0.0606
17421TIP3    H173754   5.575   1.928   3.594  1.3851 -0.2258 -1.6262
17421TIP3    H273755   5.709   1.990   3.628  1.5505 -0.6678 -1.4680
17422TIP3   OH273756   5.231   1.029  11.414 -0.4746 -0.1166 -0.0538
17422TIP3    H173757   5.295   1.005  11.481  2.0831  0.2793 -2.1617
17422TIP3    H273758   5.229   1.125  11.417  1.0733  0.0195 -1.6339
17423TIP3   OH273759   1.805   0.540  12.120  0.0824 -0.1352 -0.0964
17423TIP3    H173760   1.725   0.547  12.067 -0.9341 -1.6248  1.1423
17423TIP3    H273761   1.871   0.505  12.061 -0.7851 -0.9245 -0.6232
17424TIP3   OH273762   0.757   0.284  16.033  0.3443 -0.0929  0.4754
17424TIP3    H173763   0.721   0.195  16.030 -1.3253  0.4952  1.7302
17424TIP3    H273764   0.705   0.333  15.969  1.8210 -0.1513 -0.8455
17425TIP3   OH273765   1.292   4.647   5.288  0.5515 -0.6083 -0.4724
17425TIP3    H173766   1.198   4.641   5.271  0.2989 -1.0598  0.9107
17425TIP3    H273767   1.326   4.706   5.221 -0.9697  0.7096 -0.1348
17426TIP3   OH273768   3.435   3.013   4.277  0.5627 -0.1315 -0.2794
17426TIP3    H173769   3.437   2.980   4.187 -0.6615  0.2041 -0.4400
17426TIP3    H273770   3.453   2.936   4.332 -0.3083 -0.6706 -0.7354
17427TIP3   OH273771   6.020   2.204   1.247 -0.1787  0.0266  0.2213
17427TIP3    H173772   6.049   2.146   1.176  1.8521  1.1882  0.0339
17427TIP3    H273773   6.051   2.161   1.327 -1.6272 -0.7957  0.3727
17428TIP3   OH273774   3.869   1.662   5.697 -0.2201  0.0025 -0.0153
17428TIP3    H173775   3.796   1.616   5.655 -1.2582  2.5348 -1.2659
17428TIP3    H273776   3.844   1.667   5.790 -2.6831  2.2824 -0.6441
17429TIP3   OH273777   5.479   3.220   1.748  0.2926 -0.0160  0.1438
17429TIP3    H173778   5.504   3.131   1.773  0.4378  0.1753  0.6956
17429TIP3    H273779   5.385   3.224   1.767  0.3055 -0.0207  0.2085
17430TIP3   OH273780   5.667   5.042  16.453 -0.3924  0.4142  0.1568
17430TIP3    H173781   5.619   5.062  16.373 -2.1190 -0.5645  0.8931
17430TIP3    H273782   5.713   4.960  16.433 -2.1817 -0.7696  0.6475
17431TIP3   OH273783   2.997   3.836  10.842  0.4440 -0.1879  0.6906
17431TIP3    H173784   3.088   3.843  10.812  0.2122 -0.3526 -0.0752
17431TIP3    H273785   2.949   3.900  10.789  0.0608 -0.3206  0.8717
17432TIP3   OH273786   6.531   4.291   2.831  0.3130 -0.4353 -0.6895
17432TIP3    H173787   6.437   4.280   2.817 -0.5957  2.6158  1.8083
17432TIP3    H273788   6.551   4.375   2.791  2.4061 -1.6739 -2.4410
17433TIP3   OH273789   0.290   5.133  11.949 -0.6128 -0.2961 -0.1050
17433TIP3    H173790   0.265   5.083  11.872 -2.0485  3.3499 -2.2431
17433TIP3    H273791   0.379   5.163  11.930 -0.1124 -1.2002  0.7341
17434TIP3   OH273792   6.000   5.613   1.378 -0.9171 -0.2987 -0.2970
17434TIP3    H173793   6.014   5.685   1.440  0.4914  0.0264 -0.9326
17434TIP3    H273794   6.035   5.536   1.423  1.0764  0.1214 -1.0305
17435TIP3   OH273795   6.730   0.289   2.353  0.1229 -0.0795  0.9818
17435TIP3    H173796   6.794   0.319   2.418  0.6376 -0.0074  0.4491
17435TIP3    H273797   6.707   0.200   2.381  1.4037 -0.5896  0.4921
17436TIP3   OH273798   5.681   3.422  15.024 -0.3529  0.1762 -0.1323
17436TIP3    H173799   5.624   3.497  15.041  1.8998  1.6557  1.3018
17436TIP3    H273800   5.684   3.375  15.107 -3.0177 -2.6016 -1.3958
17437TIP3   OH273801   1.608   1.790   5.800 -0.0221 -0.1748  0.8238
17437TIP3    H173802   1.516   1.795   5.823  0.1408  1.9983  1.1672
17437TIP3    H273803   1.650   1.860   5.850  1.7380 -0.7614  0.2720
17438TIP3   OH273804   4.506   6.593  15.637  0.2984 -0.0203  0.3813
17438TIP3    H173805   4.469   6.638  15.713  0.8879  2.6669 -0.8226
17438TIP3    H273806   4.503   6.657  15.567  0.5821 -2.1310 -1.6828
17439TIP3   OH273807   6.408   6.614  14.358 -0.2333 -0.1723 -0.5352
17439TIP3    H173808   6.494   6.639  14.325 -0.5670  1.7389 -0.0883
17439TIP3    H273809   6.425   6.538  14.414  0.9382 -0.6959 -1.5655
17440TIP3   OH273810   2.496   6.186   1.715  0.5323  0.5236  0.0294
17440TIP3    H173811   2.540   6.199   1.630 -0.9769  1.2815 -0.6836
17440TIP3    H273812   2.557   6.134   1.766  1.9734  0.9999 -1.1337
17441TIP3   OH273813   6.514   6.502  10.531 -0.4199  0.3708  0.1399
17441TIP3    H173814   6.581   6.459  10.584 -0.1204  0.7211  0.0520
17441TIP3    H273815   6.453   6.432  10.506  0.9838 -0.3568 -1.4583
17442TIP3   OH273816   5.473   4.095  13.434 -0.0161 -0.5678 -0.1868
17442TIP3    H173817   5.450   4.070  13.524  0.7011 -0.9922 -0.1111
17442TIP3    H273818   5.490   4.012  13.390  0.2998 -0.3289 -0.5248
17443TIP3   OH273819   1.764   6.187   6.118  0.2685  0.0202  0.2319
17443TIP3    H173820   1.793   6.136   6.193 -0.7638  0.5934  1.0391
17443TIP3    H273821   1.679   6.149   6.094 -0.6800  1.5395  1.0587
17444TIP3   OH273822   6.432   3.184   4.158 -0.1402 -0.4569 -0.1103
17444TIP3    H173823   6.438   3.188   4.254 -0.6894 -0.0509 -0.0874
17444TIP3    H273824   6.509   3.231   4.127 -0.5945  0.4723  0.1417
17445TIP3   OH273825   5.148   0.388   0.347  0.3374  0.4042  0.2205
17445TIP3    H173826   5.120   0.477   0.370 -0.9169 -0.1531  0.9585
17445TIP3    H273827   5.068   0.345   0.315  0.7007 -0.7429  0.7902
17446TIP3   OH273828   1.900   3.812  14.079 -0.0173  0.2632  0.5843
17446TIP3    H173829   1.986   3.806  14.122 -0.6319  2.3248  2.2682
17446TIP3    H273830   1.921   3.832  13.987  1.3133  1.1335  1.0422
17447TIP3   OH273831   4.094   1.061  15.101 -0.1696  0.2186  0.5250
17447TIP3    H173832   4.161   1.028  15.041  0.3885 -0.3081  1.4078
17447TIP3    H273833   4.122   1.151  15.120 -2.0230  1.5615 -2.3627
17448TIP3   OH273834   0.775   0.481  14.402 -0.6823  0.1443  0.2171
17448TIP3    H173835   0.803   0.392  14.379  0.3348  0.0347  1.7339
17448TIP3    H273836   0.855   0.532  14.403 -1.2221  1.0271 -0.2928
17449TIP3   OH273837   2.741   4.769   3.226 -0.2934 -0.4104  0.0605
17449TIP3    H173838   2.793   4.799   3.300  0.5238  0.3832 -0.8151
17449TIP3    H273839   2.767   4.677   3.213 -0.2100 -0.4552  0.5488
17450TIP3   OH273840   1.224   0.526  12.789 -0.1979  0.0962 -0.1511
17450TIP3    H173841   1.227   0.571  12.873  2.8014  0.5794 -0.4063
17450TIP3    H273842   1.257   0.438  12.807  0.3306  0.1557 -0.7787
17451TIP3   OH273843   2.048   6.151   5.276  0.7424 -0.1044 -0.0583
17451TIP3    H173844   2.053   6.225   5.336 -1.1737  0.0286  0.0144
17451TIP3    H273845   1.985   6.091   5.316  1.8124 -1.5276 -0.4054
17452TIP3   OH273846   5.264   6.672  17.143 -0.4313  0.5813 -0.1124
17452TIP3    H173847   5.226   6.698  17.227 -1.5685 -1.6098  0.1394
17452TIP3    H273848   5.238   6.580  17.133  2.1821 -0.1007 -1.4697
17453TIP3   OH273849   6.433   3.104  11.739  0.5132  0.0729 -0.0755
17453TIP3    H173850   6.437   3.012  11.710 -0.3075 -0.2710  0.8372
17453TIP3    H273851   6.524   3.131  11.745  0.7868 -0.8705  0.1976
17454TIP3   OH273852   6.819   2.536  14.340 -0.0264 -0.2901  0.4255
17454TIP3    H173853   6.817   2.451  14.295  1.0997  0.3082 -0.8308
17454TIP3    H273854   6.871   2.520  14.418  2.2956 -0.2698 -1.0192
17455TIP3   OH273855   5.994   5.659   4.472 -0.5471  0.1469  0.2353
17455TIP3    H173856   5.961   5.600   4.405  0.2129 -0.5265  0.4292
17455TIP3    H273857   5.916   5.696   4.514 -1.0465  1.3766 -1.6758
17456TIP3   OH273858   3.265   3.939  13.604  0.5654  0.0407  0.1556
17456TIP3    H173859   3.263   3.874  13.533  0.3520 -0.1948  0.3768
17456TIP3    H273860   3.248   3.888  13.683  2.3947  0.0201  0.5985
17457TIP3   OH273861   1.725   2.585  16.566 -0.1278 -0.3422 -0.2948
17457TIP3    H173862   1.794   2.532  16.527 -0.9914 -0.5586 -1.5953
17457TIP3    H273863   1.650   2.526  16.572  0.2228 -0.6260  2.6877
17458TIP3   OH273864   2.177   1.698  13.266  0.2395 -0.4266 -0.2435
17458TIP3    H173865   2.168   1.639  13.341 -0.1484 -1.1100 -0.8174
17458TIP3    H273866   2.087   1.711  13.235 -0.1556  3.0809  1.8176
17459TIP3   OH273867   4.925   0.492  12.971  0.2554 -0.6563  0.4500
17459TIP3    H173868   4.950   0.575  13.012  2.6585 -0.7114 -0.7113
17459TIP3    H273869   4.989   0.429  13.004 -0.5822 -1.7201  0.1014
17460TIP3   OH273870   4.984   3.987   5.757  0.5270  0.1372  0.3388
17460TIP3    H173871   5.014   4.076   5.771 -0.1398  0.3110  0.6965
17460TIP3    H273872   4.894   3.986   5.791 -0.2940 -0.0698 -1.6907
17461TIP3   OH273873   5.166   1.854   6.305 -0.3739  0.3220  0.2184
17461TIP3    H173874   5.118   1.831   6.384 -2.7936  2.4106 -0.4888
17461TIP3    H273875   5.212   1.935   6.328  1.2700 -0.6112  0.2977
17462TIP3   OH273876   0.122   6.576   6.684 -0.1703 -0.0593  0.2933
17462TIP3    H173877   0.200   6.631   6.676  0.4536 -1.1126 -1.4025
17462TIP3    H273878   0.050   6.631   6.653  0.6766 -0.6155 -2.9230
17463TIP3   OH273879   2.491   0.673   3.199 -0.0805 -0.1465  0.5004
17463TIP3    H173880   2.463   0.761   3.174 -2.3433 -0.9192  0.1080
17463TIP3    H273881   2.571   0.659   3.149  0.6778  1.8841  1.0338
17464TIP3   OH273882   4.614   4.222  12.973  0.8479  0.0679 -1.2102
17464TIP3    H173883   4.544   4.182  12.922  0.5570  1.0665 -1.6363
17464TIP3    H273884   4.572   4.248  13.055  1.0286 -0.4615 -0.9463
17465TIP3   OH273885   6.016   5.889   5.339 -0.2030  0.3772 -0.1912
17465TIP3    H173886   6.095   5.890   5.284  0.1262 -1.4213  0.1891
17465TIP3    H273887   5.976   5.804   5.321 -1.7700  1.0415  0.0533
17466TIP3   OH273888   0.821   3.701   0.445  0.0530  0.0909 -0.1019
17466TIP3    H173889   0.873   3.766   0.492 -0.4865 -0.6069  1.5371
17466TIP3    H273890   0.881   3.628   0.431  0.1800  0.2477 -0.3732
17467TIP3   OH273891   4.246   0.348  13.393 -0.1893  0.1326  0.3408
17467TIP3    H173892   4.247   0.290  13.470  0.7936  0.2897  0.4584
17467TIP3    H273893   4.325   0.323  13.344 -0.2957  0.6952 -0.1174
17468TIP3   OH273894   6.234   6.048  16.239 -0.4369 -0.2676  0.3362
17468TIP3    H173895   6.256   6.140  16.253 -1.0771 -0.2581  1.4451
17468TIP3    H273896   6.316   6.001  16.256 -0.4366  0.0074  1.1577
17469TIP3   OH273897   3.826   6.248  11.658 -0.0818  0.0176  0.0404
17469TIP3    H173898   3.789   6.302  11.728  1.6855 -0.4305  1.3607
17469TIP3    H273899   3.921   6.258  11.667  0.2085 -0.4830 -1.9713
17470TIP3   OH273900   2.447   1.862   4.304  0.3546  0.1587  0.1195
17470TIP3    H173901   2.373   1.909   4.265  0.1603  0.2373  0.5848
17470TIP3    H273902   2.521   1.923   4.295  0.2419  0.3018  0.1493
17471TIP3   OH273903   2.843   3.178   0.314  0.1424 -0.4655  0.0404
17471TIP3    H173904   2.851   3.097   0.364  0.0473 -0.3612  0.2244
17471TIP3    H273905   2.761   3.169   0.267  0.1081 -0.4553  0.0980
17472TIP3   OH273906   6.196   1.827   2.763 -0.0205 -0.4207 -0.0403
17472TIP3    H173907   6.282   1.786   2.765  0.6494  0.9176  0.1058
17472TIP3    H273908   6.141   1.765   2.715  0.9283 -1.4585  0.1724
17473TIP3   OH273909   5.090   6.169   3.854  0.7931  0.0141 -0.1213
17473TIP3    H173910   5.137   6.232   3.800  1.7810 -0.9411 -0.3922
17473TIP3    H273911   5.139   6.166   3.936  0.7839 -0.4368 -0.1305
17474TIP3   OH273912   1.306   4.552  15.483 -0.1238  1.3366  0.3093
17474TIP3    H173913   1.355   4.480  15.444  1.2129  1.7757  1.1078
17474TIP3    H273914   1.224   4.555  15.433  1.1699  1.4023 -1.9751
17475TIP3   OH273915   5.257   5.778  12.484  0.6683  0.5288  0.5560
17475TIP3    H173916   5.308   5.802  12.407 -0.1075  0.9644  0.1753
17475TIP3    H273917   5.303   5.820  12.557  1.2818  0.2889  0.3216
17476TIP3   OH273918   4.147   2.881  12.560  0.0610  0.3828 -0.0883
17476TIP3    H173919   4.109   2.877  12.648  0.0342 -2.4104 -0.1432
17476TIP3    H273920   4.072   2.869  12.501  0.4486 -0.9841 -0.3364
17477TIP3   OH273921   0.934   2.321   0.320 -0.5194  0.0906 -0.3996
17477TIP3    H173922   0.879   2.251   0.355 -1.9521  1.4333  0.1641
17477TIP3    H273923   0.879   2.365   0.256  0.5211  0.4417 -1.0864
17478TIP3   OH273924   3.829   1.310   2.878 -0.0463  0.0518 -0.4496
17478TIP3    H173925   3.746   1.320   2.925 -0.7936 -1.2740 -1.4058
17478TIP3    H273926   3.894   1.295   2.946 -0.7306  0.3187  0.2734
17479TIP3   OH273927   4.037   4.391   1.348  0.2281 -0.1341 -0.3690
17479TIP3    H173928   4.110   4.451   1.339 -0.6437  1.0963  0.4350
17479TIP3    H273929   4.018   4.362   1.258  0.2580  1.3010 -0.8585
17480TIP3   OH273930   5.747   5.803  15.463 -0.5052 -0.2853 -0.3485
17480TIP3    H173931   5.664   5.836  15.427  0.8393  1.2576 -2.2394
17480TIP3    H273932   5.795   5.882  15.489  0.2474 -1.1755  1.0704
17481TIP3   OH273933   5.342   2.774  12.754  0.5597 -0.0080 -0.2381
17481TIP3    H173934   5.293   2.813  12.682  1.0489  0.5311 -0.2854
17481TIP3    H273935   5.278   2.765  12.825  0.2773  0.2440 -0.4613
17482TIP3   OH273936   5.480   4.701   2.515 -0.4686 -0.1505  0.4111
17482TIP3    H173937   5.519   4.729   2.598 -0.8423  1.4080  0.0937
17482TIP3    H273938   5.522   4.755   2.449 -0.3933 -1.1683 -0.3941
17483TIP3   OH273939   4.619   3.083  14.359 -0.4304 -0.2394 -0.0654
17483TIP3    H173940   4.714   3.078  14.342 -0.0111  0.6975  1.7409
17483TIP3    H273941   4.583   3.005  14.315  1.3904 -1.4817  0.5110
17484TIP3   OH273942   3.237   3.647   4.011  0.3719  0.1016 -0.1554
17484TIP3    H173943   3.177   3.719   3.990  0.6065  0.7605  1.2686
17484TIP3    H273944   3.259   3.609   3.926 -0.3398  1.2470 -0.8934
17485TIP3   OH273945   0.768   0.329  16.670 -0.6260 -0.2573 -0.5039
17485TIP3    H173946   0.720   0.411  16.684 -0.2330 -0.4131  2.3572
17485TIP3    H273947   0.858   0.356  16.652 -0.2292 -0.0139  1.6501
17486TIP3   OH273948   5.122   0.150   1.230 -0.1654  0.1219  0.4778
17486TIP3    H173949   5.094   0.234   1.267 -1.9150 -0.5428  0.7900
17486TIP3    H273950   5.048   0.123   1.175 -0.4733 -2.0602  1.8368
17487TIP3   OH273951   6.072   5.336   2.945  0.3223  0.3028 -0.4402
17487TIP3    H173952   6.016   5.327   3.022  1.1401 -0.9709  0.0439
17487TIP3    H273953   6.011   5.337   2.871 -0.4405  0.9310  0.1851
17488TIP3   OH273954   2.212   3.911  14.720 -0.1215  0.1164  0.3795
17488TIP3    H173955   2.205   3.909  14.625  0.6321 -0.9641  0.3312
17488TIP3    H273956   2.252   3.827  14.743  0.1893  0.5789  1.6057
17489TIP3   OH273957   1.753   3.289   2.601 -0.2865  0.4276 -0.7657
17489TIP3    H173958   1.679   3.230   2.613  1.5407 -1.5545  1.7751
17489TIP3    H273959   1.770   3.287   2.507 -2.0464 -0.7954 -1.1092
17490TIP3   OH273960   4.703   1.170  14.939 -0.1412  0.2064 -1.2779
17490TIP3    H173961   4.695   1.108  15.011  1.5166  1.2376 -0.1220
17490TIP3    H273962   4.614   1.202  14.925 -0.8162 -1.5004 -1.0709
17491TIP3   OH273963   5.621   6.263   4.127  0.2701 -0.4159  0.1175
17491TIP3    H173964   5.543   6.318   4.129 -0.1645 -0.8623 -2.2293
17491TIP3    H273965   5.587   6.175   4.115  1.0983 -0.8688  0.9624
17492TIP3   OH273966   4.736   4.598   3.309  0.1066  0.1043 -0.1844
17492TIP3    H173967   4.758   4.692   3.309  1.1111 -0.1122  0.5931
17492TIP3    H273968   4.659   4.592   3.253 -0.3183  1.4738  0.2077
17493TIP3   OH273969   6.667   6.007  16.741 -0.0608 -0.7522  0.3354
17493TIP3    H173970   6.578   5.999  16.709  0.2785 -0.2620 -0.8065
17493TIP3    H273971   6.721   6.009  16.662  0.8803 -0.1266  0.9650
17494TIP3   OH273972   0.365   1.751  13.807 -0.2969  0.0840  0.2871
17494TIP3    H173973   0.400   1.663  13.794  2.2041  1.0452 -0.1347
17494TIP3    H273974   0.383   1.797  13.725 -1.1918  1.1111  0.6405
17495TIP3   OH273975   6.393   1.033  12.676 -0.5672  0.0478  0.4768
17495TIP3    H173976   6.423   1.087  12.749  1.1190 -0.8431  0.4977
17495TIP3    H273977   6.407   0.943  12.706 -2.6455 -0.4304  0.1684
17496TIP3   OH273978   3.536   0.204   4.273 -0.0402 -0.2065 -0.1079
17496TIP3    H173979   3.443   0.203   4.247 -0.0780  0.8824 -0.0662
17496TIP3    H273980   3.579   0.145   4.210 -1.3933 -4.7001  2.6869
17497TIP3   OH273981   5.113   0.597  16.364  0.3999  0.3945 -0.6842
17497TIP3    H173982   5.118   0.615  16.270  0.1993 -0.3998 -0.8549
17497TIP3    H273983   5.077   0.509  16.370  0.8001  0.2724  0.1283
17498TIP3   OH273984   2.641   0.700   1.462  0.1778  0.0199 -0.1416
17498TIP3    H173985   2.679   0.631   1.517  0.9272  2.0538  2.0516
17498TIP3    H273986   2.715   0.732   1.410  0.9870  2.1427  2.1560
17499TIP3   OH273987   1.763   2.185   6.377  0.5002  0.0458 -0.6983
17499TIP3    H173988   1.727   2.271   6.357  0.4471  0.5739  1.4537
17499TIP3    H273989   1.819   2.199   6.453  0.3691 -1.8526 -0.1930
17500TIP3   OH273990   4.268   5.396   1.030  0.1069 -0.2268  0.6553
17500TIP3    H173991   4.327   5.447   0.975  0.9634 -1.5171  0.3220
17500TIP3    H273992   4.217   5.461   1.077  0.6344  0.9227 -0.2950
17501TIP3   OH273993   3.897   4.572   5.581  0.3300  0.8040  0.3849
17501TIP3    H173994   3.947   4.604   5.506  1.1034 -0.1532  0.4692
17501TIP3    H273995   3.899   4.644   5.644  0.0331  1.4551 -0.3441
17502TIP3   OH273996   3.425   3.145   2.888 -0.1728  0.0066 -0.2827
17502TIP3    H173997   3.383   3.059   2.880 -0.0312 -0.0965  0.0661
17502TIP3    H273998   3.467   3.159   2.804 -1.4968  0.4232 -0.8961
17503TIP3   OH273999   1.027   1.503  14.082  0.2663  0.1888  0.4550
17503TIP3    H174000   0.972   1.579  14.100 -1.2003 -0.6196 -0.3344
17503TIP3    H274001   1.078   1.528  14.005 -0.8615  0.0978 -0.3503
17504TIP3   OH274002   3.678   6.600   5.305 -0.0289  0.7247 -0.6337
17504TIP3    H174003   3.767   6.633   5.292  0.5858 -0.4728  0.2806
17504TIP3    H274004   3.683   6.509   5.276 -1.3695  1.0754 -2.0246
17505TIP3   OH274005   2.656   5.892   1.570 -0.1910  0.3371 -0.1301
17505TIP3    H174006   2.708   5.913   1.648 -0.4373  1.7667 -0.3344
17505TIP3    H274007   2.641   5.976   1.527  1.3345 -0.5587 -2.6429
17506TIP3   OH274008   6.596   6.789  12.119  0.0414 -0.4121 -0.5065
17506TIP3    H174009   6.506   6.810  12.145  0.3344  0.6354 -0.3014
17506TIP3    H274010   6.603   6.822  12.029  1.1592  2.5246  0.5351
17507TIP3   OH274011   6.177   2.614   5.994 -0.2134 -0.0877  0.7094
17507TIP3    H174012   6.188   2.573   5.908  1.0456  1.0420  0.2974
17507TIP3    H274013   6.200   2.546   6.057  0.0419 -0.5563  0.1130
17508TIP3   OH274014   1.801   4.619   2.696 -0.2688 -0.7251  0.3116
17508TIP3    H174015   1.805   4.707   2.659  0.6620 -0.8678  0.0359
17508TIP3    H274016   1.839   4.628   2.783 -0.6879 -0.7562  0.5011
17509TIP3   OH274017   6.095   0.963  17.082  0.4037  0.8242 -0.1811
17509TIP3    H174018   6.051   0.933  17.162 -1.3727 -0.2980 -1.5207
17509TIP3    H274019   6.076   0.897  17.017  3.3525  0.7642 -1.1573
17510TIP3   OH274020   4.356   4.018   1.203  0.2306 -0.0930  0.7977
17510TIP3    H174021   4.275   3.967   1.194  0.3407 -0.1901  0.2963
17510TIP3    H274022   4.421   3.968   1.153  0.2182  0.7959 -0.1437
17511TIP3   OH274023   5.505   0.060  13.407  0.2440  0.1764 -0.0986
17511TIP3    H174024   5.499   0.080  13.501 -2.2797 -2.5563  0.4582
17511TIP3    H274025   5.459   0.133  13.365 -1.3230 -0.0681  1.0875
17512TIP3   OH274026   6.506   2.934   5.344 -0.5368  0.2103  0.2549
17512TIP3    H174027   6.420   2.894   5.354 -0.6043  0.3054  0.0599
17512TIP3    H274028   6.494   3.024   5.375 -1.2793  1.1665 -2.4900
17513TIP3   OH274029   5.332   2.385  14.155 -0.5723  0.7221  0.6439
17513TIP3    H174030   5.324   2.292  14.134  0.7113  0.8725 -0.6718
17513TIP3    H274031   5.244   2.420  14.144 -0.9024 -0.1822  0.3497
17514TIP3   OH274032   5.602   1.548  14.995  0.2290 -0.1821 -0.3393
17514TIP3    H174033   5.519   1.584  14.962  0.1916  0.3577  0.3143
17514TIP3    H274034   5.670   1.596  14.948  0.1750  0.4650  0.2238
17515TIP3   OH274035   4.813   0.875  15.404  0.1121  0.2730  0.0961
17515TIP3    H174036   4.724   0.885  15.436 -1.2707 -2.0913 -2.5879
17515TIP3    H274037   4.818   0.785  15.374  3.0590  0.6669 -0.9223
17516TIP3   OH274038   1.400   0.678   3.968 -0.6451  0.0744 -0.1562
17516TIP3    H174039   1.456   0.680   4.045 -1.9717  0.8139  0.8232
17516TIP3    H274040   1.409   0.765   3.929 -1.8815  0.5648  0.6047
17517TIP3   OH274041   2.417   0.786  15.883 -0.9396 -0.6948  0.0427
17517TIP3    H174042   2.510   0.784  15.905 -0.5889 -0.1027 -1.2711
17517TIP3    H274043   2.395   0.695  15.861 -0.3748 -0.6465 -0.7546
17518TIP3   OH274044   3.554   2.264   4.127 -0.3155 -0.1010 -0.7686
17518TIP3    H174045   3.580   2.178   4.094 -0.9148  0.4045 -2.6837
17518TIP3    H274046   3.496   2.299   4.059  0.7172  2.2549 -0.5364
17519TIP3   OH274047   2.357   4.560  11.258  0.0570 -0.4503 -0.5754
17519TIP3    H174048   2.401   4.639  11.289 -0.5878 -0.7985  1.3793
17519TIP3    H274049   2.277   4.592  11.216 -0.0133 -0.0448 -0.1318
17520TIP3   OH274050   1.742   6.202  17.168  0.0188 -0.1547  0.4940
17520TIP3    H174051   1.762   6.136  17.101 -0.0684  0.7521 -0.4540
17520TIP3    H274052   1.813   6.192  17.232  1.0493  0.0552 -0.5723
17521TIP3   OH274053   5.573   2.573   3.796  0.3952  0.0077  0.9897
17521TIP3    H174054   5.506   2.527   3.744  3.1762 -1.3756 -1.6430
17521TIP3    H274055   5.578   2.660   3.757  0.0283  0.2005  1.3548
17522TIP3   OH274056   6.180   4.755   4.335 -0.7425  0.2591  0.9511
17522TIP3    H174057   6.099   4.720   4.298 -0.6849  0.1489  0.9280
17522TIP3    H274058   6.243   4.683   4.328  0.2229  1.2263 -1.7850
17523TIP3   OH274059   5.181   4.101   1.973 -0.1470  0.4309 -0.0410
17523TIP3    H174060   5.273   4.128   1.974 -0.2545  0.8414 -0.6719
17523TIP3    H274061   5.132   4.179   1.999 -0.6200  1.6685 -3.9465
17524TIP3   OH274062   5.520   5.340   3.538 -0.1960  0.0873  0.0315
17524TIP3    H174063   5.587   5.279   3.567 -0.4755 -0.0257  0.4615
17524TIP3    H274064   5.484   5.301   3.458  1.6164  1.1497 -1.3769
17525TIP3   OH274065   1.397   6.223   0.743 -0.2105  0.1027 -0.2074
17525TIP3    H174066   1.363   6.178   0.666 -1.2236 -1.4967  1.1040
17525TIP3    H274067   1.420   6.153   0.804 -0.8143  1.3192  1.4983
17526TIP3   OH274068   2.914   2.158   1.739 -0.0923 -0.5842  0.2133
17526TIP3    H174069   2.880   2.246   1.722  2.4360  0.5760  0.7421
17526TIP3    H274070   2.975   2.141   1.666  0.6123 -1.2475  0.9357
17527TIP3   OH274071   1.619   0.154   4.458  0.6299 -0.3691 -0.1987
17527TIP3    H174072   1.680   0.150   4.384  0.9173 -1.3444  0.0768
17527TIP3    H274073   1.674   0.176   4.533  0.5059 -0.4172 -0.0944
17528TIP3   OH274074   4.580   2.191   5.011 -0.3265 -0.3001  0.1133
17528TIP3    H174075   4.494   2.156   4.990 -0.1204 -1.7007  1.4274
17528TIP3    H274076   4.640   2.117   5.000  0.9907  0.9979 -2.2325
17529TIP3   OH274077   3.494   2.652  12.597  0.1434 -0.1708  0.4777
17529TIP3    H174078   3.413   2.603  12.613  1.0610 -2.0115 -0.1887
17529TIP3    H274079   3.491   2.672  12.504  1.9720 -3.3607 -0.4086
17530TIP3   OH274080   1.826   4.811  16.712  0.6814  0.4363 -0.0656
17530TIP3    H174081   1.795   4.864  16.638  1.1015  0.9626  0.1305
17530TIP3    H274082   1.877   4.741  16.672  1.1321  0.8720 -0.2673
17531TIP3   OH274083   0.511   0.429  12.187 -0.1359  0.2100 -0.0521
17531TIP3    H174084   0.595   0.428  12.140 -0.6704 -0.8100 -1.0251
17531TIP3    H274085   0.453   0.480  12.131  0.1489  2.0964  1.2699
17532TIP3   OH274086   0.111   2.296   1.657  0.1015 -0.3725 -0.0913
17532TIP3    H174087   0.134   2.232   1.725 -0.9939 -0.1656  0.5031
17532TIP3    H274088   0.078   2.243   1.584  1.5158 -0.6112 -0.5727
17533TIP3   OH274089   1.472   1.720   0.901  0.2796 -0.2440 -0.0666
17533TIP3    H174090   1.477   1.801   0.952  0.5917  0.0862 -0.6147
17533TIP3    H274091   1.458   1.651   0.966  1.3667  0.0893  0.5380
17534TIP3   OH274092   0.912   2.976  12.626  0.2053 -0.1270  0.2022
17534TIP3    H174093   0.845   2.908  12.635  0.1642 -0.1955 -0.5333
17534TIP3    H274094   0.989   2.929  12.595  1.1987 -0.3571  2.7714
17535TIP3   OH274095   3.523   5.097   0.696  0.0871  0.3080 -0.0685
17535TIP3    H174096   3.476   5.071   0.774  1.0442 -0.4089  0.2840
17535TIP3    H274097   3.475   5.057   0.624  0.6841 -1.2598  0.3575
17536TIP3   OH274098   3.995   3.793  16.522 -0.1293  0.0176  0.4708
17536TIP3    H174099   3.953   3.797  16.608  0.6334 -1.0355  0.9013
17536TIP3    H274100   4.085   3.769  16.540  0.7863  2.4455 -0.4202
17537TIP3   OH274101   2.549   4.274   5.087  0.4430 -1.0199  0.1616
17537TIP3    H174102   2.455   4.284   5.074  0.7672 -0.1551 -1.8662
17537TIP3    H274103   2.565   4.180   5.077  0.0746 -0.8986 -1.9632
17538TIP3   OH274104   2.856   4.840   5.024  0.0693 -0.3213 -0.1129
17538TIP3    H174105   2.877   4.912   5.083 -0.9460  1.0552 -1.3650
17538TIP3    H274106   2.767   4.814   5.047  0.6962 -1.7820  0.8640
17539TIP3   OH274107   1.219   1.604   5.462  0.2699  0.2078 -0.2594
17539TIP3    H174108   1.145   1.554   5.429  0.8486  0.0946 -1.4406
17539TIP3    H274109   1.225   1.680   5.403 -0.7633  1.8629  1.6507
17540TIP3   OH274110   2.521   6.518  12.975  0.1233 -0.0739 -0.4035
17540TIP3    H174111   2.522   6.423  12.992 -1.3000 -0.3965 -1.9378
17540TIP3    H274112   2.552   6.527  12.886 -0.0851  0.8851 -0.3877
17541TIP3   OH274113   2.894   5.764   1.328 -0.1828 -0.5536  0.3736
17541TIP3    H174114   2.907   5.794   1.238  0.3391  2.9664  1.4531
17541TIP3    H274115   2.803   5.736   1.330 -0.7406  0.9874 -0.8833
17542TIP3   OH274116   0.878   5.926   3.433  0.8227 -0.1560 -0.4857
17542TIP3    H174117   0.858   5.871   3.509  0.3957  0.2468 -0.2993
17542TIP3    H274118   0.906   5.865   3.366  0.8534 -0.5534 -0.1175
17543TIP3   OH274119   0.208   5.051  13.978 -0.0595 -0.0293  0.5197
17543TIP3    H174120   0.137   5.079  14.036 -0.6805  0.1071 -0.2996
17543TIP3    H274121   0.212   4.956  13.989 -0.3753 -0.0381  0.5538
17544TIP3   OH274122   4.683   1.742  11.886  0.4086  0.2396  0.6098
17544TIP3    H174123   4.753   1.764  11.948  0.7775 -0.9086  0.6129
17544TIP3    H274124   4.664   1.650  11.902 -0.9933  0.4871  0.4790
17545TIP3   OH274125   4.720   5.468   3.359 -0.0487  0.1470 -0.1412
17545TIP3    H174126   4.661   5.544   3.359  0.8644  0.8973 -1.3066
17545TIP3    H274127   4.663   5.393   3.376 -1.5802  0.6735 -2.5110
17546TIP3   OH274128   2.074   2.188   1.734  0.1337  0.1056 -0.5459
17546TIP3    H174129   2.035   2.113   1.690 -2.5158 -0.5965  2.5963
17546TIP3    H274130   2.031   2.264   1.695 -1.3025 -0.4186 -0.0473
17547TIP3   OH274131   0.589   1.645   0.568  0.4598  0.1811 -0.1226
17547TIP3    H174132   0.572   1.575   0.631  2.0895 -0.6087 -0.5030
17547TIP3    H274133   0.647   1.706   0.613 -1.0866  1.4408  0.2672
17548TIP3   OH274134   0.582   0.909  11.288 -0.5808 -0.1213 -0.2990
17548TIP3    H174135   0.516   0.935  11.223 -0.8647  0.3709  0.1705
17548TIP3    H274136   0.534   0.911  11.372 -0.4406 -1.5791 -0.1684
17549TIP3   OH274137   6.597   1.920  13.667 -0.5956 -0.0056 -0.2656
17549TIP3    H174138   6.554   1.947  13.586  0.0469 -2.4598 -1.5145
17549TIP3    H274139   6.674   1.977  13.674 -0.3811 -0.0847 -1.6770
17550TIP3   OH274140   2.503   0.910   2.189  0.3989 -0.0741  0.5352
17550TIP3    H174141   2.444   0.880   2.259  1.1643 -1.3524  0.6627
17550TIP3    H274142   2.576   0.849   2.192  1.8867  1.6511  0.5429
17551TIP3   OH274143   0.184   3.895  13.966 -0.0101 -0.6421 -0.3289
17551TIP3    H174144   0.220   3.817  13.924  0.1414 -0.3189 -0.8059
17551TIP3    H274145   0.162   3.954  13.894  0.0143 -0.1807  0.0301
17552TIP3   OH274146   3.338   0.907   3.353  0.1106  0.4711  0.0567
17552TIP3    H174147   3.258   0.948   3.321 -0.7771 -0.7094  0.6914
17552TIP3    H274148   3.375   0.863   3.276  0.1388  0.9638 -0.2206
17553TIP3   OH274149   3.148   3.951  15.084  0.1671  0.7590 -0.0441
17553TIP3    H174150   3.157   3.929  15.177 -1.2640  0.4352  0.0416
17553TIP3    H274151   3.161   3.868  15.038 -0.6885  0.5991 -0.0161
17554TIP3   OH274152   6.262   6.282  16.029 -0.2914 -0.0681  1.1726
17554TIP3    H174153   6.179   6.241  16.006  0.3715 -2.0396  2.0737
17554TIP3    H274154   6.258   6.293  16.124 -0.4413  2.0451  0.9680
17555TIP3   OH274155   5.691   6.674   0.812 -0.1998  0.4850 -0.2353
17555TIP3    H174156   5.691   6.604   0.877 -1.8246 -0.6316 -1.3377
17555TIP3    H274157   5.636   6.742   0.850 -0.1550  0.3562  0.0628
17556TIP3   OH274158   5.750   6.417   3.435  0.1639  0.6462 -0.4952
17556TIP3    H174159   5.824   6.369   3.400 -0.5268 -1.1450  0.3819
17556TIP3    H274160   5.709   6.458   3.359  0.0582 -1.1927 -1.4834
17557TIP3   OH274161   6.329   1.435  12.241 -0.1892 -0.0999  0.0686
17557TIP3    H174162   6.388   1.361  12.257  1.9463  1.1050 -1.6478
17557TIP3    H274163   6.244   1.395  12.223  0.3784 -1.9895  1.2742
17558TIP3   OH274164   3.685   5.381   3.330 -0.4259 -0.2306 -0.3967
17558TIP3    H174165   3.646   5.399   3.415 -1.2363 -0.8661 -0.6239
17558TIP3    H274166   3.620   5.329   3.283  0.4764 -0.8778 -0.9836
17559TIP3   OH274167   3.760   3.751  12.724 -0.0140  0.4128 -0.2180
17559TIP3    H174168   3.730   3.755  12.815 -0.9303 -1.8079 -0.3739
17559TIP3    H274169   3.816   3.828  12.714 -1.0315  1.4836  1.7940
17560TIP3   OH274170   0.534   1.117   5.878  0.3219  0.5642  0.7611
17560TIP3    H174171   0.500   1.165   5.803 -0.0324  1.8426  1.7042
17560TIP3    H274172   0.626   1.139   5.882  0.5022 -0.0721  0.3008
17561TIP3   OH274173   1.565   4.404  15.165 -0.1991 -0.7748 -0.0618
17561TIP3    H174174   1.498   4.472  15.177  1.1643  0.5430  0.4400
17561TIP3    H274175   1.594   4.384  15.254  1.0452 -0.2850 -0.3360
17562TIP3   OH274176   4.635   4.666   1.234 -0.3850 -0.1710  0.3290
17562TIP3    H174177   4.609   4.734   1.295 -0.5980 -0.5287  0.6406
17562TIP3    H274178   4.729   4.655   1.248 -0.1719  0.6541 -0.3284
17563TIP3   OH274179   2.476   5.404  14.195 -0.2469 -0.4429 -0.3089
17563TIP3    H174180   2.444   5.491  14.170 -0.1426  0.2506  1.8319
17563TIP3    H274181   2.402   5.346  14.178 -1.1276  0.4409  0.3909
17564TIP3   OH274182   6.460   6.104  16.562  0.1745 -0.4444 -0.7897
17564TIP3    H174183   6.406   6.061  16.629 -0.1620 -2.3080 -2.1840
17564TIP3    H274184   6.460   6.197  16.587 -2.8957 -0.5111 -0.1879
17565TIP3   OH274185   4.080   1.107  16.566 -0.4642  0.4144 -0.3149
17565TIP3    H174186   4.171   1.094  16.539 -0.3776 -0.0560  0.1890
17565TIP3    H274187   4.036   1.139  16.487  0.1225  0.5965 -0.5754
17566TIP3   OH274188   4.671   0.582   5.009  0.4127 -0.1531 -0.0872
17566TIP3    H174189   4.608   0.537   4.952  0.4043 -0.4490  0.1605
17566TIP3    H274190   4.679   0.526   5.086 -0.1663  0.6233  0.5604
17567TIP3   OH274191   0.881   5.869   0.203 -0.1252 -0.7842 -0.3359
17567TIP3    H174192   0.809   5.894   0.260 -0.2284 -1.9086  0.0371
17567TIP3    H274193   0.842   5.865   0.115 -0.2306 -0.2267 -0.3222
17568TIP3   OH274194   2.391   3.699   0.694  0.4401 -0.3072 -0.8130
17568TIP3    H174195   2.447   3.621   0.689  0.1788 -0.4945 -0.8299
17568TIP3    H274196   2.391   3.733   0.604  1.1746  0.1541 -0.6475
17569TIP3   OH274197   1.052   1.290  14.252  0.1999  0.1389  0.2559
17569TIP3    H174198   1.028   1.373  14.211  0.0639  0.0589  0.1735
17569TIP3    H274199   1.103   1.315  14.329  0.6199  0.2817 -0.0666
17570TIP3   OH274200   1.336   5.110   1.157 -0.1280 -0.3295 -0.1242
17570TIP3    H174201   1.423   5.079   1.181 -0.0354  0.1470  0.1684
17570TIP3    H274202   1.276   5.062   1.215 -0.3583 -2.8575 -2.2412
17571TIP3   OH274203   5.248   2.223   1.940  0.1449  0.0606  0.4721
17571TIP3    H174204   5.206   2.251   2.021  1.7124 -0.4710  1.5228
17571TIP3    H274205   5.341   2.217   1.962  0.5995 -0.2310 -1.3386
17572TIP3   OH274206   4.171   2.515   4.460 -0.5084  0.9342 -0.1676
17572TIP3    H174207   4.106   2.451   4.492  0.4693 -0.3794 -0.7069
17572TIP3    H274208   4.187   2.489   4.369  2.0554  0.0594  0.4434
17573TIP3   OH274209   4.848   0.468  11.561 -0.5818  0.2236  0.1044
17573TIP3    H174210   4.884   0.554  11.582 -1.4136  0.5096  0.3933
17573TIP3    H274211   4.754   0.483  11.548 -0.8207 -0.7166  0.6393
17574TIP3   OH274212   4.957   1.575  13.625  0.1053 -0.0357 -0.0655
17574TIP3    H174213   4.944   1.546  13.535  0.5056 -0.5879  0.0482
17574TIP3    H274214   4.984   1.495  13.672 -0.6592  0.1204  0.6617
17575TIP3   OH274215   0.539   2.610   2.149  0.0242 -0.4641  0.3728
17575TIP3    H174216   0.577   2.594   2.062  1.4582 -1.8083  1.1844
17575TIP3    H274217   0.465   2.550   2.154 -0.2181 -0.1997 -0.0157
17576TIP3   OH274218   3.232   1.423  15.259  0.0306  0.0830 -0.1736
17576TIP3    H174219   3.193   1.503  15.294 -1.4292 -0.5033 -0.3793
17576TIP3    H274220   3.188   1.410  15.175  0.9695 -0.4049 -0.6061
17577TIP3   OH274221   4.508   2.725   4.795  0.2820  0.0146 -0.2114
17577TIP3    H174222   4.596   2.692   4.778  1.1033  2.3102 -0.7493
17577TIP3    H274223   4.452   2.677   4.734  1.6258  0.6412 -2.0348
17578TIP3   OH274224   0.215   5.732  15.053  0.1978  0.2496 -0.3215
17578TIP3    H174225   0.289   5.675  15.032  1.2972  1.0841  1.0720
17578TIP3    H274226   0.213   5.733  15.149 -2.3266 -0.6015 -0.2945
17579TIP3   OH274227   1.921   3.922   1.794 -0.1155 -0.2282 -0.1922
17579TIP3    H174228   2.000   3.963   1.829  0.3452  0.0158 -1.4508
17579TIP3    H274229   1.871   3.995   1.757 -0.5242 -0.4861 -0.1517
17580TIP3   OH274230   3.866   2.080   1.853 -0.8085 -0.1910 -0.1711
17580TIP3    H174231   3.911   1.997   1.836 -0.5730 -0.3898  1.2941
17580TIP3    H274232   3.803   2.088   1.781 -1.4163 -2.0720  0.0758
17581TIP3   OH274233   4.608   5.696  12.170  0.1837 -0.0798  0.4104
17581TIP3    H174234   4.565   5.712  12.254  0.5084  0.5584  0.4626
17581TIP3    H274235   4.581   5.770  12.115  0.0293 -0.4556 -0.0234
17582TIP3   OH274236   4.329   1.841  13.559  0.0130 -0.3173  0.0147
17582TIP3    H174237   4.371   1.923  13.534 -0.9862  0.5661  1.0961
17582TIP3    H274238   4.318   1.793  13.477  0.5115  0.6733 -0.6492
17583TIP3   OH274239   4.462   1.244   5.465 -0.6056 -0.3220 -0.0859
17583TIP3    H174240   4.440   1.222   5.555  0.6428  0.2735  0.3839
17583TIP3    H274241   4.384   1.289   5.432 -0.1718  1.8302  1.5592
17584TIP3   OH274242   4.505   6.689  16.944 -0.9362 -0.3947 -0.4435
17584TIP3    H174243   4.491   6.762  17.004 -2.8604 -0.0881 -1.2131
17584TIP3    H274244   4.455   6.617  16.984 -1.2037 -0.5326 -1.0195
17585TIP3   OH274245   4.584   3.063  16.123 -0.0474  0.1667  0.2093
17585TIP3    H174246   4.672   3.099  16.113  1.2268 -2.4861  0.9135
17585TIP3    H274247   4.556   3.042  16.033 -0.2613  1.5780 -0.0743
17586TIP3   OH274248   4.334   6.139   2.034  0.0416 -0.0779 -0.2636
17586TIP3    H174249   4.242   6.121   2.014  0.4566 -1.2500 -1.2769
17586TIP3    H274250   4.371   6.167   1.950  0.1133  2.7999  0.6294
17587TIP3   OH274251   4.060   4.330  11.928 -0.4265 -0.5564 -0.1255
17587TIP3    H174252   4.079   4.413  11.883  0.7280 -1.8068 -2.1066
17587TIP3    H274253   4.024   4.274  11.859  1.2286 -2.5132  0.5172
17588TIP3   OH274254   1.050   6.276   2.147  0.0112 -0.0824  0.3226
17588TIP3    H174255   1.019   6.223   2.220 -0.5737 -1.5207 -0.9148
17588TIP3    H274256   0.994   6.251   2.074  0.7541  1.1207 -0.6944
17589TIP3   OH274257   4.909   0.787  16.324 -0.1791  0.2300  0.3959
17589TIP3    H174258   4.974   0.720  16.348  0.2151  0.9841  1.5097
17589TIP3    H274259   4.948   0.831  16.249  0.1785  0.0861  0.4922
17590TIP3   OH274260   0.384   4.965  12.694 -0.0167 -0.4581  0.4423
17590TIP3    H174261   0.316   4.910  12.733  1.8301 -2.4322  1.1200
17590TIP3    H274262   0.369   5.052  12.731 -1.7125 -0.9841  1.0960
17591TIP3   OH274263   4.869   1.292  13.209  1.2428  0.5790  0.2254
17591TIP3    H174264   4.935   1.289  13.140 -0.5817 -2.3307 -1.6224
17591TIP3    H274265   4.789   1.260  13.168 -0.1817 -0.4988  3.4640
17592TIP3   OH274266   1.923   3.763  16.016 -0.3024  0.0262  0.5164
17592TIP3    H174267   1.864   3.704  16.062  0.2219 -2.1365 -1.4107
17592TIP3    H274268   1.922   3.732  15.925  3.2439  0.3098  0.2491
17593TIP3   OH274269   1.042   2.920   5.423  0.3253  0.6177 -0.6793
17593TIP3    H174270   1.087   2.869   5.356  0.3739  0.2552 -0.3740
17593TIP3    H274271   1.103   2.919   5.498 -0.7125 -0.9758  0.2078
17594TIP3   OH274272   1.434   4.732  15.846  0.3436 -0.1606  0.3791
17594TIP3    H174273   1.507   4.744  15.907 -0.3787 -0.4201  1.3202
17594TIP3    H274274   1.454   4.791  15.774  1.6981 -0.5406  0.4041
17595TIP3   OH274275   0.079   5.332   1.795  0.5833 -0.0366 -0.0744
17595TIP3    H174276   0.110   5.251   1.756  0.6224  0.2565 -0.6753
17595TIP3    H274277  -0.016   5.321   1.802  0.1566  0.9906 -2.9911
17596TIP3   OH274278   4.275   4.902   1.858 -0.1608 -0.9985 -1.0538
17596TIP3    H174279   4.356   4.937   1.822 -0.2404 -0.1161 -0.4082
17596TIP3    H274280   4.210   4.914   1.788 -0.4318  1.1632 -0.4814
17597TIP3   OH274281   0.058   0.909  16.496  0.1166 -0.4577  0.3210
17597TIP3    H174282   0.085   0.981  16.553  0.4924 -0.4391  0.1241
17597TIP3    H274283   0.084   0.937  16.408 -1.6203  0.0859 -0.0607
17598TIP3   OH274284   4.488   5.156  16.604 -0.4717 -0.2666 -0.6664
17598TIP3    H174285   4.446   5.220  16.660  1.7137  1.0662 -0.4164
17598TIP3    H274286   4.458   5.071  16.636 -1.1158  0.5527  0.9672
17599TIP3   OH274287   3.866   3.730  14.688  0.1939 -0.3460  0.6274
17599TIP3    H174288   3.819   3.762  14.611 -0.7873 -0.8749  0.9775
17599TIP3    H274289   3.926   3.801  14.710  1.6230 -0.8152 -1.5100
17600TIP3   OH274290   2.433   5.837  15.147 -0.8544 -0.2409  0.0303
17600TIP3    H174291   2.449   5.812  15.239  0.6062  1.3824  0.2689
17600TIP3    H274292   2.518   5.828  15.105 -1.2205  0.3085 -0.8541
17601TIP3   OH274293   3.422   2.426   5.225  0.0976  0.1623 -0.2496
17601TIP3    H174294   3.497   2.367   5.220 -2.0226 -2.9317  1.1634
17601TIP3    H274295   3.361   2.395   5.158 -0.9514  0.9754  0.2779
17602TIP3   OH274296   5.124   0.442  14.188 -0.0876 -0.1375 -0.5433
17602TIP3    H174297   5.125   0.533  14.158 -1.1218 -0.5176 -1.8244
17602TIP3    H274298   5.086   0.446  14.275  1.0196  0.7817 -0.0774
17603TIP3   OH274299   5.598   2.176  12.474 -0.7939  0.7088 -0.2256
17603TIP3    H174300   5.670   2.192  12.536 -0.6663 -0.1331 -0.1472
17603TIP3    H274301   5.598   2.254  12.419  1.5953 -0.1424 -1.6008
17604TIP3   OH274302   1.359   5.787  13.473 -0.4737  0.0405  0.0226
17604TIP3    H174303   1.447   5.823  13.476 -0.2724 -0.5014  2.1084
17604TIP3    H274304   1.362   5.723  13.402  1.3014 -1.0708  1.0160
17605TIP3   OH274305   4.600   2.149   3.732  0.0373 -0.1827 -0.4300
17605TIP3    H174306   4.619   2.183   3.644 -1.5250  0.3590 -0.5933
17605TIP3    H274307   4.565   2.061   3.717  0.1368 -0.2389 -0.3279
17606TIP3   OH274308   3.292   3.402   6.532 -0.1837  0.7261 -0.0661
17606TIP3    H174309   3.215   3.459   6.534  0.1717  1.3936 -2.5677
17606TIP3    H274310   3.347   3.437   6.462  1.8729 -0.4503  0.8549
17607TIP3   OH274311   2.863   4.937   1.533 -0.3438 -0.3675  0.4188
17607TIP3    H174312   2.912   4.871   1.582 -2.3718 -1.8236  0.6390
17607TIP3    H274313   2.866   5.015   1.589  1.0881 -0.6079  0.7183
17608TIP3   OH274314   1.528   5.433  14.696  0.3078  0.0385  0.1793
17608TIP3    H174315   1.508   5.422  14.603 -2.7335  2.0395  0.4645
17608TIP3    H274316   1.504   5.349  14.736 -3.1837  0.6764 -0.2675
17609TIP3   OH274317   1.002   6.564  16.394  0.1460 -0.1392  0.2426
17609TIP3    H174318   0.986   6.653  16.362 -0.5643  0.0783  1.1704
17609TIP3    H274319   1.097   6.558  16.398  0.2977 -0.2427 -2.0280
17610TIP3   OH274320   5.847   3.919  12.643 -0.1144 -0.1448  0.4828
17610TIP3    H174321   5.800   3.909  12.560  1.9019 -1.0047 -0.6317
17610TIP3    H274322   5.916   3.982  12.624 -0.2997  0.5017  1.8463
17611TIP3   OH274323   5.957   4.103   5.652 -0.1771  0.0795 -0.2876
17611TIP3    H174324   5.948   4.063   5.566  1.0060 -0.6046 -0.1180
17611TIP3    H274325   5.952   4.197   5.635 -0.6507 -0.0671 -1.0008
17612TIP3   OH274326   1.133   4.782   2.544  0.1338 -0.7256 -0.0149
17612TIP3    H174327   1.118   4.846   2.475  1.2104 -1.2103 -0.7336
17612TIP3    H274328   1.228   4.767   2.542  0.3520  0.0146  2.2646
17613TIP3   OH274329   6.642   1.308   3.223 -0.8546  0.1519 -0.6285
17613TIP3    H174330   6.676   1.385   3.178 -1.0796  1.3014  1.0366
17613TIP3    H274331   6.551   1.302   3.195 -0.9982  0.8626 -0.3349
17614TIP3   OH274332   2.606   3.759  12.210 -0.8229  0.3950  0.0219
17614TIP3    H174333   2.689   3.729  12.248 -1.6955 -1.3241  0.6690
17614TIP3    H274334   2.618   3.853  12.198  1.1395  0.2261  0.3000
17615TIP3   OH274335   1.807   0.520   1.307 -0.0941 -0.4215  0.3144
17615TIP3    H174336   1.714   0.529   1.326 -0.3429  0.1004 -1.0248
17615TIP3    H274337   1.851   0.564   1.380 -0.9682  1.0301  0.0049
17616TIP3   OH274338   1.120   5.492   1.386 -0.4465  0.2738  0.3637
17616TIP3    H174339   1.122   5.401   1.357  0.4463  0.3074  0.2987
17616TIP3    H274340   1.102   5.542   1.306  1.7727  0.3472 -0.1746
17617TIP3   OH274341   1.512   4.357  12.411  0.0239 -0.0550  0.3725
17617TIP3    H174342   1.472   4.402  12.336 -2.2898 -0.6876  1.1544
17617TIP3    H274343   1.498   4.264  12.393  0.3453 -0.2472  1.1188
17618TIP3   OH274344   3.196   5.131  14.965  0.2289 -0.6948 -0.7611
17618TIP3    H174345   3.274   5.145  14.912 -0.8608 -1.0601 -2.5309
17618TIP3    H274346   3.206   5.042  14.999 -0.2476 -1.4650 -2.5273
17619TIP3   OH274347   3.307   0.317   2.725  0.0367 -0.3058  0.4214
17619TIP3    H174348   3.251   0.343   2.652  0.7170  0.0800  0.0201
17619TIP3    H274349   3.250   0.321   2.801 -0.4843  0.0641  0.0227
17620TIP3   OH274350   1.987   1.327  11.852  0.0957  0.6021 -0.2050
17620TIP3    H174351   2.035   1.409  11.848  0.8949  0.1043 -2.0720
17620TIP3    H274352   2.053   1.259  11.839 -0.5770 -0.3589  1.1046
17621TIP3   OH274353   1.976   2.429   1.897  0.2183 -0.0622 -0.4306
17621TIP3    H174354   2.038   2.500   1.881 -0.5315  0.8302  0.5404
17621TIP3    H274355   2.004   2.391   1.981  1.5837 -2.0033 -1.6605
17622TIP3   OH274356   6.715   4.213   0.671 -0.0174  0.4607  0.1833
17622TIP3    H174357   6.784   4.152   0.646 -0.4409 -0.2318  0.6838
17622TIP3    H274358   6.712   4.209   0.767 -0.0001  1.3251  0.2325
17623TIP3   OH274359   6.422   2.363  12.835 -0.1647 -0.0190 -0.6560
17623TIP3    H174360   6.467   2.432  12.885  0.6077 -1.8006  1.2275
17623TIP3    H274361   6.337   2.354  12.878  0.0866 -0.8410 -0.3233
17624TIP3   OH274362   1.107   4.845   1.384 -0.5138  0.2827 -0.1502
17624TIP3    H174363   1.145   4.785   1.447  1.5581  1.1413 -0.4799
17624TIP3    H274364   1.133   4.810   1.299 -1.4987  0.2628 -0.4573
17625TIP3   OH274365   4.113   3.421  13.908 -0.1618 -0.2511  0.3423
17625TIP3    H174366   4.097   3.338  13.953  0.1576 -0.7008 -0.3498
17625TIP3    H274367   4.207   3.418  13.886 -0.2450  0.0989 -0.0711
17626TIP3   OH274368   0.239   6.165   2.895 -0.0442 -0.3621  0.0940
17626TIP3    H174369   0.304   6.207   2.839 -1.0720 -1.3603 -1.9337
17626TIP3    H274370   0.185   6.114   2.835 -1.1283 -1.5936  2.0319
17627TIP3   OH274371   4.754   2.578   4.467  0.3009  0.1886 -0.0768
17627TIP3    H174372   4.706   2.496   4.461 -0.5438  0.7674 -2.0782
17627TIP3    H274373   4.745   2.605   4.559 -1.7838 -0.5720 -0.0067
17628TIP3   OH274374   4.139   1.209  12.469 -0.0737  0.2904  0.4641
17628TIP3    H174375   4.222   1.186  12.511  0.0965  2.1017  1.1943
17628TIP3    H274376   4.091   1.258  12.536 -0.9043  0.9884 -0.6117
17629TIP3   OH274377   2.939   3.007   0.954 -0.3889  0.1243  0.2446
17629TIP3    H174378   2.872   3.029   1.018  0.2588 -1.0173  1.3756
17629TIP3    H274379   3.022   3.013   1.002  0.0935 -1.0567 -0.3807
17630TIP3   OH274380   5.177   4.961   1.993 -0.3029  0.3433  0.5145
17630TIP3    H174381   5.093   4.977   2.035 -1.4966 -0.1710 -1.4995
17630TIP3    H274382   5.175   5.016   1.914  0.9802 -0.1324  0.1257
17631TIP3   OH274383   2.284   5.996   2.053  0.1103 -0.9424  0.0987
17631TIP3    H174384   2.260   5.919   2.105 -1.1153 -0.3291  0.4834
17631TIP3    H274385   2.310   6.061   2.118 -0.4276 -0.5137 -0.1028
17632TIP3   OH274386   2.661   2.301   4.900 -0.2893 -0.5539  0.2995
17632TIP3    H174387   2.615   2.327   4.980  1.7646 -0.3623  1.4946
17632TIP3    H274388   2.601   2.239   4.857 -1.3110 -0.9425  2.1690
17633TIP3   OH274389   2.525   0.867  13.800 -0.1770  0.0976 -0.2337
17633TIP3    H174390   2.449   0.867  13.858 -0.2693  1.0805 -0.3409
17633TIP3    H274391   2.492   0.834  13.717 -0.0874 -1.1272  0.2012
17634TIP3   OH274392   5.538   3.477   1.515  0.3594 -0.0314  0.0377
17634TIP3    H174393   5.501   3.407   1.460  1.7320 -0.5225 -0.3054
17634TIP3    H274394   5.479   3.483   1.589 -1.6642  0.7572 -1.5369
17635TIP3   OH274395   2.674   4.689  16.067 -0.3557 -0.3487 -0.0720
17635TIP3    H174396   2.614   4.631  16.115  0.9325 -0.0564  2.0088
17635TIP3    H274397   2.620   4.764  16.044 -1.6114 -1.5421 -1.2647
17636TIP3   OH274398   0.468   3.407  14.143 -0.4221 -0.0410  0.3642
17636TIP3    H174399   0.540   3.349  14.167  0.4450 -0.0173 -1.9031
17636TIP3    H274400   0.416   3.416  14.222  3.3425  1.8868  2.9272
17637TIP3   OH274401   1.485   0.392   1.079  0.1388 -0.1875  0.1494
17637TIP3    H174402   1.412   0.344   1.040  0.8770 -1.0831 -0.1667
17637TIP3    H274403   1.555   0.386   1.015  1.5048 -1.9998  1.6920
17638TIP3   OH274404   4.448   3.661  15.723  0.0108  0.5965 -0.3281
17638TIP3    H174405   4.496   3.737  15.757 -0.3840  1.3883 -1.4899
17638TIP3    H274406   4.460   3.665  15.629  0.7176 -1.3193 -0.3515
17639TIP3   OH274407   2.199   4.543   3.007 -0.2531  0.5720 -0.6345
17639TIP3    H174408   2.261   4.473   3.030  0.0900  0.3102 -2.2186
17639TIP3    H274409   2.218   4.613   3.070  3.0127  1.2526 -2.1566
17640TIP3   OH274410   3.092   3.765   4.339 -0.3823  0.2548 -0.1622
17640TIP3    H174411   3.115   3.742   4.429 -0.4853 -0.0702 -0.2151
17640TIP3    H274412   3.076   3.680   4.297  0.3021  0.3715 -0.6602
17641TIP3   OH274413   0.148   2.955  16.362 -0.1039  0.2150  0.3571
17641TIP3    H174414   0.126   2.986  16.274 -1.3414 -0.3831  0.4410
17641TIP3    H274415   0.235   2.917  16.353 -0.0847  0.4494 -0.5278
17642TIP3   OH274416   5.318   6.002  16.913  0.3146  0.4833 -0.2745
17642TIP3    H174417   5.229   6.033  16.932  0.6026  0.5793  0.9890
17642TIP3    H274418   5.367   6.081  16.891  0.5741  0.6928  1.0268
17643TIP3   OH274419   1.426   4.965  10.594 -0.1304 -0.5533 -0.1317
17643TIP3    H174420   1.391   5.000  10.512 -1.3778 -0.5401  0.3769
17643TIP3    H274421   1.351   4.923  10.635  0.6753 -1.2990  0.6188
17644TIP3   OH274422   5.710   5.313  16.498  0.0626 -0.7493 -0.4724
17644TIP3    H174423   5.700   5.231  16.450 -0.4468 -0.8528 -0.1965
17644TIP3    H274424   5.774   5.363  16.446  1.5295 -1.9001  0.1494
17645TIP3   OH274425   2.698   2.663  16.054 -0.6545  0.0957  0.6724
17645TIP3    H174426   2.698   2.756  16.079  1.1007 -0.3365  2.6200
17645TIP3    H274427   2.630   2.624  16.109 -1.3311  0.1930 -0.0822
17646TIP3   OH274428   2.926   3.898   3.330  0.0758 -0.7134  0.0888
17646TIP3    H174429   2.940   3.828   3.394 -0.9719 -1.2650 -0.2710
17646TIP3    H274430   2.905   3.853   3.248 -0.6042  0.0242 -0.1579
17647TIP3   OH274431   2.194   6.364  11.483 -0.3973  0.0198 -0.0611
17647TIP3    H174432   2.106   6.390  11.456 -1.2873 -0.5965  2.0790
17647TIP3    H274433   2.241   6.350  11.400 -1.9410  1.4685 -1.2412
17648TIP3   OH274434   5.399   6.419   4.872 -0.1711  0.0387  0.6458
17648TIP3    H174435   5.425   6.368   4.948 -1.4535  0.1660  1.2001
17648TIP3    H274436   5.447   6.501   4.880 -0.4244  0.1176  1.4273
17649TIP3   OH274437   3.861   2.656  16.001 -0.5482  0.0136  0.0943
17649TIP3    H174438   3.885   2.711  16.077 -0.1646  0.7969 -0.5770
17649TIP3    H274439   3.853   2.718  15.929 -0.8245 -0.7413 -0.5283
17650TIP3   OH274440   0.039   6.557   1.078  0.4964 -0.3045 -0.0695
17650TIP3    H174441   0.001   6.470   1.073  0.8759 -0.6718  2.2065
17650TIP3    H274442   0.134   6.542   1.073  0.6162  0.4915 -4.3948
17651TIP3   OH274443   6.831   5.407   1.501  0.1790  0.2718 -0.1400
17651TIP3    H174444   6.849   5.386   1.593 -0.0911 -0.9291 -0.3438
17651TIP3    H274445   6.809   5.322   1.462 -2.1833  1.1057 -0.7513
17652TIP3   OH274446   4.487   3.180  11.776  0.3941 -0.0800 -0.1052
17652TIP3    H174447   4.422   3.120  11.740 -1.0874  0.1802  1.9543
17652TIP3    H274448   4.439   3.263  11.786  1.4988  0.5567  0.0222
17653TIP3   OH274449   5.543   6.440   6.898 -0.3483 -0.1934  0.5755
17653TIP3    H174450   5.530   6.438   6.803  2.5728  0.7764  0.0455
17653TIP3    H274451   5.550   6.348   6.922  0.5825 -0.4342 -0.4915
17654TIP3   OH274452   3.992   1.017   0.087 -0.2152  0.3877 -0.3077
17654TIP3    H174453   4.025   0.970   0.011 -0.5531  0.1130 -0.2871
17654TIP3    H274454   4.007   1.109   0.068  1.4530  0.2375  0.1050
17655TIP3   OH274455   3.950   2.369  13.635 -0.4093 -0.1223 -0.3232
17655TIP3    H174456   3.992   2.454  13.618 -1.2923  0.6188  1.0394
17655TIP3    H274457   4.015   2.305  13.605  0.6403  1.0151 -0.5970
17656TIP3   OH274458   2.587   1.027   1.256 -0.1028 -0.5703 -0.3691
17656TIP3    H174459   2.661   0.985   1.213  0.0393  0.4505 -1.1572
17656TIP3    H274460   2.580   1.113   1.215  0.3044  0.6488  1.9293
17657TIP3   OH274461   0.366   0.847   0.653 -0.2415  0.2085 -0.3862
17657TIP3    H174462   0.389   0.845   0.746  0.3702  1.5179 -0.4871
17657TIP3    H274463   0.417   0.775   0.614 -2.5059 -2.1369  0.6546
17658TIP3   OH274464   4.897   3.241   5.406  0.7783 -0.0734  0.2887
17658TIP3    H174465   4.838   3.187   5.459  0.5147 -0.4398 -0.3618
17658TIP3    H274466   4.978   3.244   5.457  1.1455 -1.9418 -0.0992
17659TIP3   OH274467   0.526   0.694   4.055 -0.2883 -0.0944  0.5120
17659TIP3    H174468   0.482   0.609   4.061  0.5794 -0.5390  0.7682
17659TIP3    H274469   0.543   0.706   3.962 -1.4185  0.3384  0.3465
17660TIP3   OH274470   1.511   2.356   5.471  0.3004 -0.4514  0.1921
17660TIP3    H174471   1.553   2.333   5.553  0.8057 -1.3257 -0.2912
17660TIP3    H274472   1.576   2.333   5.404  0.8971  2.4426 -0.3735
17661TIP3   OH274473   6.329   3.393   5.249 -0.6614  0.3263  0.0457
17661TIP3    H174474   6.385   3.364   5.177  0.0649 -1.2780  1.1800
17661TIP3    H274475   6.266   3.322   5.261 -1.0967  0.7984  0.6554
17662TIP3   OH274476   4.568   0.887  12.063 -0.2354  0.2967 -0.2957
17662TIP3    H174477   4.657   0.876  12.098 -0.1426  2.2831  0.2616
17662TIP3    H274478   4.563   0.980  12.041 -1.6102 -0.1291 -2.0130
17663TIP3   OH274479   6.153   6.635  14.231  0.0589 -0.7287  0.4719
17663TIP3    H174480   6.242   6.620  14.262 -0.0033 -1.0535  0.4985
17663TIP3    H274481   6.117   6.699  14.292  0.7692  0.5902 -0.4287
17664TIP3   OH274482   5.390   6.352   3.165  0.8778 -0.1724  0.1613
17664TIP3    H174483   5.406   6.305   3.247  1.2537  0.8749  0.6948
17664TIP3    H274484   5.352   6.285   3.107  0.1858 -0.8133  1.3184
17665TIP3   OH274485   6.707   5.672   4.906  0.0714  0.3135 -0.1197
17665TIP3    H174486   6.611   5.682   4.910  0.1425  1.1375 -0.1290
17665TIP3    H274487   6.728   5.687   4.814  0.3146  1.3659  0.0922
17666TIP3   OH274488   6.702   3.791  15.800  0.5310  0.3047 -0.5857
17666TIP3    H174489   6.725   3.884  15.797  0.4861  0.3917  1.1553
17666TIP3    H274490   6.749   3.756  15.876 -0.3116 -0.8567 -0.5704
17667TIP3   OH274491   4.060   5.416   0.736 -0.2052  0.1612 -0.3616
17667TIP3    H174492   4.138   5.365   0.716 -0.5092 -0.6637  0.4520
17667TIP3    H274493   4.000   5.400   0.664 -0.9871 -2.1216  0.7071
17668TIP3   OH274494   4.888   5.959  13.354  0.0378  0.2711 -0.2087
17668TIP3    H174495   4.980   5.967  13.328  0.4556 -0.9084  0.7831
17668TIP3    H274496   4.848   6.041  13.326  0.4560 -0.6694 -4.2037
17669TIP3   OH274497   4.927   6.175  14.798 -0.0027  0.2596 -0.3202
17669TIP3    H174498   5.004   6.232  14.796  0.2292  0.0038  0.6729
17669TIP3    H274499   4.893   6.178  14.709 -0.4998  2.6224 -0.1117
17670TIP3   OH274500   3.995   2.904  11.392  0.5745 -0.5452  0.2254
17670TIP3    H174501   3.971   2.898  11.484  3.2277 -0.1608  1.0410
17670TIP3    H274502   4.085   2.872  11.388  0.8643  0.3248 -2.0771
17671TIP3   OH274503   0.144   5.140  16.481 -0.5015  0.0075  0.6001
17671TIP3    H174504   0.050   5.143  16.501 -0.3004  0.3636  1.5609
17671TIP3    H274505   0.181   5.212  16.533  0.2000  0.3590 -0.3628
17672TIP3   OH274506   0.092   3.056  14.109  0.0332 -0.2835 -0.8352
17672TIP3    H174507   0.139   3.103  14.177 -0.7924  0.1994 -0.5842
17672TIP3    H274508   0.105   2.963  14.130 -2.5667 -0.2143  1.7458
17673TIP3   OH274509   5.158   1.567  14.606  0.0144  0.0048 -0.0259
17673TIP3    H174510   5.096   1.639  14.591 -0.7227 -0.9524 -1.8344
17673TIP3    H274511   5.232   1.609  14.651 -1.0189  1.6009  0.2805
17674TIP3   OH274512   4.937   4.898   2.194 -0.0142  0.5675  0.3214
17674TIP3    H174513   5.010   4.953   2.223  0.0780  0.1274  0.9335
17674TIP3    H274514   4.871   4.909   2.262  0.0600 -0.1789  0.5218
17675TIP3   OH274515   5.533   5.671  13.730  0.1236 -0.5336  0.7238
17675TIP3    H174516   5.468   5.717  13.676  0.9161 -0.8437 -0.5210
17675TIP3    H274517   5.577   5.741  13.780 -0.1699 -0.1797  0.4922
17676TIP3   OH274518   4.873   2.947  14.283  0.2288 -0.8398  0.5177
17676TIP3    H174519   4.867   2.887  14.209 -3.0332 -1.4651  1.1480
17676TIP3    H274520   4.925   2.900  14.348  2.4760 -0.5904 -0.9962
17677TIP3   OH274521   3.200   0.960  15.850  0.1690 -0.3930 -0.6007
17677TIP3    H174522   3.287   0.920  15.855 -0.1904 -1.0766  0.6139
17677TIP3    H274523   3.145   0.903  15.904 -1.0177  0.0837 -1.2850
17678TIP3   OH274524   1.714   0.084   0.686 -0.0786  0.0884  0.1927
17678TIP3    H174525   1.623   0.053   0.681  0.0208 -0.7853  2.4918
17678TIP3    H274526   1.766   0.004   0.693  1.0149  0.5333 -1.9290
17679TIP3   OH274527   3.712   2.050   5.744  0.4920  0.1476  0.4003
17679TIP3    H174528   3.690   2.129   5.793  2.4020  1.6147 -0.9467
17679TIP3    H274529   3.776   2.005   5.799  0.2661  0.1290  0.6512
17680TIP3   OH274530   0.316   3.202  12.294 -0.4676  0.0981  0.1924
17680TIP3    H174531   0.401   3.168  12.264 -0.4219  0.1163  0.3024
17680TIP3    H274532   0.329   3.296  12.298  1.0095 -0.0806  4.7036
17681TIP3   OH274533   6.537   5.877  10.292  0.1894  0.0431  0.0904
17681TIP3    H174534   6.531   5.795  10.341 -1.2214  0.0644 -0.0130
17681TIP3    H274535   6.600   5.929  10.342 -0.8583 -0.1118  1.6750
17682TIP3   OH274536   2.401   1.244   2.432 -0.2911 -0.1339 -0.3744
17682TIP3    H174537   2.390   1.197   2.349  1.7308  2.5726 -2.3781
17682TIP3    H274538   2.495   1.243   2.448 -0.4492  0.9751  0.8809
17683TIP3   OH274539   0.104   5.972  10.783  0.1566  0.1269 -0.4744
17683TIP3    H174540   0.120   5.921  10.704  0.3389  0.4332 -0.6357
17683TIP3    H274541   0.020   6.016  10.767  0.3040  0.3680 -0.5935
17684TIP3   OH274542   1.409   1.187  16.015 -0.2360 -0.0024 -0.7495
17684TIP3    H174543   1.378   1.183  16.105  0.0088 -0.9371 -0.6954
17684TIP3    H274544   1.491   1.236  16.020 -0.8482  1.0638 -0.6666
17685TIP3   OH274545   6.034   2.466   3.180 -0.0804 -0.5524 -0.0192
17685TIP3    H174546   6.085   2.530   3.231 -1.5059  0.5274  0.1030
17685TIP3    H274547   5.965   2.518   3.139 -1.4363 -2.0531  0.2645
17686TIP3   OH274548   2.547   3.674   2.109  0.5502  0.1325  0.8257
17686TIP3    H174549   2.470   3.623   2.087  1.3345 -0.7987  0.1472
17686TIP3    H274550   2.579   3.707   2.025  1.0075  0.3319  1.0729
17687TIP3   OH274551   0.450   4.810   2.560 -0.2444 -0.3908 -0.0599
17687TIP3    H174552   0.437   4.903   2.581 -1.4853 -1.0694  2.5208
17687TIP3    H274553   0.537   4.807   2.520 -0.6485  2.0118 -1.3028
17688TIP3   OH274554   0.386   3.320   0.762  0.3166  0.2719  1.0996
17688TIP3    H174555   0.440   3.379   0.709  1.0345 -0.0286  1.4876
17688TIP3    H274556   0.300   3.324   0.721  0.7020  0.5303  0.2914
17689TIP3   OH274557   5.697   0.356  13.123  0.0665  0.1204  0.0982
17689TIP3    H174558   5.610   0.396  13.122  0.6946  1.8027  2.8221
17689TIP3    H274559   5.682   0.267  13.156 -0.6212  0.3810  0.5071
17690TIP3   OH274560   5.147   5.396  13.479 -0.5800 -0.4623  0.4152
17690TIP3    H174561   5.238   5.425  13.470 -0.7943  0.6468  1.6090
17690TIP3    H274562   5.118   5.432  13.563 -1.9788 -1.1989  0.2754
17691TIP3   OH274563   1.749   4.579  13.604 -0.3604 -0.3816 -0.6835
17691TIP3    H174564   1.833   4.569  13.647 -0.7596 -1.3024 -0.1050
17691TIP3    H274565   1.753   4.667  13.565 -0.1114  0.6415  1.5058
17692TIP3   OH274566   4.007   6.358  14.629 -0.1335  1.0054  0.2101
17692TIP3    H174567   4.098   6.332  14.643 -0.3200 -0.1363 -0.5417
17692TIP3    H274568   4.011   6.452  14.614  1.0038  0.8665 -0.4592
17693TIP3   OH274569   0.740   5.089  11.989 -0.2488 -0.2850  0.5137
17693TIP3    H174570   0.682   5.014  11.977  1.6235 -1.5314 -1.9312
17693TIP3    H274571   0.686   5.165  11.967 -0.6684 -1.5261 -3.8713
17694TIP3   OH274572   3.242   3.438  13.448  0.2643  0.7740  0.3119
17694TIP3    H174573   3.325   3.402  13.477  0.6535  0.1595 -1.4058
17694TIP3    H274574   3.183   3.362  13.444  0.3984  0.7118 -0.9938
17695TIP3   OH274575   4.590   4.133  17.001  0.4691 -0.1072 -0.0421
17695TIP3    H174576   4.657   4.088  16.951  0.6677 -1.0349  1.0045
17695TIP3    H274577   4.637   4.199  17.051  0.6642 -0.9095  0.8656
17696TIP3   OH274578   0.867   3.859   3.298  0.0784  0.7744  0.1055
17696TIP3    H174579   0.891   3.917   3.226 -1.0535  0.7194 -0.3437
17696TIP3    H274580   0.789   3.813   3.266  1.0288 -1.1180  0.3650
17697TIP3   OH274581   3.742   5.636  14.128 -0.1636 -0.3839 -0.6349
17697TIP3    H174582   3.805   5.650  14.056  0.6548  0.8371  0.2801
17697TIP3    H274583   3.656   5.648  14.087  0.2175 -1.2188 -1.7275
17698TIP3   OH274584   5.487   2.787   5.762  0.0665  0.8042  0.0304
17698TIP3    H174585   5.515   2.700   5.735  0.0707  1.1247 -1.0255
17698TIP3    H274586   5.567   2.839   5.763 -0.2052  1.2619 -1.1895
17699TIP3   OH274587   4.847   5.983  17.145 -0.1684  0.2732 -0.1410
17699TIP3    H174588   4.831   6.034  17.224 -2.1916 -0.7002  0.1342
17699TIP3    H274589   4.865   5.894  17.177 -0.3804  0.0069 -0.7439
17700TIP3   OH274590   5.980   0.322  15.141  0.3772  0.1971  0.0706
17700TIP3    H174591   6.059   0.378  15.141  1.6979 -1.5555  1.4154
17700TIP3    H274592   5.917   0.371  15.194  0.9938  1.0610  0.0455
17701TIP3   OH274593   6.567   2.811   2.936 -0.3626  0.3396  0.2583
17701TIP3    H174594   6.506   2.839   2.867  0.7118 -1.8867 -1.7294
17701TIP3    H274595   6.527   2.732   2.973 -0.1333  0.5954  1.0805
17702TIP3   OH274596   3.035   3.522   4.211 -0.6367 -0.1772  0.0303
17702TIP3    H174597   3.032   3.426   4.209  2.9097 -0.4349 -1.2427
17702TIP3    H274598   3.092   3.545   4.138 -1.4869  2.9476  0.2259
17703TIP3   OH274599   5.952   1.807   1.871  0.2524  0.0800 -0.3173
17703TIP3    H174600   5.930   1.714   1.868 -2.5546  0.6418 -0.2615
17703TIP3    H274601   5.975   1.823   1.963  0.1840 -0.4327 -0.2062
17704TIP3   OH274602   6.319   0.538  12.431 -0.5006  0.2350 -0.1117
17704TIP3    H174603   6.358   0.450  12.424 -1.3372 -0.1237 -0.4111
17704TIP3    H274604   6.380   0.595  12.386 -0.1809 -0.2730 -0.3361
17705TIP3   OH274605   5.317   0.477  16.678  0.2396  0.0067  0.0138
17705TIP3    H174606   5.293   0.403  16.733 -0.2408  0.9800  1.1422
17705TIP3    H274607   5.247   0.541  16.691  0.5474  0.5928 -1.0870
17706TIP3   OH274608   3.664   0.053   3.035  0.0633 -0.2085  0.0009
17706TIP3    H174609   3.745   0.023   2.994  0.2195  1.1645 -0.7712
17706TIP3    H274610   3.606   0.073   2.962  0.3725  2.3784  0.3786
17707TIP3   OH274611   4.013   3.502  11.037 -0.0614  0.0075  0.0181
17707TIP3    H174612   4.106   3.479  11.041 -0.4922 -1.6853  2.6833
17707TIP3    H274613   3.986   3.475  10.949  2.4894  3.4033 -2.1150
17708TIP3   OH274614   0.066   3.454  15.438 -0.0076  0.1669 -0.4229
17708TIP3    H174615   0.153   3.414  15.443 -0.1021 -0.1997 -1.4544
17708TIP3    H274616   0.072   3.516  15.365 -0.9421 -0.7504 -1.3100
17709TIP3   OH274617   6.121   0.483  12.620  0.0679 -0.3343  0.2971
17709TIP3    H174618   6.126   0.387  12.620  1.9641 -0.2809 -0.1983
17709TIP3    H274619   6.177   0.509  12.547 -0.1750  1.1736  0.6267
17710TIP3   OH274620   4.738   4.054  12.751  0.3567 -0.0027  0.3122
17710TIP3    H174621   4.693   4.094  12.676 -0.7445  0.1174  1.0032
17710TIP3    H274622   4.727   3.960  12.737 -1.5780  0.0229  1.2700
17711TIP3   OH274623   4.736   0.606  16.144  0.4867 -0.1881 -0.5249
17711TIP3    H174624   4.783   0.680  16.185  0.5603  0.0339 -1.0064
17711TIP3    H274625   4.782   0.591  16.062  0.0718 -0.3572 -0.7257
17712TIP3   OH274626   2.885   1.464   2.190  0.1661  0.0207 -0.1098
17712TIP3    H174627   2.966   1.413   2.185  0.8494  1.1353 -0.7765
17712TIP3    H274628   2.912   1.551   2.219 -1.2247 -0.4553  3.0411
17713TIP3   OH274629   3.549   1.034   2.008  0.4343  0.6652  0.2447
17713TIP3    H174630   3.476   0.973   1.999 -0.6807  1.7907  1.3633
17713TIP3    H274631   3.510   1.114   2.043  1.9789  1.7895 -0.4749
17714TIP3   OH274632   0.850   2.899   6.047  0.1694 -0.6276  0.0436
17714TIP3    H174633   0.833   2.903   6.141  0.1416 -0.1448  0.0234
17714TIP3    H274634   0.924   2.839   6.039 -0.6412 -1.6788  0.2524
17715TIP3   OH274635   5.664   1.233   5.051  0.9540  0.3160  0.0302
17715TIP3    H174636   5.700   1.219   5.138 -1.2669 -2.9838  0.6208
17715TIP3    H274637   5.590   1.293   5.065 -1.5253 -2.7113  1.2716
17716TIP3   OH274638   6.648   3.713  14.009  0.4770 -0.0843  0.1709
17716TIP3    H174639   6.739   3.687  14.004  0.1102 -1.0707 -2.4997
17716TIP3    H274640   6.639   3.783  13.945 -0.5144  0.5373  0.9437
17717TIP3   OH274641   5.949   2.119  11.899 -0.3972 -0.1705 -0.3354
17717TIP3    H174642   5.871   2.078  11.935 -0.0055 -0.4351  0.2267
17717TIP3    H274643   5.924   2.211  11.887 -0.3190  0.1148  1.3467
17718TIP3   OH274644   3.230   5.317  13.315  0.4266  0.5468  0.7429
17718TIP3    H174645   3.203   5.270  13.394 -2.0604  0.1854 -0.2553
17718TIP3    H274646   3.281   5.253  13.265  1.4328  0.5696  1.6999
17719TIP3   OH274647   2.403   6.126   2.832 -0.5322 -0.3401 -0.1419
17719TIP3    H174648   2.471   6.140   2.766  0.3529  0.3664  0.8943
17719TIP3    H274649   2.321   6.128   2.782  0.0694  0.7325 -1.1401
17720TIP3   OH274650   1.263   3.725  15.280 -0.2960  0.4211 -0.0818
17720TIP3    H174651   1.344   3.775  15.286  0.7771 -1.1802 -0.5058
17720TIP3    H274652   1.278   3.649  15.337 -0.5667 -1.0538 -1.8991
17721TIP3   OH274653   6.590   4.966   4.709  0.9400 -1.0594 -0.3001
17721TIP3    H174654   6.627   5.021   4.778  1.1621 -2.7396  0.9929
17721TIP3    H274655   6.580   4.880   4.750 -3.9214 -0.9333 -0.6477
17722TIP3   OH274656   4.088   3.286  11.637 -0.3675 -0.6499 -0.0883
17722TIP3    H174657   4.091   3.380  11.617  2.4276 -0.1466  1.9907
17722TIP3    H274658   4.153   3.247  11.579  0.3424 -0.8193  0.7875
17723TIP3   OH274659   3.992   5.830  16.551  0.0597 -0.2030 -0.4664
17723TIP3    H174660   3.979   5.923  16.570 -1.7336 -0.8271  1.8865
17723TIP3    H274661   4.038   5.829  16.467 -0.7741  2.7655 -1.0911
17724TIP3   OH274662   6.524   2.752  14.678 -1.0278  0.4227  0.0165
17724TIP3    H174663   6.496   2.663  14.700  0.3289 -0.0336  0.0001
17724TIP3    H274664   6.513   2.757  14.583 -1.2065  0.3080  0.0302
17725TIP3   OH274665   1.322   0.543   0.328  0.3520 -0.2093 -0.0737
17725TIP3    H174666   1.341   0.546   0.234 -0.0737 -0.2484 -0.1662
17725TIP3    H274667   1.339   0.452   0.353  0.3782 -0.2214 -0.1352
17726TIP3   OH274668   5.667   4.197  13.908 -0.2348 -0.2505  0.1405
17726TIP3    H174669   5.704   4.230  13.826 -0.2535 -0.3455  0.0933
17726TIP3    H274670   5.627   4.274  13.949  0.2732 -0.0827  0.3352
17727TIP3   OH274671   3.967   4.302  12.671  0.1549 -0.2135  0.3352
17727TIP3    H174672   3.949   4.307  12.765  1.3497 -0.1202  0.5750
17727TIP3    H274673   3.884   4.322  12.630 -0.2881  0.1620  1.3756
17728TIP3   OH274674   2.144   0.865   1.516  0.0500  0.6577 -0.4824
17728TIP3    H174675   2.197   0.796   1.476  0.5400 -0.1533  1.4511
17728TIP3    H274676   2.149   0.847   1.609 -4.1189  0.1745 -0.1885
17729TIP3   OH274677   2.488   3.426   5.640  0.0073  0.2879  0.2476
17729TIP3    H174678   2.581   3.430   5.617 -0.0816 -0.3373 -0.2685
17729TIP3    H274679   2.473   3.335   5.665  0.0858  0.9274  2.8537
17730TIP3   OH274680   6.219   4.635   6.356  0.1198  0.1884  0.2629
17730TIP3    H174681   6.261   4.640   6.442  1.7905 -0.1195 -0.5066
17730TIP3    H274682   6.182   4.546   6.353  1.3316 -0.3278  0.1103
17731TIP3   OH274683   3.098   6.156   4.401  0.0260  0.2699 -0.1367
17731TIP3    H174684   3.062   6.085   4.348 -1.3120  1.0612 -0.3501
17731TIP3    H274685   3.061   6.236   4.362 -1.1699  0.8843  2.0615
17732TIP3   OH274686   3.896   2.051  15.819  0.4392  0.0803 -0.0391
17732TIP3    H174687   3.902   2.143  15.791  0.5523 -0.5337 -2.1686
17732TIP3    H274688   3.803   2.029  15.810  0.2172  0.2528  1.5147
17733TIP3   OH274689   3.662   5.654   2.666  0.2789  0.0109  0.2571
17733TIP3    H174690   3.677   5.677   2.574  1.5406 -0.6067  0.2891
17733TIP3    H274691   3.665   5.558   2.667  0.2593  0.0132  0.9379
17734TIP3   OH274692   2.737   2.486   1.945 -0.2436 -0.3860 -0.0889
17734TIP3    H174693   2.765   2.433   1.871  1.0360 -2.6041  1.8299
17734TIP3    H274694   2.781   2.570   1.933 -0.4140 -0.5268 -1.9999
17735TIP3   OH274695   3.535   1.483   2.274  0.6367 -0.1164  0.4861
17735TIP3    H174696   3.502   1.561   2.230  0.6634 -0.3397  0.0669
17735TIP3    H274697   3.456   1.436   2.301  0.3636 -2.5081 -3.7020
17736TIP3   OH274698   4.914   1.672   0.950  0.3306 -0.1787 -0.5006
17736TIP3    H174699   4.881   1.727   1.021 -2.7275  2.0630 -3.2743
17736TIP3    H274700   4.880   1.585   0.969 -2.6763  0.8978 -0.2922
17737TIP3   OH274701   2.580   4.985   0.048  0.5813 -0.1520 -0.3978
17737TIP3    H174702   2.539   4.914   0.098 -0.6910  0.4139 -0.6000
17737TIP3    H274703   2.541   4.978  -0.039  0.3037  0.9088 -0.3641
17738TIP3   OH274704   5.317   0.118  11.443  0.1518  0.9380 -0.2430
17738TIP3    H174705   5.334   0.163  11.361  0.5573 -1.9251 -1.8724
17738TIP3    H274706   5.235   0.071  11.428  1.0244 -0.8756  0.3833
17739TIP3   OH274707   0.723   5.832   4.937  0.2261 -0.0276  0.1807
17739TIP3    H174708   0.679   5.750   4.915  1.5576 -0.2719 -1.7689
17739TIP3    H274709   0.653   5.898   4.933 -0.7222 -0.9294  1.1139
17740TIP3   OH274710   6.727   3.915  13.339  0.0378 -0.5328  0.1724
17740TIP3    H174711   6.668   3.990  13.343 -1.3372 -1.0760 -4.1667
17740TIP3    H274712   6.716   3.870  13.423 -1.8131  2.1453  1.4941
17741TIP3   OH274713   2.589   2.687   0.243  0.4293 -0.6787 -0.2353
17741TIP3    H174714   2.515   2.649   0.291  1.4767 -0.6421  1.5012
17741TIP3    H274715   2.601   2.773   0.282  1.2539 -0.5918 -0.6590
17742TIP3   OH274716   3.509   5.576  13.273  0.1093  0.0924  0.4209
17742TIP3    H174717   3.581   5.518  13.245 -0.6935 -1.0922  0.7399
17742TIP3    H274718   3.497   5.555  13.365 -0.9470 -0.0604  0.2606
17743TIP3   OH274719   4.299   4.416   1.090  0.0576 -0.1791 -0.2347
17743TIP3    H174720   4.236   4.487   1.090  0.1812 -0.0678 -0.3090
17743TIP3    H274721   4.316   4.398   1.183 -2.7739 -2.6387 -0.0453
17744TIP3   OH274722   0.830   4.725   2.412  0.7516 -0.2454 -0.6521
17744TIP3    H174723   0.884   4.700   2.336 -1.3373 -3.2621 -1.3168
17744TIP3    H274724   0.851   4.660   2.479  0.5330  0.7234  0.3925
17745TIP3   OH274725   1.764   4.215   3.077  0.3886  0.6895  0.0842
17745TIP3    H174726   1.853   4.237   3.052  0.3555  0.5591 -0.1528
17745TIP3    H274727   1.745   4.134   3.029  0.7898 -0.2986  1.5336
17746TIP3   OH274728   4.751   3.494   6.061 -0.2145 -0.0360 -0.7789
17746TIP3    H174729   4.673   3.481   6.115  1.5042 -1.6466  1.5242
17746TIP3    H274730   4.802   3.559   6.108 -0.7293  2.1709 -3.0632
17747TIP3   OH274731   1.903   5.338  14.378 -0.2407 -0.1809  0.3306
17747TIP3    H174732   1.857   5.324  14.461  0.4120 -1.7348  0.4606
17747TIP3    H274733   1.995   5.342  14.401 -0.1320  0.6785 -0.1903
17748TIP3   OH274734   2.980   3.024  14.895  0.5116 -0.4863 -0.4189
17748TIP3    H174735   2.943   3.112  14.901 -0.3789 -0.9055  0.3888
17748TIP3    H274736   3.060   3.036  14.843  0.0058  0.6663 -0.9713
17749TIP3   OH274737   0.863   3.619  10.432  0.1148 -0.1148  0.0818
17749TIP3    H174738   0.897   3.632  10.521  0.0575 -4.7813  1.0605
17749TIP3    H274739   0.941   3.610  10.377  0.3412 -1.7902  0.6185
17750TIP3   OH274740   3.953   1.370   2.643  0.2586  0.1468 -0.1859
17750TIP3    H174741   3.921   1.370   2.733  1.4064 -1.1102  0.2587
17750TIP3    H274742   3.874   1.371   2.589 -0.4670 -0.1875  0.8463
17751TIP3   OH274743   5.880   2.681   4.525  0.5868  0.1211  0.0936
17751TIP3    H174744   5.903   2.706   4.436  0.2178 -1.6064 -0.5268
17751TIP3    H274745   5.963   2.657   4.566  0.5169 -1.6942 -0.6980
17752TIP3   OH274746   2.968   2.750  15.406  0.2058 -0.0600  1.0351
17752TIP3    H174747   3.061   2.766  15.425  0.4750  2.3176 -1.5314
17752TIP3    H274748   2.968   2.674  15.348  0.5492 -0.0290  0.9927
17753TIP3   OH274749   0.725   0.932  13.722  0.0340 -0.0216  0.1969
17753TIP3    H174750   0.801   0.977  13.759 -0.4344  0.2210  0.8793
17753TIP3    H274751   0.684   0.996  13.664  0.4849 -0.2402 -0.3858
17754TIP3   OH274752   5.944   5.684  14.549 -0.0249 -0.0212  0.0312
17754TIP3    H174753   5.916   5.709  14.460  1.0467 -1.8024 -0.8591
17754TIP3    H274754   6.030   5.724  14.559 -0.9062  1.7457  1.0533
17755TIP3   OH274755   3.528   6.830  13.858 -0.3981 -0.0150 -0.1869
17755TIP3    H174756   3.546   6.922  13.838 -0.3816  0.3180  1.2952
17755TIP3    H274757   3.453   6.832  13.917 -1.2667 -1.0486 -1.2068
17756TIP3   OH274758   0.813   6.060  13.527 -0.8557 -0.4424  0.4406
17756TIP3    H174759   0.906   6.041  13.541 -1.1761 -1.2707  1.6049
17756TIP3    H274760   0.767   5.983  13.560 -1.9925  0.2615  0.5772
17757TIP3   OH274761   2.456   3.434  14.525 -0.0189 -0.5040  0.1182
17757TIP3    H174762   2.547   3.461  14.514  0.1802  0.2279  2.9010
17757TIP3    H274763   2.461   3.342  14.551 -0.3377 -1.4484 -2.8081
17758TIP3   OH274764   0.873   5.072   2.058  0.2721 -0.3196 -0.3433
17758TIP3    H174765   0.910   4.989   2.086  1.6557  0.5127  0.4277
17758TIP3    H274766   0.820   5.051   1.980  2.4254 -1.5826 -1.5537
17759TIP3   OH274767   4.949   4.289   0.852 -0.1315 -0.3708 -0.3318
17759TIP3    H174768   5.023   4.252   0.901 -1.5641 -1.6592  0.9517
17759TIP3    H274769   4.895   4.332   0.918 -0.4279  0.7690 -1.2881
17760TIP3   OH274770   2.594   3.225   1.958 -0.5636 -0.5578  0.2647
17760TIP3    H174771   2.544   3.298   1.994 -0.3810 -0.8445  1.1394
17760TIP3    H274772   2.635   3.184   2.034  0.6200 -0.6215 -0.3826
17761TIP3   OH274773   1.118   3.486  12.605 -0.8723 -0.0662 -0.2250
17761TIP3    H174774   1.127   3.569  12.557  1.1914 -0.4669 -0.6413
17761TIP3    H274775   1.143   3.507  12.695  2.5677 -0.7045 -0.8984
17762TIP3   OH274776   2.129   1.343  14.069 -0.2963 -0.0381 -0.6691
17762TIP3    H174777   2.204   1.388  14.029  0.5593 -0.7535  0.0909
17762TIP3    H274778   2.070   1.325  13.996  0.8278 -0.5382 -1.4824
17763TIP3   OH274779   0.545   4.154  15.231 -0.2097  0.0373  0.6133
17763TIP3    H174780   0.630   4.113  15.211 -1.1170 -1.0588 -1.2954
17763TIP3    H274781   0.513   4.185  15.146 -1.4411  1.0280  1.4045
17764TIP3   OH274782   0.380   2.124   2.850 -0.4102  0.4660 -0.2409
17764TIP3    H174783   0.376   2.096   2.941  0.5792 -2.3590 -0.9541
17764TIP3    H274784   0.374   2.220   2.854 -2.0553  0.3549  2.6177
17765TIP3   OH274785   0.241   4.850  11.865  0.3693  0.0696 -0.4940
17765TIP3    H174786   0.162   4.867  11.916  0.5824 -1.2051  0.3087
17765TIP3    H274787   0.209   4.822  11.779 -0.0380 -0.0633 -0.2985
17766TIP3   OH274788   4.344   4.834   3.101  0.3305  0.8606  0.1407
17766TIP3    H174789   4.434   4.809   3.119  0.2344 -0.4450 -1.0564
17766TIP3    H274790   4.296   4.813   3.182  1.1380  2.0083  0.9567
17767TIP3   OH274791   4.368   0.014  13.915  0.0657 -0.5647 -0.2284
17767TIP3    H174792   4.308   0.066  13.969 -0.4860  0.3034 -1.6497
17767TIP3    H274793   4.379  -0.067  13.965 -1.7293 -0.4579  0.4327
17768TIP3   OH274794   6.603   1.230   3.634 -0.0042 -0.4505 -0.1005
17768TIP3    H174795   6.568   1.314   3.604  0.2570  0.5765  2.2598
17768TIP3    H274796   6.534   1.194   3.690  0.2693 -1.3802 -0.3402
17769TIP3   OH274797   2.182   0.668  15.443 -0.0031 -0.2716  0.4097
17769TIP3    H174798   2.114   0.627  15.389 -0.1387 -0.6495  0.8700
17769TIP3    H274799   2.144   0.673  15.531  0.4417 -0.1872  0.5993
17770TIP3   OH274800   2.000   6.742  10.892 -0.3086  0.0808  0.1225
17770TIP3    H174801   1.984   6.818  10.835 -0.2906  0.4968  0.6549
17770TIP3    H274802   1.958   6.669  10.847 -2.2391  0.8105  0.6398
17771TIP3   OH274803   1.670   5.053   0.937 -0.0106 -0.2421 -0.6855
17771TIP3    H174804   1.637   4.998   1.008 -0.4979 -0.5993 -1.1795
17771TIP3    H274805   1.756   5.082   0.968  0.6833 -2.0377 -0.7646
17772TIP3   OH274806   1.626   3.987   2.961  0.5123 -0.0018  0.0340
17772TIP3    H174807   1.566   3.962   2.891  1.3826 -0.1846 -0.6666
17772TIP3    H274808   1.595   3.938   3.038  0.1723 -0.6151 -0.4820
17773TIP3   OH274809   0.714   6.423   0.913  0.1389 -0.2485  0.6535
17773TIP3    H174810   0.748   6.467   0.991 -0.7952  2.1095 -0.1532
17773TIP3    H274811   0.703   6.494   0.849 -0.7623 -1.8243 -1.0375
17774TIP3   OH274812   3.320   6.422   2.463 -0.0214  0.4356  0.2162
17774TIP3    H174813   3.255   6.482   2.500 -1.8886 -0.0307 -2.0796
17774TIP3    H274814   3.270   6.343   2.441  1.2318  0.1547 -1.8761
17775TIP3   OH274815   3.838   2.378   3.662 -1.3000  0.8509 -0.0399
17775TIP3    H174816   3.861   2.285   3.668 -3.5418 -0.0796 -3.0485
17775TIP3    H274817   3.834   2.408   3.753 -0.4006 -1.9539  1.0262
17776TIP3   OH274818   0.026   5.976   3.738  0.5375  0.5667  0.1301
17776TIP3    H174819   0.095   5.929   3.784  0.5284  0.3097 -0.1199
17776TIP3    H274820   0.040   6.068   3.762 -0.0220  0.3468  1.3735
17777TIP3   OH274821   1.554   4.522   2.665 -0.2422 -0.2821  0.3516
17777TIP3    H174822   1.646   4.548   2.672 -0.1391  0.2613 -2.1198
17777TIP3    H274823   1.556   4.432   2.633 -0.5550 -0.3432  0.5008
17778TIP3   OH274824   6.284   2.447  14.229 -0.0374  0.2574  0.6315
17778TIP3    H174825   6.358   2.442  14.168 -0.4489  1.9109 -0.0592
17778TIP3    H274826   6.250   2.358  14.233  1.5159 -0.3774  0.3721
17779TIP3   OH274827   2.616   0.062   1.556  0.3208 -0.4582  0.4068
17779TIP3    H174828   2.623   0.129   1.624  3.1277 -0.7716  0.5358
17779TIP3    H274829   2.679  -0.005   1.582 -0.9560 -2.2217 -0.7818
17780TIP3   OH274830   0.551   6.099   5.632 -0.0933  0.5123  0.1899
17780TIP3    H174831   0.600   6.029   5.676 -1.6292  0.0283  1.2338
17780TIP3    H274832   0.571   6.088   5.539  0.9583 -0.2850  0.4863
17781TIP3   OH274833   5.683   5.093   2.113  0.0770 -0.4533  0.0058
17781TIP3    H174834   5.724   5.142   2.184 -0.9793 -0.3279  0.5452
17781TIP3    H274835   5.672   5.157   2.043  1.5244 -0.6793 -0.4658
17782TIP3   OH274836   1.388   0.723   3.632 -0.2655  0.7701 -0.4816
17782TIP3    H174837   1.349   0.776   3.702 -0.7347 -0.1406 -0.0347
17782TIP3    H274838   1.346   0.755   3.552 -0.9621  0.7023 -0.1523
17783TIP3   OH274839   6.502   1.076   1.313 -0.2587  0.5228  0.3743
17783TIP3    H174840   6.556   1.000   1.336 -3.0107 -2.0009 -0.8387
17783TIP3    H274841   6.439   1.083   1.385 -0.3297  1.4054  0.2395
17784TIP3   OH274842   1.834   1.328   2.819  0.0809  0.3218  0.0102
17784TIP3    H174843   1.792   1.298   2.738 -0.5651 -1.4118  0.9567
17784TIP3    H274844   1.763   1.337   2.882  0.6069  1.4357  0.4779
17785TIP3   OH274845   6.370   4.667  12.898  0.1088  0.2907 -0.2979
17785TIP3    H174846   6.452   4.629  12.865  0.8923  1.4592  0.2272
17785TIP3    H274847   6.340   4.723  12.826 -1.0319 -1.2481 -1.0631
17786TIP3   OH274848   5.302   1.311  11.411  0.4499  0.1953  0.3251
17786TIP3    H174849   5.252   1.338  11.334  1.5209  1.7673  0.1428
17786TIP3    H274850   5.392   1.337  11.392  1.3061 -2.1455  0.8428
17787TIP3   OH274851   4.091   1.059   6.034 -0.3634  0.5588  0.5530
17787TIP3    H174852   4.014   1.101   6.072  0.1370  1.0515  1.0295
17787TIP3    H274853   4.073   0.965   6.041 -0.3819  0.6457  1.8022
17788TIP3   OH274854   6.249   1.066   0.893  0.0448  0.7322 -0.4934
17788TIP3    H174855   6.165   1.073   0.848  0.2305  2.0822 -0.6653
17788TIP3    H274856   6.311   1.040   0.826 -0.2195 -0.2433 -0.3714
17789TIP3   OH274857   5.662   3.492   3.698 -0.0695  0.0090 -0.4168
17789TIP3    H174858   5.568   3.490   3.717  0.1952 -0.8371  0.9494
17789TIP3    H274859   5.684   3.586   3.696 -0.5533  0.2124  1.4987
17790TIP3   OH274860   2.312   1.861  11.814 -0.1215  0.2322 -0.7951
17790TIP3    H174861   2.374   1.846  11.743  0.4225 -2.9156  0.1697
17790TIP3    H274862   2.367   1.880  11.890 -0.5230  0.4807 -0.5637
17791TIP3   OH274863   4.039   4.391  14.648  0.0441 -0.8522  0.0667
17791TIP3    H174864   3.965   4.339  14.616 -0.9120  0.9462 -0.7985
17791TIP3    H274865   3.999   4.473  14.677  1.5932 -0.2784  0.6497
17792TIP3   OH274866   4.292   3.499   1.730  0.2387 -0.1951 -0.1568
17792TIP3    H174867   4.344   3.419   1.718  0.9649  0.4206 -1.3577
17792TIP3    H274868   4.242   3.507   1.649  0.8315  1.0148 -0.4334
17793TIP3   OH274869   2.878   3.759   1.333 -0.4096 -0.6973  0.4579
17793TIP3    H174870   2.896   3.853   1.327 -0.7589 -0.4986  2.1367
17793TIP3    H274871   2.955   3.719   1.292 -0.2248  0.3089 -0.2350
17794TIP3   OH274872   2.480   6.401   5.726  0.4235 -0.3171 -0.0145
17794TIP3    H174873   2.527   6.328   5.685  0.9270 -0.7111  1.2065
17794TIP3    H274874   2.547   6.446   5.778 -0.1171  0.3778  0.0926
17795TIP3   OH274875   6.485   5.446  14.119  0.5380  0.3489  0.4575
17795TIP3    H174876   6.572   5.459  14.080  1.0256  0.9718  1.6882
17795TIP3    H274877   6.425   5.488  14.057  1.2996  1.4311  0.4180
17796TIP3   OH274878   3.128   0.770   4.866  0.5525 -0.5392 -0.2190
17796TIP3    H174879   3.088   0.719   4.935  0.6515 -2.7072 -1.6805
17796TIP3    H274880   3.223   0.758   4.879  0.5956 -0.1950 -0.1976
17797TIP3   OH274881   2.300   5.562  16.903  0.0215 -0.0851 -0.2053
17797TIP3    H174882   2.371   5.555  16.968 -0.7238 -0.2094  0.6053
17797TIP3    H274883   2.296   5.656  16.882  0.3823 -0.0691 -0.2214
17798TIP3   OH274884   3.524   2.180  15.768 -0.0455 -0.2165  0.5327
17798TIP3    H174885   3.492   2.148  15.683 -2.4337 -0.2828  1.3702
17798TIP3    H274886   3.540   2.102  15.819  1.5493 -0.1801  0.1381
17799TIP3   OH274887   1.587   4.718  13.104 -0.2516  0.0997  0.5327
17799TIP3    H174888   1.511   4.662  13.120  0.5132 -1.1719 -0.1019
17799TIP3    H274889   1.659   4.672  13.147  0.8229 -0.6267 -1.8755
17800TIP3   OH274890   1.739   3.934   4.477 -0.1738  0.2330  0.2377
17800TIP3    H174891   1.778   3.895   4.398  0.4536  0.7667  0.2734
17800TIP3    H274892   1.775   4.022   4.480 -0.6166  0.4000  0.8357
17801TIP3   OH274893   1.627   5.605  13.102  0.0270 -0.0031 -0.5575
17801TIP3    H174894   1.708   5.569  13.066 -1.4652 -0.9481 -3.2690
17801TIP3    H274895   1.606   5.679  13.044 -2.1855 -1.2126 -1.4067
17802TIP3   OH274896   0.973   3.180   2.985 -0.1911  0.0596  0.2521
17802TIP3    H174897   1.040   3.118   3.015 -1.1017 -1.5925 -0.9496
17802TIP3    H274898   1.018   3.231   2.917  0.6444  0.9508  1.4351
17803TIP3   OH274899   5.044   0.658   6.085 -0.7705 -0.2975  0.2786
17803TIP3    H174900   5.040   0.602   6.007 -1.6323 -0.2040  0.2434
17803TIP3    H274901   5.138   0.668   6.102 -0.5893 -1.4219  0.0473
17804TIP3   OH274902   1.593   6.162   4.124 -0.3261  0.1069  0.0823
17804TIP3    H174903   1.636   6.082   4.095 -0.3249 -0.4556  1.5889
17804TIP3    H274904   1.663   6.215   4.162 -0.6567 -0.0710  0.9647
17805TIP3   OH274905   0.458   4.381  15.323 -0.3953 -0.4659  0.0913
17805TIP3    H174906   0.522   4.392  15.393 -1.0438 -0.0973  0.6383
17805TIP3    H274907   0.475   4.294  15.288 -0.4083 -0.8594  1.0519
17806TIP3   OH274908   2.062   5.118  14.756  0.0995 -0.3643  0.6436
17806TIP3    H174909   1.996   5.076  14.811 -0.5751  0.4138  0.4468
17806TIP3    H274910   2.015   5.144  14.677  0.7827 -0.3493  0.2341
17807TIP3   OH274911   6.333   3.731   5.660  0.2907 -0.2602 -0.1397
17807TIP3    H174912   6.265   3.792   5.688  0.9376  0.4030 -0.0003
17807TIP3    H274913   6.294   3.686   5.584 -0.8337 -0.9068  0.7911
17808TIP3   OH274914   0.425   4.438   0.564  0.2080  0.2875 -0.3798
17808TIP3    H174915   0.337   4.416   0.598  0.6817 -0.2516  0.5541
17808TIP3    H274916   0.416   4.527   0.532 -1.2501 -0.4772 -2.3372
17809TIP3   OH274917   5.789   5.972  15.044  0.5548  0.2292 -0.4909
17809TIP3    H174918   5.834   5.956  15.127  0.5306 -1.3509 -0.7556
17809TIP3    H274919   5.856   6.007  14.987  1.2098 -1.0449 -0.5405
17810TIP3   OH274920   0.573   3.969  12.142  0.2997  0.2858 -0.3964
17810TIP3    H174921   0.601   3.885  12.106  0.0551 -0.0743  0.2436
17810TIP3    H274922   0.583   3.960  12.237 -0.6363  0.6410 -0.2524
17811TIP3   OH274923   4.570   1.218  13.845  0.4111  0.7148  1.0147
17811TIP3    H174924   4.575   1.234  13.751 -1.8112 -1.4495  0.4230
17811TIP3    H274925   4.604   1.129  13.856 -0.8129  0.3398  2.0117
17812TIP3   OH274926   1.794   3.061   4.505 -0.2563  0.0825  0.6565
17812TIP3    H174927   1.869   3.015   4.466 -0.2851  1.1373 -0.7175
17812TIP3    H274928   1.828   3.099   4.586  1.5337  2.7505 -1.1736
17813TIP3   OH274929   4.504   4.505  13.732  0.0473 -0.1918 -0.1215
17813TIP3    H174930   4.493   4.532  13.823  0.0891  0.5508 -0.3281
17813TIP3    H274931   4.472   4.415  13.729  0.8642 -0.5303  0.8131
17814TIP3   OH274932   2.742   5.693   6.242 -1.0652  0.1833  0.4169
17814TIP3    H174933   2.648   5.710   6.248 -0.9378  0.3113  2.5207
17814TIP3    H274934   2.766   5.655   6.327  1.2809  2.7071  1.0060
17815TIP3   OH274935   5.962   4.981  12.641 -0.1908  1.1390 -0.0437
17815TIP3    H174936   5.969   4.970  12.546 -0.9989  1.8678 -0.1988
17815TIP3    H274937   5.908   4.908  12.670 -0.2161  1.1009 -0.1850
17816TIP3   OH274938   3.266   0.097  11.085 -0.1825  0.0298 -0.1025
17816TIP3    H174939   3.289   0.021  11.138 -0.9657 -0.3651 -0.3054
17816TIP3    H274940   3.240   0.060  11.000 -1.6815  0.4067  0.1604
17817TIP3   OH274941   4.180   4.922  12.193  0.2444 -0.5483  0.0848
17817TIP3    H174942   4.224   4.948  12.112 -0.6123 -0.8965 -0.5067
17817TIP3    H274943   4.108   4.866  12.164 -0.3887 -0.2538  1.0514
17818TIP3   OH274944   6.657   3.004   1.505  0.6223  0.3333  0.4257
17818TIP3    H174945   6.704   2.936   1.553 -0.8394  0.0054  1.4794
17818TIP3    H274946   6.630   3.067   1.572 -1.5900 -0.2037  0.1144
17819TIP3   OH274947   0.476   6.413  17.054 -0.2041 -0.4558 -0.0650
17819TIP3    H174948   0.556   6.449  17.014  0.2098 -1.7822 -0.5084
17819TIP3    H274949   0.405   6.464  17.016  0.4723  1.9304  1.6256
17820TIP3   OH274950   3.021   4.104   0.498 -0.0910  0.0025 -0.0265
17820TIP3    H174951   2.936   4.076   0.531 -0.1758  0.6221  0.2994
17820TIP3    H274952   3.081   4.035   0.526 -0.6300 -0.9395 -1.1228
17821TIP3   OH274953   1.966   1.004  12.398  0.0561  0.3456  0.0837
17821TIP3    H174954   1.912   0.938  12.442 -0.6146  0.3460 -0.7114
17821TIP3    H274955   1.903   1.063  12.358  0.6577  1.0760  0.1898
17822TIP3   OH274956   1.780   4.390   6.143  0.5587 -0.4239  0.3408
17822TIP3    H174957   1.857   4.417   6.093  1.6619 -1.5799  1.3620
17822TIP3    H274958   1.798   4.300   6.170 -1.2795 -0.8377  0.3835
17823TIP3   OH274959   0.036   4.783  16.099  0.2038 -0.0991  0.6619
17823TIP3    H174960   0.056   4.702  16.051 -0.6417 -0.0999  0.3030
17823TIP3    H274961   0.022   4.755  16.189  1.8678 -0.0911  0.9702
17824TIP3   OH274962   2.268   5.946  13.231  0.3080 -0.2066  0.0597
17824TIP3    H174963   2.233   5.870  13.277  1.0102 -0.0065  0.9364
17824TIP3    H274964   2.347   5.970  13.279  0.2410  0.9261 -0.3527
17825TIP3   OH274965   6.794   5.159   2.324  0.1883  0.1187  0.1740
17825TIP3    H174966   6.761   5.199   2.405  0.4143  0.9957 -0.1571
17825TIP3    H274967   6.719   5.109   2.291  0.0349 -0.1018  0.8254
17826TIP3   OH274968   4.628   5.212  15.899 -0.1546 -0.3809  0.1604
17826TIP3    H174969   4.638   5.233  15.992  0.0783 -1.6603  0.4504
17826TIP3    H274970   4.533   5.207  15.886 -0.1817 -0.6267  0.4396
17827TIP3   OH274971   0.065   3.504   6.388 -0.3190 -0.2052 -0.6690
17827TIP3    H174972   0.066   3.504   6.484 -0.6514 -1.1231 -0.6524
17827TIP3    H274973   0.127   3.572   6.363 -1.5774  1.3225  0.1945
17828TIP3   OH274974   3.467   2.427  14.065 -0.1465 -0.0575 -0.1208
17828TIP3    H174975   3.483   2.334  14.079 -1.2041 -0.4928 -1.5415
17828TIP3    H274976   3.386   2.445  14.112 -0.7025 -0.2154 -0.9849
17829TIP3   OH274977   0.054   2.377  12.834  0.3838 -0.0817  0.4349
17829TIP3    H174978  -0.014   2.329  12.789 -1.7257  0.8300  2.4473
17829TIP3    H274979   0.031   2.372  12.926  2.3060  1.4097  1.0845
17830TIP3   OH274980   4.902   1.146   2.844 -0.6491  0.6563 -0.0952
17830TIP3    H174981   4.830   1.196   2.883  0.4519  2.1144  0.1657
17830TIP3    H274982   4.871   1.125   2.756 -0.8274  2.6610 -0.5729
17831TIP3   OH274983   1.355   2.510   0.060  0.1734 -0.6876  0.5724
17831TIP3    H174984   1.330   2.539   0.148  0.3265  0.0061  0.3978
17831TIP3    H274985   1.285   2.543   0.003  0.0899 -1.1082  0.4305
17832TIP3   OH274986   5.983   6.137  11.122 -0.5541 -0.1853 -0.0892
17832TIP3    H174987   5.932   6.217  11.109 -0.7725 -0.3441 -0.2214
17832TIP3    H274988   6.058   6.146  11.063  2.0901  2.1220  3.2524
17833TIP3   OH274989   6.683   1.358   5.659 -0.5010  0.0471 -0.6135
17833TIP3    H174990   6.675   1.273   5.615 -0.0299 -0.8643  0.9520
17833TIP3    H274991   6.774   1.360   5.690 -0.6618  0.8780 -0.1614
17834TIP3   OH274992   5.233   3.790   0.136 -0.3347  0.0121  0.3479
17834TIP3    H174993   5.214   3.881   0.115  1.8076  0.4786  0.1611
17834TIP3    H274994   5.324   3.778   0.108 -0.2965 -1.9377  1.1628
17835TIP3   OH274995   2.400   3.512   6.115 -0.7547 -0.2333 -0.3381
17835TIP3    H174996   2.356   3.476   6.192 -0.0142 -0.1704  0.1141
17835TIP3    H274997   2.447   3.589   6.147 -0.1935 -0.3839 -0.7861
17836TIP3   OH274998   2.601   5.352   1.833  0.1971 -0.3918 -0.0376
17836TIP3    H174999   2.554   5.408   1.771  0.9350  0.5180  0.1927
17836TIP3    H275000   2.538   5.284   1.856 -0.1232 -0.7188 -1.7171
17837TIP3   OH275001   5.902   1.172   4.097 -0.3761  0.7196  0.3416
17837TIP3    H175002   5.877   1.227   4.170 -2.1779  1.0605 -0.4716
17837TIP3    H275003   5.832   1.183   4.033  0.5896 -0.4030 -0.9917
17838TIP3   OH275004   4.383   0.911   5.158  0.4724 -0.3200 -0.0444
17838TIP3    H175005   4.448   0.975   5.128  0.7263 -0.4210  0.2775
17838TIP3    H275006   4.332   0.890   5.081  1.3924 -0.9111 -0.5064
17839TIP3   OH275007   1.530   4.643   2.919  0.6081  0.3595  0.1899
17839TIP3    H175008   1.517   4.575   2.986 -1.0210  0.4689  0.0327
17839TIP3    H275009   1.538   4.595   2.837  0.6830  0.2999  0.2325
17840TIP3   OH275010   5.605   4.572  16.033  0.2607  0.2314 -0.6062
17840TIP3    H175011   5.567   4.647  15.988  0.5400  0.0180 -1.2058
17840TIP3    H275012   5.699   4.576  16.012  0.3339 -0.0850 -0.3584
17841TIP3   OH275013   5.317   1.684  15.360  0.7287 -0.6571  0.2577
17841TIP3    H175014   5.353   1.672  15.448 -0.0803  0.8404  0.8129
17841TIP3    H275015   5.244   1.622  15.355  1.3657 -1.4347  0.2612
17842TIP3   OH275016   3.180   4.950  10.451  0.6958 -0.3742 -0.5514
17842TIP3    H175017   3.118   5.009  10.407 -0.1397 -1.6530 -1.1399
17842TIP3    H275018   3.262   4.962  10.403  0.9580  1.3322  0.2279
17843TIP3   OH275019   1.921   2.695  11.956  0.3391 -0.0151 -0.1641
17843TIP3    H175020   1.875   2.684  12.039  0.3868 -2.1825 -0.3552
17843TIP3    H275021   1.854   2.676  11.890  0.8103 -0.4773 -0.5204
17844TIP3   OH275022   4.267   0.955   1.446 -0.6795 -0.4702  0.1417
17844TIP3    H175023   4.237   1.045   1.433 -1.1178 -0.9231 -2.6109
17844TIP3    H275024   4.233   0.930   1.533  1.2596  2.6138  1.9645
17845TIP3   OH275025   5.900   1.277   3.330 -0.2918 -0.0375  0.2612
17845TIP3    H175026   5.974   1.219   3.348  0.3802 -0.1592 -2.4786
17845TIP3    H275027   5.842   1.225   3.274 -1.7914  0.5458  1.2203
17846TIP3   OH275028   1.563   0.561   1.974 -0.7433 -0.3980  0.3823
17846TIP3    H175029   1.622   0.637   1.979 -1.5184  0.2017  0.6776
17846TIP3    H275030   1.484   0.595   1.934 -1.1878 -1.0037  0.7293
17847TIP3   OH275031   1.954   3.727   0.497 -0.2043 -0.4270  0.2431
17847TIP3    H175032   2.036   3.686   0.468 -1.0550 -0.7254 -1.9577
17847TIP3    H275033   1.979   3.817   0.518  0.5894 -0.2767 -1.1833
17848TIP3   OH275034   4.570   1.550  15.046 -0.1767 -0.4777  0.1957
17848TIP3    H175035   4.509   1.502  15.103 -0.7576  1.4539  1.3135
17848TIP3    H275036   4.514   1.612  14.999  0.7887  0.6649  0.5182
17849TIP3   OH275037   4.216   3.352   4.172 -0.1779 -0.1296 -0.3254
17849TIP3    H175038   4.286   3.331   4.110  0.8258 -1.0081  1.0643
17849TIP3    H275039   4.210   3.447   4.170  0.6794 -0.0753 -0.8578
17850TIP3   OH275040   6.163   2.488   6.560 -0.1433 -0.7293  0.1492
17850TIP3    H175041   6.183   2.559   6.498  0.3083 -1.3069 -0.3774
17850TIP3    H275042   6.155   2.532   6.644 -1.1945  0.1360 -0.3694
17851TIP3   OH275043   6.074   3.688  13.124 -0.2768 -0.5257 -0.0243
17851TIP3    H175044   6.040   3.777  13.114 -2.2992 -1.2023  0.5271
17851TIP3    H275045   6.022   3.636  13.063  0.3221 -1.4864  0.2762
17852TIP3   OH275046   4.089   3.585   0.328 -0.2164  0.1290 -0.3596
17852TIP3    H175047   4.062   3.656   0.269 -0.0904 -0.5597 -1.2761
17852TIP3    H275048   4.016   3.575   0.388  0.9756  3.0695  1.8040
17853TIP3   OH275049   2.586   1.733  16.246 -0.3683  0.2712  0.3121
17853TIP3    H175050   2.540   1.663  16.201 -1.1478  0.3547  0.9406
17853TIP3    H275051   2.537   1.745  16.328 -0.2686  1.5460  0.2140
17854TIP3   OH275052   5.202   6.820  12.833  0.2345 -0.3053 -0.2639
17854TIP3    H175053   5.246   6.742  12.866  1.3035  0.4084  0.0686
17854TIP3    H275054   5.190   6.875  12.911 -0.8453 -0.2813 -0.4292
17855TIP3   OH275055   1.825   3.519   0.121  0.0481  0.0800  0.2982
17855TIP3    H175056   1.732   3.532   0.141 -0.2575  1.0472 -1.5419
17855TIP3    H275057   1.860   3.608   0.111  0.8370 -0.2950 -0.4050
17856TIP3   OH275058   4.325   6.143  11.090 -0.2966  0.2711 -0.1058
17856TIP3    H175059   4.367   6.167  11.173  1.3355  1.0286 -1.1117
17856TIP3    H275060   4.395   6.146  11.025 -1.7664  0.8714 -1.7487
17857TIP3   OH275061   1.629   4.061  12.827  0.1420 -0.2345  0.0497
17857TIP3    H175062   1.705   4.117  12.812  0.8982 -0.8210  1.5236
17857TIP3    H275063   1.601   4.082  12.917 -2.3941  1.0500 -0.9153
17858TIP3   OH275064   3.681   2.595   5.833  0.3014  0.3590  0.2259
17858TIP3    H175065   3.621   2.669   5.841 -0.6557 -0.2823 -0.6865
17858TIP3    H275066   3.697   2.588   5.739 -0.1608 -0.9747  0.2192
17859TIP3   OH275067   6.439   6.603  17.055  0.2855  0.6688  1.0319
17859TIP3    H175068   6.506   6.599  17.124  0.4114  2.0832  1.0192
17859TIP3    H275069   6.388   6.682  17.076 -1.2492 -0.2424  0.9024
17860TIP3   OH275070   5.292   2.892   5.288 -0.3766 -0.3167 -0.0696
17860TIP3    H175071   5.345   2.812   5.286 -1.2060 -0.8967  0.7350
17860TIP3    H275072   5.283   2.917   5.196 -0.0657 -1.1128 -0.3218
17861TIP3   OH275073   5.670   4.153  11.361  0.2438  0.0703 -0.6618
17861TIP3    H175074   5.584   4.174  11.397 -0.3041 -0.1014 -1.8295
17861TIP3    H275075   5.732   4.193  11.422 -0.6371 -0.2284  0.4730
17862TIP3   OH275076   1.264   5.233  14.359 -0.1257  0.1305 -0.0844
17862TIP3    H175077   1.185   5.253  14.309 -0.7404  0.7869  1.0896
17862TIP3    H275078   1.283   5.141  14.341  0.6952  0.7637 -2.8641
17863TIP3   OH275079   0.763   6.255  14.062 -0.1097  0.0688 -0.1877
17863TIP3    H175080   0.761   6.167  14.024 -1.4437 -0.3863  0.8532
17863TIP3    H275081   0.849   6.289  14.038  1.4619 -2.4148  1.3879
17864TIP3   OH275082   1.046   4.566   0.226  0.1668  0.8689  0.8033
17864TIP3    H175083   1.021   4.474   0.230  2.3141  0.1153 -0.8976
17864TIP3    H275084   1.043   4.596   0.317  1.3748 -1.4576  1.6929
17865TIP3   OH275085   4.774   4.281  12.251  0.4793  0.0066  0.8142
17865TIP3    H175086   4.774   4.188  12.228  0.4241 -0.3001  1.9648
17865TIP3    H275087   4.844   4.319  12.199 -1.7783  0.0744 -2.4200
17866TIP3   OH275088   4.682   4.140   1.073 -0.1141 -0.0506  0.0847
17866TIP3    H175089   4.746   4.079   1.110  0.7853 -0.8047 -2.4884
17866TIP3    H275090   4.599   4.094   1.078  0.0114 -0.2019  0.9400
17867TIP3   OH275091   2.054   0.490   4.954  0.1016  0.1443  0.2512
17867TIP3    H175092   2.036   0.426   5.023 -1.8021 -1.8403 -1.8875
17867TIP3    H275093   2.063   0.437   4.875  2.9150  2.2391 -1.0162
17868TIP3   OH275094   5.438   3.903   4.415  0.1353  0.3343  0.4797
17868TIP3    H175095   5.392   3.987   4.405 -1.6615 -0.6604 -0.0506
17868TIP3    H275096   5.396   3.861   4.490  0.0089 -0.6905 -0.1408
17869TIP3   OH275097   6.811   0.887   4.122 -0.0551 -0.5144 -0.1380
17869TIP3    H175098   6.732   0.933   4.093 -1.0582 -2.0855 -0.0349
17869TIP3    H275099   6.857   0.866   4.040 -1.0312 -1.7500 -0.4041
17870TIP3   OH275100   1.575   6.174  16.893 -0.4683  0.1847  0.3833
17870TIP3    H175101   1.579   6.256  16.844  0.6683  0.5437  1.0551
17870TIP3    H275102   1.666   6.146  16.902 -0.8880 -1.9640 -1.1481
17871TIP3   OH275103   2.074   0.733   2.532  0.1152  0.5115 -0.3957
17871TIP3    H175104   2.025   0.712   2.452 -0.9577  1.7430 -0.0940
17871TIP3    H275105   2.027   0.687   2.601 -0.0689  0.9475 -0.2294
17872TIP3   OH275106   2.869   6.589  12.777 -0.5672 -0.1684  0.4962
17872TIP3    H175107   2.817   6.562  12.701 -0.4998  0.6055  0.1741
17872TIP3    H275108   2.930   6.516  12.791  0.6632  0.4258 -1.3308
17873TIP3   OH275109   6.755   2.498   3.465 -0.5507 -0.4642 -0.3873
17873TIP3    H175110   6.683   2.543   3.420  0.8992  1.4515 -0.9161
17873TIP3    H275111   6.746   2.525   3.557  0.0508  0.6045 -0.6262
17874TIP3   OH275112   0.702   2.864  14.362 -0.8230  0.7206 -0.0804
17874TIP3    H175113   0.650   2.789  14.391  0.3895 -0.2587 -0.3521
17874TIP3    H275114   0.748   2.893  14.441  0.7917 -0.5645 -0.5032
17875TIP3   OH275115   5.443   5.782  15.851  0.0219 -0.3187 -0.0363
17875TIP3    H175116   5.482   5.869  15.857 -0.0622 -0.3423  1.3955
17875TIP3    H275117   5.349   5.798  15.840  0.1957 -0.2502 -1.5070
17876TIP3   OH275118   3.712   3.186  11.422 -0.5079 -0.5658 -0.5217
17876TIP3    H175119   3.691   3.095  11.403  1.2275 -0.8391 -1.3219
17876TIP3    H275120   3.783   3.207  11.362 -0.1750  1.0028  0.3654
17877TIP3   OH275121   6.531   3.547   2.865  0.2773 -0.1072  0.2652
17877TIP3    H175122   6.535   3.641   2.847 -2.4433  0.0915  0.2781
17877TIP3    H275123   6.438   3.525   2.857  0.4340 -2.2743  2.9361
17878TIP3   OH275124   3.616   6.191   2.301  0.5366  0.3388  0.0918
17878TIP3    H175125   3.556   6.210   2.228  1.7801 -0.4049 -1.1739
17878TIP3    H275126   3.653   6.276   2.324 -2.4462  1.2008  2.3254
17879TIP3   OH275127   1.154   2.401   2.575  0.2252  0.1360  0.0904
17879TIP3    H175128   1.151   2.325   2.633 -0.0396  1.5068  1.9722
17879TIP3    H275129   1.102   2.467   2.620  2.4148  2.2434 -0.2735
17880TIP3   OH275130   1.175   5.087   1.985  0.5368  0.2741 -0.0430
17880TIP3    H175131   1.105   5.125   2.039  2.7788  1.7702  2.0464
17880TIP3    H275132   1.174   4.994   2.005 -0.5254  0.3594  0.3282
17881TIP3   OH275133   5.966   4.077  15.546  0.1330  0.3163  0.2484
17881TIP3    H175134   5.934   4.100  15.459  2.8248  2.9886 -0.1820
17881TIP3    H275135   5.897   4.106  15.606  0.1501  2.6084 -0.7736
17882TIP3   OH275136   0.529   3.018  12.580 -0.0339  0.2063 -0.0407
17882TIP3    H175137   0.469   3.029  12.653  0.3336 -0.1922  0.3267
17882TIP3    H275138   0.480   2.969  12.514 -1.0156  2.1922 -0.8656
17883TIP3   OH275139   6.773   2.202   1.407  0.5505  0.1422  0.1311
17883TIP3    H175140   6.748   2.248   1.327 -0.9543 -0.1931  0.3678
17883TIP3    H275141   6.836   2.136   1.379  1.3045  1.1048 -0.5001
17884TIP3   OH275142   3.703   5.051  14.209 -0.1276  0.8623 -0.4994
17884TIP3    H175143   3.687   5.108  14.284 -0.4561  0.7673 -0.4964
17884TIP3    H275144   3.777   4.996  14.235 -0.9156  0.0862  0.1794
17885TIP3   OH275145   3.005   3.750   3.572  0.0090  0.2035  0.0178
17885TIP3    H175146   3.100   3.747   3.559 -0.0930 -0.5179 -0.6279
17885TIP3    H275147   2.990   3.707   3.656  0.2567  0.3447  0.1337
17886TIP3   OH275148   4.500   3.760  16.189  0.4355  0.3541 -0.6289
17886TIP3    H175149   4.529   3.746  16.279 -0.9158  0.7963 -0.1095
17886TIP3    H275150   4.491   3.855  16.181 -0.7947  0.2351 -0.7832
17887TIP3   OH275151   3.508   3.040  12.530  0.4261 -0.5426  0.1313
17887TIP3    H175152   3.587   3.089  12.554  0.8269 -1.2304  0.2507
17887TIP3    H275153   3.540   2.969  12.474  0.2743 -2.3515  2.1695
17888TIP3   OH275154   4.655   3.696  14.821 -0.4747  0.4077 -0.3183
17888TIP3    H175155   4.570   3.739  14.817 -1.0667 -0.7409 -0.4504
17888TIP3    H275156   4.703   3.732  14.746 -0.1529  2.3895  0.7578
17889TIP3   OH275157   2.745   3.864  16.376  0.4449 -0.9282 -0.0092
17889TIP3    H175158   2.830   3.868  16.331  1.1669 -0.2249  1.3612
17889TIP3    H275159   2.687   3.920  16.323  1.1084 -0.5790 -0.3849
17890TIP3   OH275160   6.595   6.104  13.822  0.1830  0.0974  0.0626
17890TIP3    H175161   6.607   6.196  13.846 -1.4515  0.5126 -0.5601
17890TIP3    H275162   6.595   6.058  13.906  1.0810  0.6435  0.3780
17891TIP3   OH275163   3.927   6.312  14.898 -0.1018 -0.1844  0.2097
17891TIP3    H175164   3.997   6.343  14.954  0.2823 -0.5421 -0.0606
17891TIP3    H275165   3.953   6.338  14.809 -0.6292  0.2487  0.1782
17892TIP3   OH275166   6.703   1.692   2.736  0.1126  0.2912 -0.1738
17892TIP3    H175167   6.615   1.725   2.756 -0.2606 -0.7857  0.0379
17892TIP3    H275168   6.699   1.599   2.759  1.7322  0.5149  1.1259
17893TIP3   OH275169   3.181   4.827  16.900 -0.4564  0.2792 -0.3821
17893TIP3    H175170   3.272   4.852  16.886 -0.8106  1.3146 -0.8934
17893TIP3    H275171   3.138   4.844  16.817 -1.5421  1.7439  0.4364
17894TIP3   OH275172   1.766   5.648  14.451  0.0141 -0.0795  0.0808
17894TIP3    H175173   1.802   5.733  14.478  1.9323 -0.9136  0.3089
17894TIP3    H275174   1.780   5.591  14.527 -2.7188 -0.2673  0.5476
17895TIP3   OH275175   4.119   4.402   0.716 -0.0746 -0.0379  0.0160
17895TIP3    H175176   4.202   4.426   0.758  1.1206 -1.1067 -1.6399
17895TIP3    H275177   4.142   4.382   0.625 -2.1366 -0.4667 -0.4695
17896TIP3   OH275178   6.232   1.681  15.198 -0.1187  0.2719  0.2542
17896TIP3    H175179   6.319   1.650  15.223 -1.5426 -4.0018  0.7958
17896TIP3    H275180   6.239   1.697  15.104  1.6060  1.6592  0.5737
17897TIP3   OH275181   1.597   3.349  14.366  0.1195 -0.3838  0.4471
17897TIP3    H175182   1.656   3.399  14.310  0.4037 -0.0944  1.0056
17897TIP3    H275183   1.511   3.389  14.351 -0.2208 -1.6134 -1.3462
17898TIP3   OH275184   3.186   4.884   3.149  0.0842 -0.2574 -0.9858
17898TIP3    H175185   3.121   4.939   3.193  0.0008 -0.3404 -1.0029
17898TIP3    H275186   3.194   4.922   3.061 -0.1777 -0.4364 -1.0888
17899TIP3   OH275187   2.483   6.464   5.058  0.1817  0.2330  0.1211
17899TIP3    H175188   2.433   6.383   5.048 -0.9875  0.6599  2.0502
17899TIP3    H275189   2.537   6.448   5.136  2.5890  0.0699 -1.4580
17900TIP3   OH275190   3.752   5.844  15.100  0.0907 -0.0765 -0.3782
17900TIP3    H175191   3.772   5.775  15.163 -0.7547 -0.7674 -0.8444
17900TIP3    H275192   3.777   5.808  15.015  0.6093  0.5995 -0.5220
17901TIP3   OH275193   5.396   0.263  12.047 -0.2921  0.9431 -0.6950
17901TIP3    H175194   5.470   0.282  12.106  0.5783 -1.2127 -1.0258
17901TIP3    H275195   5.429   0.284  11.960  1.3259 -3.2800 -1.2950
17902TIP3   OH275196   3.100   2.182   1.518 -0.1907 -0.1736  0.9688
17902TIP3    H175197   3.153   2.102   1.525  1.2969  0.8126  1.5997
17902TIP3    H275198   3.073   2.185   1.426 -1.9829 -2.4009  1.3299
17903TIP3   OH275199   2.764   5.983   6.027  0.5122  0.1983  0.7011
17903TIP3    H175200   2.725   6.041   6.093 -1.5770 -0.3974  0.0582
17903TIP3    H275201   2.848   5.956   6.065 -0.5444  0.0153  3.0487
17904TIP3   OH275202   6.433   2.248  14.764 -0.0510 -0.0658 -0.1723
17904TIP3    H175203   6.390   2.239  14.848 -1.0069  0.2365 -0.6131
17904TIP3    H275204   6.437   2.160  14.728 -1.7872  0.0851 -0.8239
17905TIP3   OH275205   4.032   1.281   2.311 -0.3966  0.0523 -0.0776
17905TIP3    H175206   4.118   1.239   2.318  1.4772  3.3480 -1.0102
17905TIP3    H275207   4.007   1.269   2.219  0.7414  1.8441 -0.6736
17906TIP3   OH275208   1.587   4.920   1.144 -0.3932  0.0478 -0.2956
17906TIP3    H175209   1.584   4.833   1.185  0.6924 -0.1611 -0.6010
17906TIP3    H275210   1.599   4.981   1.216  2.6459 -0.4120 -0.2856
17907TIP3   OH275211   1.013   2.390  15.537 -0.2036 -0.7541  0.2926
17907TIP3    H175212   0.943   2.349  15.589 -0.2592  0.0262  0.8565
17907TIP3    H275213   1.044   2.320  15.479 -1.4407 -1.1144  0.0404
17908TIP3   OH275214   2.797   3.420   1.107  0.3390 -0.4875 -0.1820
17908TIP3    H175215   2.749   3.500   1.131 -0.1604 -0.2479 -1.8397
17908TIP3    H275216   2.886   3.436   1.139  0.5680  1.2995 -1.5234
17909TIP3   OH275217   1.435   1.150   5.486  0.1503 -0.0853 -0.0045
17909TIP3    H175218   1.383   1.070   5.477  1.9799 -1.4377  0.9047
17909TIP3    H275219   1.394   1.197   5.559 -0.1193 -0.8638  0.3554
17910TIP3   OH275220   3.326   5.865  13.788  0.0627 -0.4535 -0.1578
17910TIP3    H175221   3.267   5.802  13.745 -0.4128  0.5801 -1.0936
17910TIP3    H275222   3.282   5.885  13.871  0.3368 -1.5105  0.2592
17911TIP3   OH275223   4.657   6.575  13.979 -0.9179 -0.0272 -0.0878
17911TIP3    H175224   4.696   6.533  13.902  1.3728 -0.9838  1.4764
17911TIP3    H275225   4.652   6.668  13.956 -0.3147 -0.2981 -1.3976
17912TIP3   OH275226   2.413   4.819  15.319  1.0531  0.2607  0.5861
17912TIP3    H175227   2.386   4.884  15.255  0.7387  0.7229  1.1838
17912TIP3    H275228   2.475   4.866  15.376 -1.3164  0.9243  2.7832
17913TIP3   OH275229   0.247   6.097  12.081 -0.1135  0.0125 -0.1182
17913TIP3    H175230   0.289   6.021  12.121 -1.3820 -0.1789  0.9622
17913TIP3    H275231   0.304   6.122  12.009  0.5897 -1.6550 -0.1808
17914TIP3   OH275232   6.124   0.689   3.270 -0.3807 -0.2118  0.3319
17914TIP3    H175233   6.166   0.772   3.250  1.3977 -1.0357  0.4944
17914TIP3    H275234   6.119   0.643   3.186 -1.2524 -0.0183  0.2632
17915TIP3   OH275235   2.571   4.378  11.215  0.7938  0.2158 -0.1521
17915TIP3    H175236   2.600   4.393  11.305  0.7709  1.2353 -0.2985
17915TIP3    H275237   2.494   4.434  11.205  1.3361  0.8193 -1.0699
17916TIP3   OH275238   5.831   4.733  14.362  0.8263  0.6395  0.1745
17916TIP3    H175239   5.894   4.805  14.357  1.1180  0.5353  1.7364
17916TIP3    H275240   5.874   4.661  14.316  0.3434  1.5430 -1.7930
17917TIP3   OH275241   3.354   4.978  16.412 -0.3354 -0.1354  0.1692
17917TIP3    H175242   3.366   4.884  16.400 -1.5566 -0.1657 -1.1351
17917TIP3    H275243   3.263   4.993  16.387  0.0620  1.5153 -0.3681
17918TIP3   OH275244   3.569   5.874  16.716  0.2258  0.3473 -0.3398
17918TIP3    H175245   3.553   5.843  16.805 -0.3598 -1.1076 -0.9301
17918TIP3    H275246   3.545   5.967  16.719 -2.1622 -0.2123  0.4642
17919TIP3   OH275247   0.325   2.259   4.828  0.0497 -0.3143 -0.3890
17919TIP3    H175248   0.312   2.330   4.765 -0.5980 -0.1499 -0.0777
17919TIP3    H275249   0.237   2.224   4.843  0.3166 -0.9259 -0.2437
17920TIP3   OH275250   4.048   1.246   4.885 -0.1389 -0.3795  0.1014
17920TIP3    H175251   4.139   1.222   4.903  0.0305  1.2174  1.7651
17920TIP3    H275252   4.003   1.231   4.968 -1.0412  0.2954 -0.2475
17921TIP3   OH275253   5.782   6.573  14.892  0.3097 -0.2491 -0.0151
17921TIP3    H175254   5.721   6.622  14.949  0.8351  0.1069  0.2484
17921TIP3    H275255   5.868   6.611  14.912  0.4341  0.3091 -1.5026
17922TIP3   OH275256   4.263   6.523   1.790 -0.0183  0.0340  0.4666
17922TIP3    H175257   4.182   6.507   1.743  0.4874 -0.2660 -0.3213
17922TIP3    H275258   4.236   6.566   1.871 -0.8965  0.7620 -0.1864
17923TIP3   OH275259   4.734   2.882   2.723  0.1427  0.3813 -0.4168
17923TIP3    H175260   4.748   2.832   2.643 -0.8167  1.4198 -1.2558
17923TIP3    H275261   4.736   2.816   2.793 -1.7084 -0.9588 -1.5342
17924TIP3   OH275262   2.980   0.822  13.076 -0.5488 -0.4922  0.1572
17924TIP3    H175263   2.970   0.759  13.004 -2.2265 -1.1403  0.9128
17924TIP3    H275264   3.069   0.808  13.107  0.5191  0.3448 -2.2518
17925TIP3   OH275265   3.865   4.942   4.020  0.0085 -0.7075 -0.6725
17925TIP3    H175266   3.959   4.958   4.015 -0.2305  0.4924 -1.5453
17925TIP3    H275267   3.846   4.886   3.945 -0.5190  2.0299 -2.7304
17926TIP3   OH275268   0.311   5.644  12.177 -0.1822  0.1125 -0.5624
17926TIP3    H175269   0.308   5.557  12.137  1.5918  0.4921 -1.6411
17926TIP3    H275270   0.378   5.637  12.245 -0.4465  0.4967 -0.2577
17927TIP3   OH275271   1.109   4.247   3.233  0.2111  0.0832  0.0168
17927TIP3    H175272   1.099   4.188   3.158  1.6226 -0.3622  0.1399
17927TIP3    H275273   1.138   4.190   3.304  0.3891  0.7404  0.4739
17928TIP3   OH275274   1.040   6.110  14.512  0.0707  0.1285 -0.5528
17928TIP3    H175275   1.097   6.046  14.554  0.8778  0.1317 -1.5961
17928TIP3    H275276   0.955   6.066  14.504  0.2488 -0.3093 -0.0448
17929TIP3   OH275277   1.470   5.395  12.958 -0.2060  0.2042 -0.2477
17929TIP3    H175278   1.543   5.454  12.978 -1.3460  1.5109  0.2106
17929TIP3    H275279   1.495   5.313  13.000  0.9174  0.6751  0.0609
17930TIP3   OH275280   4.461   5.192   5.459 -0.2639  0.3681 -0.0518
17930TIP3    H175281   4.496   5.150   5.537 -0.0642  0.6452  0.0086
17930TIP3    H275282   4.380   5.234   5.489 -1.0870 -0.9337 -0.3611
17931TIP3   OH275283   3.051   2.346   5.220 -0.5597  0.1915  0.1997
17931TIP3    H175284   3.048   2.370   5.127 -2.5023  0.2482  0.2511
17931TIP3    H275285   2.970   2.381   5.257  0.4695  0.7289  2.0820
17932TIP3   OH275286   3.760   1.178  12.041 -0.3493  0.4377 -0.0304
17932TIP3    H175287   3.669   1.181  12.012 -0.1659 -0.8366 -0.8257
17932TIP3    H275288   3.796   1.263  12.017 -1.4200  1.1191  0.6743
17933TIP3   OH275289   2.518   2.566   1.744  0.1386 -0.4869 -0.8745
17933TIP3    H175290   2.537   2.659   1.759  3.4791 -1.0904 -0.5074
17933TIP3    H275291   2.534   2.525   1.829 -2.2565 -1.3681 -0.7665
17934TIP3   OH275292   6.496   0.566  16.474  0.3085  0.2847  0.1497
17934TIP3    H175293   6.496   0.510  16.397 -1.2267  0.0403  0.2967
17934TIP3    H275294   6.553   0.639  16.451 -1.6164  1.2083 -1.9853
17935TIP3   OH275295   4.128   1.551   3.003  0.5517  0.2548 -0.0658
17935TIP3    H175296   4.166   1.465   2.987 -0.1628 -0.3920  1.4683
17935TIP3    H275297   4.202   1.612   2.995  1.7625 -0.8463  1.8513
17936TIP3   OH275298   4.681   3.807  11.338  0.0045 -0.4704  0.2020
17936TIP3    H175299   4.734   3.740  11.294  0.7877  0.8783 -1.0062
17936TIP3    H275300   4.743   3.855  11.393  0.2882  1.5656 -1.7498
17937TIP3   OH275301   1.531   2.824   2.527 -0.5724 -0.0209  0.5054
17937TIP3    H175302   1.494   2.737   2.539  1.2842 -0.8552  0.5300
17937TIP3    H275303   1.600   2.813   2.462 -0.7667  1.5870 -0.0343
17938TIP3   OH275304   6.363   4.025   5.877  0.3283  0.6538 -0.0188
17938TIP3    H175305   6.402   4.104   5.840 -1.9278  0.9928 -1.9789
17938TIP3    H275306   6.367   4.037   5.971  2.3064  1.9081 -0.2196
17939TIP3   OH275307   5.864   3.801   5.010 -0.5701  0.5141 -0.0509
17939TIP3    H175308   5.884   3.895   5.005 -0.1764  0.5929  1.9945
17939TIP3    H275309   5.903   3.764   4.931  1.2508  1.7793  0.1803
17940TIP3   OH275310   3.988   1.618   3.260  0.1072  0.0631  0.5486
17940TIP3    H175311   4.067   1.574   3.293  1.1735  2.3520  1.2423
17940TIP3    H275312   4.008   1.637   3.168  0.3423  0.5647  0.7007
17941TIP3   OH275313   0.458   5.745  16.164 -0.4060  0.1992  0.2462
17941TIP3    H175314   0.481   5.838  16.155 -3.2472  1.0081  0.4036
17941TIP3    H275315   0.395   5.743  16.236  1.3494 -2.2668  1.9159
17942TIP3   OH275316   1.404   3.341  15.801  0.6057 -0.6375 -0.1661
17942TIP3    H175317   1.420   3.398  15.726  1.1332 -0.9819 -0.3193
17942TIP3    H275318   1.336   3.281  15.772  0.8967 -0.8499 -0.4163
17943TIP3   OH275319   1.290   2.333  15.042  0.2046  0.1437  0.2629
17943TIP3    H175320   1.222   2.287  14.994  0.0083 -2.8897  3.1316
17943TIP3    H275321   1.371   2.290  15.017  0.4937  0.6179  0.3621
17944TIP3   OH275322   6.533   2.716   3.452 -0.3686  0.3158  0.2739
17944TIP3    H175323   6.555   2.805   3.423  0.0903  0.6470  1.5376
17944TIP3    H275324   6.443   2.723   3.483 -0.5173  0.2096 -0.1383
17945TIP3   OH275325   5.186   1.384   1.710  0.1477  0.4573  0.1955
17945TIP3    H175326   5.155   1.473   1.691  1.2275  0.6330 -0.9041
17945TIP3    H275327   5.125   1.326   1.666 -0.1166  0.6891  0.2581
17946TIP3   OH275328   4.910   4.771  10.427 -0.7917 -0.3529 -0.2835
17946TIP3    H175329   4.950   4.753  10.342  0.7608 -0.1785  0.3788
17946TIP3    H275330   4.904   4.685  10.470  0.2511 -0.1938  0.1927
17947TIP3   OH275331   5.914   6.010  13.902  0.0302  0.1638  0.2358
17947TIP3    H175332   5.862   6.033  13.979 -1.0683  1.4955 -0.8347
17947TIP3    H275333   5.971   6.086  13.888  0.0115  0.0660 -0.4137
17948TIP3   OH275334   4.296   3.453  14.296  0.0601 -0.0236 -0.1211
17948TIP3    H175335   4.314   3.543  14.269  0.4314  1.1696  3.5234
17948TIP3    H275336   4.375   3.405  14.274  1.4124  1.4760  1.2437
17949TIP3   OH275337   1.798   6.516  14.568 -0.0518  0.2746  0.2511
17949TIP3    H175338   1.715   6.476  14.542 -0.8698  1.5870  0.7553
17949TIP3    H275339   1.820   6.576  14.497 -0.1368  0.7725  0.6389
17950TIP3   OH275340   0.477   1.628   3.060 -0.2109 -0.0100 -0.4490
17950TIP3    H175341   0.410   1.637   2.992 -0.2170  1.1837 -0.3114
17950TIP3    H275342   0.560   1.627   3.012 -0.1386  2.0734 -0.4431
17951TIP3   OH275343   0.454   5.364   3.482  0.0687 -0.1351 -0.0550
17951TIP3    H175344   0.488   5.434   3.426 -1.4683  0.9912  0.3463
17951TIP3    H275345   0.434   5.408   3.565 -2.3146 -0.6796 -0.2559
17952TIP3   OH275346   4.743   2.255   2.297 -0.3262 -0.4632  0.3683
17952TIP3    H175347   4.766   2.258   2.204 -0.0646  1.6859  0.4666
17952TIP3    H275348   4.826   2.269   2.343 -0.6128 -0.5155  0.9096
17953TIP3   OH275349   4.153   4.351   4.650 -0.1875  0.4795 -0.4815
17953TIP3    H175350   4.203   4.346   4.568  0.5348  0.9518 -0.0771
17953TIP3    H275351   4.064   4.323   4.625  0.5153 -1.4451 -0.9759
17954TIP3   OH275352   6.518   1.338   4.298  0.3438  0.2027 -0.7425
17954TIP3    H175353   6.525   1.268   4.233 -0.1971  0.8290 -1.4997
17954TIP3    H275354   6.441   1.388   4.271  0.6975  1.0643 -0.1960
17955TIP3   OH275355   4.813   5.990  14.977 -0.1106 -0.4784 -0.7394
17955TIP3    H175356   4.848   6.066  14.932 -0.9372 -0.1924 -0.9105
17955TIP3    H275357   4.755   6.026  15.044  0.3287 -0.9274 -0.1005
17956TIP3   OH275358   5.378   1.786   2.536  0.5928  1.1509  0.2452
17956TIP3    H175359   5.390   1.704   2.488  0.6525 -0.1973  2.4649
17956TIP3    H275360   5.438   1.847   2.494 -0.9829  0.7859 -2.8763
17957TIP3   OH275361   0.833   3.045  13.546  0.6787  0.4376  0.3954
17957TIP3    H175362   0.826   3.101  13.469 -0.0126  1.9121  1.4847
17957TIP3    H275363   0.927   3.039  13.562  0.7547  1.6459  0.4904
17958TIP3   OH275364   0.244   4.937   0.020 -0.3164  0.2110  0.2970
17958TIP3    H175365   0.279   4.961  -0.066  1.2046 -1.9061  0.2395
17958TIP3    H275366   0.175   4.874   0.000 -0.9160  0.7656  0.5959
17959TIP3   OH275367   1.381   2.793  16.070  0.2534  0.2958 -0.6341
17959TIP3    H175368   1.355   2.831  16.154 -1.0815 -1.1074 -0.3705
17959TIP3    H275369   1.475   2.777  16.079  0.2639  0.7877  0.3209
17960TIP3   OH275370   4.922   4.241   3.048  0.1519  0.1282  0.1135
17960TIP3    H175371   4.990   4.307   3.055 -0.5283  1.0260 -1.3185
17960TIP3    H275372   4.853   4.282   2.996  0.3282 -2.1556 -2.1283
17961TIP3   OH275373   2.281   1.980  14.369 -0.1683  0.5308 -0.3450
17961TIP3    H175374   2.289   1.930  14.451 -2.0458 -2.2435 -1.6912
17961TIP3    H275375   2.358   1.956  14.318 -0.5570 -0.2657 -0.5800
17962TIP3   OH275376   5.739   3.059  14.934 -0.6033  0.1747  0.6358
17962TIP3    H175377   5.785   2.986  14.893 -0.9176 -0.2325  0.9982
17962TIP3    H275378   5.773   3.137  14.890  0.7514 -0.0765  1.1850
17963TIP3   OH275379   6.333   1.628   3.865  0.2463  0.4631 -0.3352
17963TIP3    H175380   6.287   1.584   3.794  3.9111 -5.6615  0.3291
17963TIP3    H275381   6.417   1.655   3.827  1.5810 -1.3850  1.0993
17964TIP3   OH275382   3.553   3.022  14.051  0.6686  0.1004 -0.4157
17964TIP3    H175383   3.521   2.932  14.057  0.0514  0.2780 -1.0571
17964TIP3    H275384   3.477   3.076  14.073  0.9784  0.4729 -0.2571
17965TIP3   OH275385   1.815   2.361  11.839  0.0822  0.1573  0.0873
17965TIP3    H175386   1.906   2.339  11.854 -0.3446 -1.1444  0.9425
17965TIP3    H275387   1.766   2.282  11.863 -1.2146  0.5279 -1.1935
17966TIP3   OH275388   2.857   1.668  16.797 -0.0845 -0.1995  0.3871
17966TIP3    H175389   2.847   1.735  16.865  1.1646 -0.3669  0.7536
17966TIP3    H275390   2.832   1.712  16.716 -0.2772  0.4003  0.7653
17967TIP3   OH275391   2.442   4.343   2.725  0.2636 -0.5306  0.4424
17967TIP3    H175392   2.400   4.285   2.789 -2.1215 -0.0458 -0.5836
17967TIP3    H275393   2.436   4.296   2.642 -0.2377  0.4717 -0.1112
17968TIP3   OH275394   2.792   4.251   0.896 -0.0288  0.3589 -0.3022
17968TIP3    H175395   2.761   4.218   0.980 -1.8458 -2.3107 -1.8557
17968TIP3    H275396   2.888   4.252   0.904 -0.1241 -0.6283  1.5240
17969TIP3   OH275397   3.712   1.301   4.804 -0.2848  0.1155 -0.0178
17969TIP3    H175398   3.782   1.282   4.742 -0.4181  0.7335 -0.3642
17969TIP3    H275399   3.719   1.394   4.821 -0.7747  0.1096  0.2499
17970TIP3   OH275400   0.586   0.374   0.345 -0.3986 -0.1773  0.1218
17970TIP3    H175401   0.674   0.349   0.372 -0.3090  0.6010  0.5951
17970TIP3    H275402   0.568   0.320   0.268 -0.2541 -1.6887  1.1192
17971TIP3   OH275403   5.815   5.218  15.602 -0.5196 -0.2602  0.2776
17971TIP3    H175404   5.844   5.204  15.692  2.0409  1.0554 -0.2350
17971TIP3    H275405   5.874   5.286  15.569 -1.7276 -0.3404 -2.2398
17972TIP3   OH275406   5.225   4.785  13.167 -0.4649  0.3199  0.3453
17972TIP3    H175407   5.167   4.854  13.201  0.2180  0.4260  1.3187
17972TIP3    H275408   5.307   4.830  13.147 -0.5262  0.0713 -0.5508
17973TIP3   OH275409   6.575   3.470  14.639  0.7782  0.3736  0.0839
17973TIP3    H175410   6.574   3.500  14.730  0.4163 -0.1664  0.2618
17973TIP3    H275411   6.509   3.401  14.636  0.2581  0.8795 -0.7576
17974TIP3   OH275412   1.963   0.167  10.724 -0.0678  0.2846 -0.7546
17974TIP3    H175413   1.905   0.236  10.692 -2.0156 -0.5302  0.8444
17974TIP3    H275414   2.005   0.205  10.802 -0.7542 -0.1499 -0.1692
17975TIP3   OH275415   1.793   5.959  11.249 -0.4646 -0.0574 -0.2114
17975TIP3    H175416   1.867   5.933  11.193  1.4992 -0.5186  2.4000
17975TIP3    H275417   1.737   5.881  11.251 -0.7747  0.0892 -1.7611
17976TIP3   OH275418   1.787   0.239   6.023  0.5106 -0.2546  0.2343
17976TIP3    H175419   1.873   0.259   6.061  0.4753 -0.3095  0.3408
17976TIP3    H275420   1.789   0.145   6.008 -0.0087 -0.4580  1.4031
17977TIP3   OH275421   1.791   6.827  14.507  0.8404 -0.2104  0.5737
17977TIP3    H175422   1.871   6.825  14.560  0.6600 -0.5842  0.8301
17977TIP3    H275423   1.816   6.878  14.429  1.2567 -0.1145  0.7641
17978TIP3   OH275424   6.594   1.407  11.168 -0.0116 -0.4130 -0.1951
17978TIP3    H175425   6.614   1.470  11.099 -0.1835 -1.7347 -1.4939
17978TIP3    H275426   6.536   1.454  11.228  0.0850  0.7465 -0.9916
17979TIP3   OH275427   1.871   4.758   2.198 -0.2550  0.1700  0.2525
17979TIP3    H175428   1.784   4.751   2.160 -0.5833  1.6313  0.6965
17979TIP3    H275429   1.905   4.668   2.196 -1.4484 -0.2813 -0.6448
17980TIP3   OH275430   3.229   0.720   4.537  0.3409  0.1977 -0.6660
17980TIP3    H175431   3.205   0.627   4.533  3.3757 -0.6381 -1.4782
17980TIP3    H275432   3.322   0.720   4.556  0.4345  3.1270 -0.7439
17981TIP3   OH275433   4.855   5.871  14.728  0.0521 -0.3563  0.1991
17981TIP3    H175434   4.856   5.898  14.820 -1.7425  0.4034  0.0433
17981TIP3    H275435   4.802   5.791  14.727 -0.7645  0.1641 -0.2572
17982TIP3   OH275436   5.401   4.389   4.962 -0.3178 -0.0725  0.2205
17982TIP3    H175437   5.395   4.397   5.057 -1.2623  2.3208  0.0375
17982TIP3    H275438   5.325   4.336   4.937 -0.1397 -0.5973  0.7798
17983TIP3   OH275439   1.581   5.368  11.622  0.2464  0.0413  0.2461
17983TIP3    H175440   1.602   5.283  11.659  1.0131 -1.1138 -2.5835
17983TIP3    H275441   1.666   5.410  11.608 -0.0793  0.9201  0.8004
17984TIP3   OH275442   4.725   3.698  12.081  0.8562  0.0855 -0.5200
17984TIP3    H175443   4.694   3.643  12.153  2.5720 -1.4790 -0.9059
17984TIP3    H275444   4.647   3.718  12.031 -0.2962  0.7145  1.4077
17985TIP3   OH275445   2.270   2.996  15.658  0.0190 -0.1452  0.0321
17985TIP3    H175446   2.187   2.998  15.611 -0.1017 -0.5972  0.2193
17985TIP3    H275447   2.248   3.023  15.747 -0.0163 -0.7400  0.2071
17986TIP3   OH275448   4.008   0.609  14.455  0.4130 -0.4032  0.4346
17986TIP3    H175449   3.917   0.618  14.425  0.4573 -0.6136  0.2329
17986TIP3    H275450   4.002   0.613  14.550  0.5068  2.6576  0.4155
17987TIP3   OH275451   4.321   4.920   0.243 -1.0388  0.5207 -0.0363
17987TIP3    H175452   4.408   4.891   0.267 -1.2567  0.9275  1.3580
17987TIP3    H275453   4.315   4.906   0.148  0.8152  1.2463 -0.2835
17988TIP3   OH275454   4.777   1.022   1.665  0.0895 -0.0547  0.5075
17988TIP3    H175455   4.756   1.088   1.600  0.1653 -1.5692 -1.1370
17988TIP3    H275456   4.859   0.983   1.634  2.1525  1.5504  3.4612
17989TIP3   OH275457   4.904   2.779   1.101  0.2104 -0.1790  0.4999
17989TIP3    H175458   4.811   2.765   1.084  0.1919  0.5213  0.0059
17989TIP3    H275459   4.911   2.773   1.196 -0.6500  1.5065  0.7093
17990TIP3   OH275460   3.554   6.808  16.954  0.3718 -0.3328 -0.5405
17990TIP3    H175461   3.460   6.814  16.934 -0.0107 -3.8561 -0.4781
17990TIP3    H275462   3.596   6.856  16.883 -1.4420  2.1400 -0.0636
17991TIP3   OH275463   6.650   2.287  13.499  0.2533 -0.8586  0.2288
17991TIP3    H175464   6.625   2.194  13.498 -0.2086 -0.7441 -1.3197
17991TIP3    H275465   6.742   2.286  13.528  0.9310 -2.0302 -1.7597
17992TIP3   OH275466   0.274   0.001  13.597  0.3442  0.0703 -0.3576
17992TIP3    H175467   0.244   0.025  13.509  1.7283 -0.3333 -0.9664
17992TIP3    H275468   0.315  -0.084  13.586  0.9381  0.2205  0.5996
17993TIP3   OH275469   1.541   2.253   0.070 -0.3084  0.5377 -0.3584
17993TIP3    H175470   1.542   2.332   0.016 -0.4518 -0.0871 -1.2975
17993TIP3    H275471   1.483   2.274   0.143  0.8765  1.8397  0.2639
17994TIP3   OH275472   5.305   3.328   2.869  0.0335 -0.4997 -0.5656
17994TIP3    H175473   5.237   3.340   2.935 -0.0920  0.8438 -0.9040
17994TIP3    H275474   5.303   3.235   2.849 -1.6247 -0.5112 -0.4812
17995TIP3   OH275475   3.209   2.942  17.028  0.6593 -0.0091 -0.7998
17995TIP3    H175476   3.150   3.014  17.007  0.5354  1.2845  3.0564
17995TIP3    H275477   3.156   2.884  17.082  2.2386  0.0445  0.9098
17996TIP3   OH275478   1.056   2.015   5.743  0.1479  0.0197 -0.4301
17996TIP3    H175479   0.988   2.028   5.677  0.1638 -1.7950 -0.8503
17996TIP3    H275480   1.133   2.059   5.707 -0.1242 -0.0794 -1.1442
17997TIP3   OH275481   3.066   5.566   4.041  0.0982  0.4548  0.6523
17997TIP3    H175482   3.057   5.606   3.954 -1.0120  2.6226  1.6944
17997TIP3    H275483   3.160   5.553   4.051  0.1854 -1.1023 -1.3558
17998TIP3   OH275484   6.178   1.147  13.794  0.1163  0.1351 -0.0277
17998TIP3    H175485   6.179   1.154  13.698  0.0814 -0.8537 -0.1148
17998TIP3    H275486   6.094   1.184  13.820 -0.0696 -0.0067 -0.4219
17999TIP3   OH275487   2.407   5.581   0.758 -0.6576 -0.4465 -0.3496
17999TIP3    H175488   2.429   5.559   0.667 -0.0400 -1.1726 -0.0342
17999TIP3    H275489   2.398   5.497   0.802  1.2358 -0.1398  0.7560
18000TIP3   OH275490   0.888   3.219  14.254 -0.2458 -0.6071  0.2625
18000TIP3    H175491   0.800   3.247  14.281  0.4743  0.8797  1.1318
18000TIP3    H275492   0.873   3.172  14.171 -1.6478  1.3758 -0.6951
18001TIP3   OH275493   0.031   3.075   4.169  0.3056 -0.2819 -0.4861
18001TIP3    H175494   0.070   3.098   4.253  0.6968 -0.0066 -0.7379
18001TIP3    H275495   0.104   3.079   4.107  0.2328 -1.4269 -0.6764
18002TIP3   OH275496   5.841   0.152   0.875  0.3686  1.1305  0.4007
18002TIP3    H175497   5.870   0.145   0.967 -0.4093  0.2811  0.5962
18002TIP3    H275498   5.747   0.168   0.881  0.5115  2.3223 -0.2538
18003TIP3   OH275499   2.934   5.073  11.754 -0.4704  0.3420  0.1310
18003TIP3    H175500   2.856   5.120  11.723  0.0867  2.5210  1.7867
18003TIP3    H275501   2.971   5.034  11.675 -1.7316  1.6237 -1.1601
18004TIP3   OH275502   6.563   5.557  14.359 -0.2915 -0.6381  0.4312
18004TIP3    H175503   6.572   5.473  14.402 -1.0508 -1.7347 -1.4206
18004TIP3    H275504   6.552   5.536  14.266 -1.1657  1.4632 -0.0140
18005TIP3   OH275505   3.087   3.015  11.944  0.2954  0.0369  0.2421
18005TIP3    H175506   3.019   2.957  11.910  2.0051 -1.0657 -1.4724
18005TIP3    H275507   3.086   2.999  12.039  1.1264 -3.3827 -0.2000
18006TIP3   OH275508   5.032   4.089  14.195  0.2261  0.4154  0.2032
18006TIP3    H175509   5.030   4.102  14.290 -0.4010 -0.7590  0.3588
18006TIP3    H275510   5.011   3.997  14.182  1.1581  0.3482 -1.0452
18007TIP3   OH275511   5.722   2.991  13.325 -0.1247 -0.5988  0.2730
18007TIP3    H175512   5.675   3.026  13.249  2.2015  1.5749 -0.2987
18007TIP3    H275513   5.714   2.896  13.316 -0.8245 -0.3798 -2.0824
18008TIP3   OH275514   2.287   2.568  15.404 -0.2081 -0.2551 -0.0757
18008TIP3    H175515   2.355   2.626  15.371 -0.5615  0.0697 -0.2359
18008TIP3    H275516   2.332   2.513  15.469 -0.1433  1.0594  1.0354
18009TIP3   OH275517   5.179   2.716  12.109  0.2265 -0.3063  0.0312
18009TIP3    H175518   5.190   2.669  12.026  0.7887  1.7987 -1.1340
18009TIP3    H275519   5.267   2.723  12.146  0.5552  1.9046 -1.0311
18010TIP3   OH275520   6.121   1.149  15.072  0.1061  0.7012 -0.5090
18010TIP3    H175521   6.156   1.237  15.081 -0.1715  0.9492 -1.6210
18010TIP3    H275522   6.068   1.153  14.992 -1.1653 -0.0672  0.2672
18011TIP3   OH275523   5.996   4.549   3.435  0.3201 -0.5136 -0.1722
18011TIP3    H175524   6.007   4.614   3.366  1.6124 -1.2524 -0.6900
18011TIP3    H275525   6.016   4.596   3.516 -1.3718  0.3979 -0.2389
18012TIP3   OH275526   4.764   0.389   2.718  0.3308 -0.0874  0.1304
18012TIP3    H175527   4.777   0.319   2.653  0.3426  0.2448 -0.2334
18012TIP3    H275528   4.800   0.354   2.799 -0.6638 -0.9254  0.2261
18013TIP3   OH275529   1.759   5.694  11.165  0.4173  0.1121 -0.3125
18013TIP3    H175530   1.839   5.699  11.113  0.7086 -2.4100 -0.2290
18013TIP3    H275531   1.759   5.606  11.201 -1.3113  0.7713  1.5152
18014TIP3   OH275532   4.633   0.333  10.854  0.4205  0.0640  0.4797
18014TIP3    H175533   4.670   0.360  10.770  2.1436 -0.3162  1.0742
18014TIP3    H275534   4.682   0.254  10.878 -1.4472 -1.0367  0.8904
18015TIP3   OH275535   3.881   6.200   2.324 -0.1532 -0.2794 -0.1542
18015TIP3    H175536   3.786   6.194   2.308 -0.0910 -0.8278 -0.3349
18015TIP3    H275537   3.892   6.162   2.411  0.1761 -2.4469 -1.0800
18016TIP3   OH275538   0.892   2.178  13.120 -0.1140 -0.1306  0.0279
18016TIP3    H175539   0.809   2.190  13.166 -0.7658  1.6929 -1.5087
18016TIP3    H275540   0.958   2.188  13.188 -1.0445  2.0987  0.7013
18017TIP3   OH275541   6.765   4.084  16.723  0.1030  0.4203  0.0881
18017TIP3    H175542   6.850   4.043  16.728 -0.0288 -0.8090 -4.0344
18017TIP3    H275543   6.724   4.046  16.645 -3.3950  2.4533  0.6986
18018TIP3   OH275544   4.208   0.661  13.758  0.2327  0.6585  0.7085
18018TIP3    H175545   4.304   0.668  13.756  0.3664 -0.5619  1.5931
18018TIP3    H275546   4.183   0.655  13.666  0.9470  1.5575  0.4346
18019TIP3   OH275547   1.099   5.743   1.897  0.0906  0.1964  0.7815
18019TIP3    H175548   1.084   5.798   1.974 -0.5507  0.4524  0.4870
18019TIP3    H275549   1.180   5.697   1.915 -1.5284 -2.0232  2.9608
18020TIP3   OH275550   0.952   3.045  16.690  0.1045 -0.3625  0.5662
18020TIP3    H175551   1.013   3.109  16.726  0.0794  0.2638 -0.4695
18020TIP3    H275552   0.866   3.074  16.720  0.2252 -0.7953  1.3654
18021TIP3   OH275553   6.767   3.484   2.056 -0.0375  0.5365 -0.3556
18021TIP3    H175554   6.759   3.393   2.084  1.3529  0.5602  0.1823
18021TIP3    H275555   6.859   3.507   2.072  0.2526  1.3099 -2.6864
18022TIP3   OH275556   5.198   4.598   5.359 -0.0803  0.7004 -0.5241
18022TIP3    H175557   5.235   4.523   5.312 -3.3094 -0.8645 -0.8809
18022TIP3    H275558   5.159   4.652   5.291 -0.2983  1.1786 -0.0225
18023TIP3   OH275559   2.696   6.640   0.252 -0.4835 -0.3321 -0.0736
18023TIP3    H175560   2.605   6.631   0.225 -0.8709  0.1459  1.0201
18023TIP3    H275561   2.697   6.717   0.308  0.7575  0.1606 -0.7366
18024TIP3   OH275562   3.619   3.814   0.250  0.2160 -0.0292  0.1413
18024TIP3    H175563   3.604   3.868   0.328  0.3346  0.4190 -0.1484
18024TIP3    H275564   3.555   3.844   0.187 -0.8326 -1.3506  0.5305
18025TIP3   OH275565   5.115   5.934   6.288 -0.2492  0.2264 -0.6458
18025TIP3    H175566   5.077   6.013   6.252 -0.4714  0.5493  0.2711
18025TIP3    H275567   5.177   5.965   6.354 -0.0177 -0.3497 -0.5857
18026TIP3   OH275568   6.062   0.507   5.571  0.0087 -0.1477 -0.1254
18026TIP3    H175569   6.046   0.457   5.651 -1.4405  1.9607  0.9861
18026TIP3    H275570   6.008   0.464   5.504  0.0595 -1.0066  0.3653
18027TIP3   OH275571   0.890   3.315   2.006 -0.3966  0.2048  0.3707
18027TIP3    H175572   0.905   3.270   1.923  2.3172  1.3911  0.1031
18027TIP3    H275573   0.943   3.395   2.000  2.0477 -0.8410  4.1609
18028TIP3   OH275574   5.873   4.336   3.161  0.2487  0.9567  0.2176
18028TIP3    H175575   5.891   4.430   3.168 -2.0000  1.4715  0.1309
18028TIP3    H275576   5.901   4.300   3.246 -0.6434  2.0915  1.0371
18029TIP3   OH275577   6.715   0.873   1.356  0.2546  0.1379  0.1742
18029TIP3    H175578   6.766   0.875   1.437 -1.1475 -1.8443  1.1826
18029TIP3    H275579   6.712   0.780   1.332 -2.2004  0.2560 -0.2471
18030TIP3   OH275580   5.092   6.587   4.561 -0.0861  0.5375 -0.0871
18030TIP3    H175581   5.009   6.550   4.591  0.1724  1.3912  1.8032
18030TIP3    H275582   5.080   6.682   4.566  0.4414  0.7075 -1.4942
18031TIP3   OH275583   2.062   2.485  14.014 -0.6248  0.1073  0.2143
18031TIP3    H175584   2.088   2.553  14.076 -1.3691  1.2226 -0.6535
18031TIP3    H275585   2.144   2.443  13.988 -0.0751  1.0820  0.3247
18032TIP3   OH275586   3.897   0.909   4.445  0.3478 -0.0926  0.1073
18032TIP3    H175587   3.936   0.955   4.371 -0.4775 -2.1700 -1.7182
18032TIP3    H275588   3.869   0.979   4.505 -1.1355  1.8487 -2.6266
18033TIP3   OH275589   0.857   3.424   2.736 -0.4256 -0.0620  0.0697
18033TIP3    H175590   0.771   3.384   2.751 -0.2319  0.0216  1.5113
18033TIP3    H275591   0.847   3.514   2.766 -0.0342  0.1634 -0.4630
18034TIP3   OH275592   4.276   1.719  12.139  0.6411 -0.0403  0.2714
18034TIP3    H175593   4.181   1.712  12.152  0.4414  1.3549 -0.2879
18034TIP3    H275594   4.296   1.812  12.153  2.0534 -0.4378  1.1334
18035TIP3   OH275595   2.530   2.040  14.595 -0.3557  0.2992  0.2243
18035TIP3    H175596   2.523   2.011  14.686 -0.2811 -1.8024 -0.3790
18035TIP3    H275597   2.566   1.964  14.549 -2.4232  0.4986 -1.9324
18036TIP3   OH275598   2.315   0.362  12.076  0.7689 -0.3340 -0.3869
18036TIP3    H175599   2.350   0.385  12.162  2.0277  0.4442 -1.0842
18036TIP3    H275600   2.363   0.282  12.052  3.2954  1.4909 -1.9571
18037TIP3   OH275601   0.063   3.320   0.741  0.8052 -0.7104 -0.2093
18037TIP3    H175602   0.129   3.271   0.790 -0.6567 -2.8250 -0.2585
18037TIP3    H275603   0.011   3.364   0.808  1.7043  0.3134 -0.1405
18038TIP3   OH275604   3.566   0.122   1.610  0.6676 -0.4265  0.2469
18038TIP3    H175605   3.627   0.068   1.661 -0.5570 -0.4850  1.7182
18038TIP3    H275606   3.617   0.150   1.534  1.3009 -3.9048 -0.8095
18039TIP3   OH275607   0.844   4.783  15.611  0.3897 -0.0112 -0.2940
18039TIP3    H175608   0.804   4.849  15.554  0.9287  0.8299  0.2765
18039TIP3    H275609   0.879   4.718  15.550  0.6918  0.7249 -0.9265
18040TIP3   OH275610   0.637   1.459   4.327 -0.7776 -0.1159 -0.2204
18040TIP3    H175611   0.590   1.537   4.358  0.8139  0.7771  0.0504
18040TIP3    H275612   0.702   1.493   4.266  0.6664 -1.0867  0.7217
18041TIP3   OH275613   2.058   2.981  12.332 -0.4586 -0.4142  0.0530
18041TIP3    H175614   2.032   3.071  12.352  0.7315 -0.4285  2.0417
18041TIP3    H275615   2.100   2.986  12.246 -0.4533  0.9309  0.1117
18042TIP3   OH275616   6.233   1.419   5.249 -0.4140 -0.5877 -0.7736
18042TIP3    H175617   6.250   1.325   5.256 -0.6212 -0.5536  0.3789
18042TIP3    H275618   6.166   1.427   5.182 -2.4099 -1.5221  1.0238
18043TIP3   OH275619   1.625   5.134  12.948 -0.1288 -0.7778  0.4789
18043TIP3    H175620   1.671   5.056  12.978 -0.7929 -0.5947  2.0366
18043TIP3    H275621   1.681   5.207  12.974  1.4837 -0.6919 -2.6830
18044TIP3   OH275622   0.215   0.267  13.694  0.2761 -0.5762 -0.5497
18044TIP3    H175623   0.234   0.173  13.684  0.1396 -0.6183 -0.3999
18044TIP3    H275624   0.301   0.309  13.685  0.5435 -0.8140  0.7740
18045TIP3   OH275625   4.129   1.998   4.323 -0.0423 -0.4985  0.2353
18045TIP3    H175626   4.212   2.046   4.322  0.2588 -1.0209 -1.1100
18045TIP3    H275627   4.064   2.064   4.300  0.0516 -0.1986  0.8047
18046TIP3   OH275628   3.768   6.475   3.765 -0.1373  0.1014 -0.1489
18046TIP3    H175629   3.845   6.490   3.820 -0.2684 -1.2541  0.4342
18046TIP3    H275630   3.700   6.530   3.803  0.2853  0.6054 -0.1100
18047TIP3   OH275631   0.312   5.409   4.436 -0.0507  0.5136 -0.0063
18047TIP3    H175632   0.272   5.351   4.501  0.8763 -1.1184 -0.8382
18047TIP3    H275633   0.389   5.446   4.481 -0.6017  1.0674  0.5003
18048TIP3   OH275634   2.258   3.436  11.398  0.0729 -0.3276  0.0309
18048TIP3    H175635   2.222   3.349  11.384  0.9917 -0.7097  0.0074
18048TIP3    H275636   2.200   3.476  11.464  0.1713 -1.2887  0.7168
18049TIP3   OH275637   4.333   0.791  13.279 -0.1216 -0.2759  0.4432
18049TIP3    H175638   4.422   0.813  13.307 -0.2588 -1.3744  1.8736
18049TIP3    H275639   4.303   0.726  13.343 -2.3841  0.8812  0.6648
18050TIP3   OH275640   3.438   1.316   4.426 -0.3488  0.0254  0.0953
18050TIP3    H175641   3.503   1.385   4.419 -1.1209  0.8486  0.7106
18050TIP3    H275642   3.422   1.288   4.336  3.2409 -2.5797  0.0394
18051TIP3   OH275643   1.815   0.615  14.573 -0.0250  0.0651 -0.2890
18051TIP3    H175644   1.729   0.612  14.615  0.8031 -1.8540  1.4607
18051TIP3    H275645   1.877   0.606  14.645  1.7067  1.9416 -1.4585
18052TIP3   OH275646   1.501   2.509   0.800  0.4629  0.7062 -0.0616
18052TIP3    H175647   1.431   2.510   0.735 -0.8833  2.9383  1.2704
18052TIP3    H275648   1.572   2.558   0.760  0.3230  0.5298 -0.5248
18053TIP3   OH275649   1.575   4.408   5.904  0.0636 -0.1703  0.0663
18053TIP3    H175650   1.645   4.374   5.960  0.6129 -0.6447 -0.8865
18053TIP3    H275651   1.500   4.418   5.963  0.4491 -1.2412  0.7667
18054TIP3   OH275652   1.728   2.027  12.181 -0.5354  0.5810  0.3581
18054TIP3    H175653   1.771   1.943  12.164  0.7167  1.4157 -0.7877
18054TIP3    H275654   1.714   2.065  12.095  0.6103  2.3635  0.9055
18055TIP3   OH275655   4.326   4.474   5.151 -0.5364  0.0681  0.1357
18055TIP3    H175656   4.398   4.411   5.152 -0.2545  0.3920  0.3585
18055TIP3    H275657   4.269   4.448   5.223  0.1420  0.7060  0.9328
18056TIP3   OH275658   5.134   5.658  14.138 -0.3814  0.0323 -0.5273
18056TIP3    H175659   5.078   5.673  14.215 -1.3771  2.8744 -1.6678
18056TIP3    H275660   5.204   5.723  14.147 -0.4636  0.3486 -1.9224
18057TIP3   OH275661   5.332   1.874  16.904 -0.6275  0.1323  0.0124
18057TIP3    H175662   5.338   1.869  17.000 -0.1635 -0.3126 -0.0384
18057TIP3    H275663   5.326   1.968  16.886  1.6181  0.3985  0.3587
18058TIP3   OH275664   3.211   4.776   5.483  0.1527 -0.3238  0.0379
18058TIP3    H175665   3.301   4.802   5.504  0.2043 -0.0373 -0.5170
18058TIP3    H275666   3.157   4.835   5.535  0.2839 -0.0179 -0.1657
18059TIP3   OH275667   1.607   1.162  12.399  0.2600 -0.7432 -0.4640
18059TIP3    H175668   1.672   1.232  12.391 -1.0861  0.7211  0.5604
18059TIP3    H275669   1.530   1.206  12.435 -0.2483 -3.0276  1.4857
18060TIP3   OH275670   5.460   4.601  13.830  0.1715 -0.6350 -0.6411
18060TIP3    H175671   5.427   4.574  13.744  0.4079  0.3581 -1.0499
18060TIP3    H275672   5.410   4.679  13.852  0.2238 -0.7892  0.0655
18061TIP3   OH275673   5.652   2.556  13.863 -0.1740 -0.0258 -0.0217
18061TIP3    H175674   5.624   2.471  13.827  0.4991 -1.1125  1.8896
18061TIP3    H275675   5.571   2.598  13.891 -0.4525 -0.3151 -0.3739
18062TIP3   OH275676   3.748   3.962  11.763  0.2535  0.2432  0.8305
18062TIP3    H175677   3.828   3.972  11.813 -1.1692  2.0443  2.9638
18062TIP3    H275678   3.708   3.882  11.797  1.1839 -0.7870 -0.4008
18063TIP3   OH275679   5.006   5.306  13.223  0.0205  0.5129 -0.2881
18063TIP3    H175680   5.085   5.327  13.274 -0.8478  1.8987  0.5467
18063TIP3    H275681   4.947   5.264  13.286 -0.9095  1.8760 -0.2160
18064TIP3   OH275682   3.756   5.548   2.202  0.3008  0.3179  0.4619
18064TIP3    H175683   3.734   5.480   2.138 -0.6128 -0.1269  1.2110
18064TIP3    H275684   3.674   5.562   2.250  0.7934  1.1211  1.0827
18065TIP3   OH275685   3.784   1.096   3.551 -0.5572  0.3146 -0.0852
18065TIP3    H175686   3.858   1.049   3.514 -1.1749 -0.4213 -0.4158
18065TIP3    H275687   3.804   1.188   3.536  1.2175  0.2619  1.5655
18066TIP3   OH275688   4.874   2.376  15.015 -0.2085  0.3616  0.0958
18066TIP3    H175689   4.914   2.306  15.067  0.8496 -0.5271 -1.8284
18066TIP3    H275690   4.810   2.332  14.959  2.0772  0.4280 -2.8074
18067TIP3   OH275691   3.123   2.855   4.754 -0.5739 -0.0757  0.1889
18067TIP3    H175692   3.161   2.853   4.666 -1.1864 -1.2819 -0.0630
18067TIP3    H275693   3.131   2.765   4.786 -0.8504  0.2293  1.1551
18068TIP3   OH275694   3.417   5.364  13.027  0.5313  0.8303 -0.2418
18068TIP3    H175695   3.472   5.431  12.988  0.8100 -0.5995 -2.4499
18068TIP3    H275696   3.328   5.390  13.005  0.4490  1.7891  1.1255
18069TIP3   OH275697   2.428   2.021  16.281 -0.1377 -0.0340 -0.2369
18069TIP3    H175698   2.356   1.975  16.323  0.5260 -3.1041 -2.0971
18069TIP3    H275699   2.502   2.011  16.342 -0.8682  2.0172  1.0875
18070TIP3   OH275700   3.252   0.726  14.573  0.1024  0.2259  0.4472
18070TIP3    H175701   3.305   0.676  14.510 -0.9016 -0.2091 -0.0769
18070TIP3    H275702   3.180   0.668  14.595  0.4475  0.3753  2.0410
18071TIP3   OH275703   3.361   5.882   3.487  0.1656 -0.4552  0.4492
18071TIP3    H175704   3.414   5.935   3.547  0.3885 -0.1703  0.0019
18071TIP3    H275705   3.289   5.939   3.462  1.7839  0.6625 -2.1167
18072TIP3   OH275706   0.779   3.982   0.209  0.7751  0.9035 -0.1080
18072TIP3    H175707   0.849   3.919   0.227 -1.0763 -0.9464  1.1004
18072TIP3    H275708   0.766   4.028   0.292  0.7360  1.4604 -0.4148
18073TIP3   OH275709   3.380   5.973  11.339  0.1454 -0.1283  0.2862
18073TIP3    H175710   3.419   6.049  11.383  2.7313 -2.8751  3.3170
18073TIP3    H275711   3.286   5.982  11.354  0.3482  2.5341  0.3067
18074TIP3   OH275712   6.323   1.198   3.701 -0.1948  0.2440 -0.1473
18074TIP3    H175713   6.263   1.139   3.747 -2.3410  1.8708 -0.7091
18074TIP3    H275714   6.295   1.286   3.726  1.2579  1.0939 -1.3301
18075TIP3   OH275715   2.874   4.453  15.603 -0.1407 -0.6528  0.3776
18075TIP3    H175716   2.858   4.360  15.590  1.1943 -1.0672  1.4987
18075TIP3    H275717   2.836   4.472  15.689  2.3332 -0.9376  1.6246
18076TIP3   OH275718   2.612   2.960  11.546 -0.0966 -0.8922 -0.0538
18076TIP3    H175719   2.639   2.963  11.454 -0.1220 -3.6992 -0.2275
18076TIP3    H275720   2.656   3.036  11.585  3.1774 -1.7725 -1.5776
18077TIP3   OH275721   3.207   3.275  11.910  0.0187 -0.4768 -1.1198
18077TIP3    H175722   3.203   3.301  12.002 -1.3670 -0.7654 -1.0725
18077TIP3    H275723   3.172   3.186  11.908  2.0301 -1.3081 -1.6703
18078TIP3   OH275724   5.629   6.619  11.892  0.0550  0.6138 -0.3019
18078TIP3    H175725   5.617   6.663  11.976  0.1401 -0.3759  0.2439
18078TIP3    H275726   5.670   6.535  11.914  1.5724  0.9946 -1.4779
18079TIP3   OH275727   5.839   2.694   5.555  0.2448 -0.3546 -0.4665
18079TIP3    H175728   5.778   2.659   5.490 -0.8513  0.6406 -0.0053
18079TIP3    H275729   5.845   2.787   5.534  0.6137 -0.2024  0.3001
18080TIP3   OH275730   4.802   1.979  16.540 -0.1602 -0.5638 -0.0484
18080TIP3    H175731   4.722   1.930  16.524  1.0372 -2.3329 -0.8985
18080TIP3    H275732   4.869   1.936  16.487  0.9846  2.0400 -0.9209
18081TIP3   OH275733   6.229   0.013   0.259  0.2292 -0.4189  0.7028
18081TIP3    H175734   6.173   0.034   0.334  0.8992 -0.5999  1.2603
18081TIP3    H275735   6.316   0.044   0.284  0.4977 -0.6473  0.0749
18082TIP3   OH275736   4.235   3.774   1.269 -0.2369  0.0621  0.1399
18082TIP3    H175737   4.289   3.796   1.344  0.6067  2.5889 -1.0728
18082TIP3    H275738   4.145   3.792   1.298 -0.2163 -1.4907  1.2896
18083TIP3   OH275739   0.574   2.257  15.783  0.4046  0.1529 -0.2147
18083TIP3    H175740   0.506   2.214  15.835 -0.5108 -0.5187 -1.8832
18083TIP3    H275741   0.647   2.267  15.843  0.4294 -3.1378  0.5190
18084TIP3   OH275742   2.218   1.255   0.925 -0.7385  0.3747 -0.7384
18084TIP3    H175743   2.253   1.337   0.959  0.7044 -0.2992 -0.4895
18084TIP3    H275744   2.247   1.252   0.834  0.2333 -0.3484 -0.4342
18085TIP3   OH275745   6.490   1.240   2.052 -0.2462  0.2519  0.0570
18085TIP3    H175746   6.568   1.229   2.106  0.0492  0.1539 -0.3813
18085TIP3    H275747   6.515   1.205   1.966 -0.8094  0.1094 -0.0554
18086TIP3   OH275748   6.612   3.247   5.790 -0.0980 -0.3999  0.7057
18086TIP3    H175749   6.611   3.338   5.820  1.1029 -0.5328  1.2073
18086TIP3    H275750   6.701   3.216   5.810  0.3788 -0.8951 -1.8488
18087TIP3   OH275751   4.487   3.779   5.098  0.1190 -0.1285 -0.4283
18087TIP3    H175752   4.459   3.690   5.077 -0.1250 -0.2218  0.2524
18087TIP3    H275753   4.433   3.804   5.174  1.8898 -0.3423  0.9868
18088TIP3   OH275754   4.275   2.356   6.543 -0.2226 -0.2245 -0.0733
18088TIP3    H175755   4.278   2.269   6.583  0.8333 -0.5172 -0.7500
18088TIP3    H275756   4.251   2.340   6.452  0.2757  0.1521 -0.2800
18089TIP3   OH275757   0.320   0.839   3.759 -0.3682 -0.3182  0.6265
18089TIP3    H175758   0.320   0.744   3.751  2.6076 -0.2536 -2.5822
18089TIP3    H275759   0.399   0.860   3.809 -0.1181  0.4662 -0.0669
18090TIP3   OH275760   6.147   6.709   1.678  0.1325 -0.3494 -0.4534
18090TIP3    H175761   6.180   6.796   1.704 -0.7489  0.2307 -1.2209
18090TIP3    H275762   6.212   6.648   1.713  0.2472  0.5421  0.9958
18091TIP3   OH275763   1.547   5.333   3.855 -0.0824 -0.4068 -0.3172
18091TIP3    H175764   1.482   5.330   3.926 -0.4390 -0.9887 -0.6645
18091TIP3    H275765   1.608   5.401   3.882 -0.6656 -0.0652  0.1659
18092TIP3   OH275766   2.734   2.398  12.714  0.7753  0.5257  0.2404
18092TIP3    H175767   2.643   2.412  12.740  0.5363 -1.1160  0.4085
18092TIP3    H275768   2.755   2.473  12.657 -0.8148  0.7036 -0.1562
18093TIP3   OH275769   3.191   6.509   5.295 -0.4752  0.1300  0.0790
18093TIP3    H175770   3.235   6.582   5.251 -1.0775  0.4069 -0.0709
18093TIP3    H275771   3.262   6.453   5.326  0.0040 -1.4249 -3.4270
18094TIP3   OH275772   3.888   2.384   3.192 -0.1525 -0.3585 -0.3118
18094TIP3    H175773   3.958   2.347   3.244  0.8130  0.5972 -0.8956
18094TIP3    H275774   3.846   2.308   3.151 -0.5717 -1.0747  1.3650
18095TIP3   OH275775   4.527   2.141   1.290 -0.0217 -0.0206 -0.2173
18095TIP3    H175776   4.436   2.133   1.263 -0.1193  1.4624 -0.4183
18095TIP3    H275777   4.523   2.188   1.374  0.5812  0.7366 -0.5965
18096TIP3   OH275778   2.465   3.259   2.665 -0.4290 -0.4909  0.8065
18096TIP3    H175779   2.465   3.166   2.688  0.0428 -0.8710 -0.6289
18096TIP3    H275780   2.376   3.277   2.634 -1.0256 -0.0113  2.6864
18097TIP3   OH275781   1.638   2.881   5.364 -0.1020  0.2185  0.2914
18097TIP3    H175782   1.733   2.871   5.377 -0.2389 -0.2276  1.0047
18097TIP3    H275783   1.602   2.885   5.453 -0.5955  2.0717  0.0468
18098TIP3   OH275784   2.794   3.503   2.121 -0.7657  0.0102  1.0047
18098TIP3    H175785   2.798   3.474   2.212  2.4992  0.9519  1.2935
18098TIP3    H275786   2.724   3.569   2.120 -1.1222 -0.3064  2.7408
18099TIP3   OH275787   0.697   4.900   0.756 -0.3296  1.1475 -0.0208
18099TIP3    H175788   0.771   4.961   0.759  0.2622  0.4325  0.6494
18099TIP3    H275789   0.720   4.839   0.685  0.2570  0.3080  0.8591
18100TIP3   OH275790   1.582   0.694   2.755  0.0157 -0.3304  0.0162
18100TIP3    H175791   1.542   0.619   2.710  0.7638 -1.2820  0.8848
18100TIP3    H275792   1.665   0.661   2.788  0.6739  1.0868 -0.1471
18101TIP3   OH275793   4.080   3.167  12.308  0.3346 -0.3249 -0.2409
18101TIP3    H175794   4.153   3.152  12.249  0.2889 -0.2235 -0.3246
18101TIP3    H275795   4.097   3.253  12.347  0.2391 -0.2799 -0.2948
18102TIP3   OH275796   0.216   4.036  13.704  0.0592 -0.2990  0.3429
18102TIP3    H175797   0.232   3.944  13.683  1.3949  0.0667 -0.3680
18102TIP3    H275798   0.153   4.066  13.639 -0.0450 -0.6009  0.3054
18103TIP3   OH275799   1.592   5.529   2.264 -0.0860  0.3799 -0.1172
18103TIP3    H175800   1.497   5.542   2.270 -0.0315  0.0582  3.6742
18103TIP3    H275801   1.622   5.598   2.205 -2.5682  0.8381 -0.9766
18104TIP3   OH275802   4.879   0.759   3.784  0.2158 -0.4727 -0.2869
18104TIP3    H175803   4.833   0.817   3.845  0.9724 -0.3733  0.2006
18104TIP3    H275804   4.865   0.671   3.819 -0.5818 -0.5619 -0.7967
18105TIP3   OH275805   0.242   0.661   0.878 -0.4327  0.0438  0.1147
18105TIP3    H175806   0.226   0.749   0.913  0.6773  0.6249 -0.7667
18105TIP3    H275807   0.258   0.607   0.955 -2.1020  0.3808  0.7340
18106TIP3   OH275808   1.406   0.096  11.837 -0.2050  0.2701 -0.0486
18106TIP3    H175809   1.429   0.109  11.929 -1.3807  0.4873  0.2320
18106TIP3    H275810   1.317   0.061  11.839 -0.5775  1.0848 -1.1241
18107TIP3   OH275811   3.090   0.607  11.555  0.0759  0.0781  0.5857
18107TIP3    H175812   3.034   0.683  11.573 -1.9299 -1.0442 -0.5850
18107TIP3    H275813   3.086   0.595  11.461  0.8065 -1.1662  0.6880
18108TIP3   OH275814   6.286   4.509   3.584 -0.4293 -0.0386 -0.3299
18108TIP3    H175815   6.325   4.515   3.671 -1.3073  1.3040  0.0129
18108TIP3    H275816   6.355   4.473   3.529  0.0580 -1.1488  0.9625
18109TIP3   OH275817   0.661   3.585   5.015  0.4044  0.7091 -0.3946
18109TIP3    H175818   0.624   3.519   5.074  1.9014 -0.5616 -0.8319
18109TIP3    H275819   0.661   3.666   5.067 -1.7701  0.5006  0.0289
18110TIP3   OH275820   6.579   3.595  16.794 -0.0064  0.9519  0.4748
18110TIP3    H175821   6.584   3.633  16.706 -1.1709 -0.7201 -0.3714
18110TIP3    H275822   6.659   3.543  16.802 -0.8897 -0.6465 -0.5230
18111TIP3   OH275823   1.271   5.636   5.421  0.1150 -0.1027  0.4263
18111TIP3    H175824   1.267   5.716   5.473 -1.5479  0.4795 -0.5234
18111TIP3    H275825   1.342   5.585   5.460  0.0517  1.0604  2.1429
18112TIP3   OH275826   4.570   5.568  13.380 -0.2877  0.3363 -0.1679
18112TIP3    H175827   4.594   5.642  13.325 -0.8454 -0.5070 -1.5991
18112TIP3    H275828   4.492   5.598  13.427 -0.3337  0.7633 -0.5091
18113TIP3   OH275829   4.692   1.772  14.433 -0.2308  0.6723  0.2616
18113TIP3    H175830   4.697   1.748  14.525 -2.1320 -0.9087  0.0186
18113TIP3    H275831   4.605   1.810  14.422 -0.0536  0.7932 -0.9075
18114TIP3   OH275832   6.643   5.407  11.006 -0.3212 -0.1495  0.0653
18114TIP3    H175833   6.728   5.450  11.007  0.2131 -1.1885  1.4444
18114TIP3    H275834   6.638   5.367  10.919  1.2460 -1.2836  0.4510
18115TIP3   OH275835   3.612   0.641  13.635 -0.2679 -0.6446 -0.0186
18115TIP3    H175836   3.642   0.731  13.625 -2.0428  0.0235  0.4119
18115TIP3    H275837   3.692   0.591  13.652  0.7730  0.7861 -0.5388
18116TIP3   OH275838   6.365   4.123   4.802 -0.0956 -0.7461 -0.1887
18116TIP3    H175839   6.371   4.194   4.867  0.1927 -0.3810 -0.6091
18116TIP3    H275840   6.295   4.067   4.835 -0.3668 -0.2374  0.1231
18117TIP3   OH275841   4.875   6.799   1.942 -0.3524  0.1323  0.1914
18117TIP3    H175842   4.832   6.766   1.863  1.5144 -1.7811 -0.1045
18117TIP3    H275843   4.881   6.894   1.929 -1.3312  0.0129 -1.3016
18118TIP3   OH275844   1.428   5.907   4.910 -0.3949 -0.3116 -0.5791
18118TIP3    H175845   1.397   5.827   4.867  1.7062 -1.1196 -0.7364
18118TIP3    H275846   1.361   5.927   4.975 -1.4625 -1.6234 -1.2179
18119TIP3   OH275847   1.194   3.838  16.905 -1.5107 -0.2892 -0.1577
18119TIP3    H175848   1.275   3.806  16.866 -1.2675 -1.5702  1.2802
18119TIP3    H275849   1.179   3.923  16.864  0.5217 -0.0438 -0.5001
18120TIP3   OH275850   1.911   3.813  13.710  0.4882 -0.6521 -0.2430
18120TIP3    H175851   1.912   3.880  13.642 -0.9339 -1.9267 -1.6061
18120TIP3    H275852   1.997   3.771  13.704  0.3464 -0.8200 -1.3763
18121TIP3   OH275853   1.652   3.726   0.194 -0.4478  0.1215 -0.3548
18121TIP3    H175854   1.583   3.699   0.133 -1.3565  1.6346 -0.0596
18121TIP3    H275855   1.668   3.818   0.173  0.4949  0.1750  0.5108
18122TIP3   OH275856   5.638   0.767  13.185 -0.3646 -0.2422  0.6361
18122TIP3    H175857   5.683   0.826  13.124 -2.5877 -1.8275 -2.8807
18122TIP3    H275858   5.700   0.696  13.200  0.3820  0.3822  0.5592
18123TIP3   OH275859   2.752   5.865   3.781 -0.1865 -0.6191  0.1654
18123TIP3    H175860   2.705   5.902   3.856  1.7829  1.2428  0.6141
18123TIP3    H275861   2.684   5.832   3.723 -1.8079 -1.8476  2.5929
18124TIP3   OH275862   4.139   6.717   5.096 -0.2519 -0.3686 -0.1572
18124TIP3    H175863   4.165   6.679   5.012  0.6449  0.2073 -0.1487
18124TIP3    H275864   4.176   6.805   5.095 -2.5294  0.6588 -0.2951
18125TIP3   OH275865   5.992   2.677  15.172  1.1588  0.4282 -0.2234
18125TIP3    H175866   5.957   2.588  15.162  0.5770  0.6224  0.0795
18125TIP3    H275867   6.084   2.664  15.195  0.4967 -0.1771  2.4066
18126TIP3   OH275868   6.787   2.943   5.827 -0.6439  0.4102  0.1236
18126TIP3    H175869   6.764   2.961   5.918  2.1548 -0.7344  1.1722
18126TIP3    H275870   6.839   3.018   5.800 -1.0198  0.4995 -0.3604
18127TIP3   OH275871   5.031   0.178   6.362 -0.2296  0.4665  0.2051
18127TIP3    H175872   5.118   0.164   6.400 -0.2227 -0.4738 -0.1286
18127TIP3    H275873   5.033   0.267   6.329  1.3438 -0.1794 -1.6521
18128TIP3   OH275874   5.176   1.994   6.676 -0.2078  0.2612 -0.2762
18128TIP3    H175875   5.146   1.961   6.761  0.3718  0.2322 -0.0748
18128TIP3    H275876   5.142   1.933   6.612 -2.1912  1.2629 -0.2429
18129TIP3   OH275877   2.907   2.417   4.350 -0.4858  0.1914 -0.2431
18129TIP3    H175878   2.906   2.432   4.255 -2.2536  0.4627 -0.2159
18129TIP3    H275879   2.825   2.371   4.367  0.2664 -0.7261  1.0403
18130TIP3   OH275880   0.265   4.398   5.800  0.0633 -0.0260 -0.6868
18130TIP3    H175881   0.271   4.315   5.846  0.9822 -0.1303 -0.9587
18130TIP3    H275882   0.311   4.383   5.717  1.4944  1.1106 -0.1637
18131TIP3   OH275883   3.918   4.769  13.000 -0.3964 -0.3695 -0.2562
18131TIP3    H175884   3.835   4.790  12.958 -0.8991 -1.5397  0.1159
18131TIP3    H275885   3.948   4.689  12.956  1.4002  0.9224 -1.5577
18132TIP3   OH275886   0.406   1.880  14.229  0.1534  0.0740 -0.2903
18132TIP3    H175887   0.411   1.785  14.215 -0.8524  0.0154 -0.3132
18132TIP3    H275888   0.380   1.915  14.144 -0.4105  0.2741 -0.0354
18133TIP3   OH275889   4.284   0.899  12.357 -0.1724  0.1356  0.1069
18133TIP3    H175890   4.365   0.936  12.393 -0.9467  0.9684  1.0388
18133TIP3    H275891   4.312   0.852  12.279  1.3361 -0.3607  0.9142
18134TIP3   OH275892   1.342   2.197   5.248 -0.2850 -0.5440 -0.8000
18134TIP3    H175893   1.387   2.230   5.326 -1.4804 -2.4589  0.7835
18134TIP3    H275894   1.411   2.160   5.194  0.3385 -1.4507  0.5562
18135TIP3   OH275895   5.771   3.059   0.803 -0.3558 -0.1730  0.3815
18135TIP3    H175896   5.713   2.983   0.809 -0.3100 -0.1997  0.4866
18135TIP3    H275897   5.858   3.025   0.824 -0.7160  0.4130  3.2402
18136TIP3   OH275898   4.871   6.563  16.275  0.0527  0.3048  0.0939
18136TIP3    H175899   4.818   6.634  16.237 -1.2145  0.0753  1.3523
18136TIP3    H275900   4.944   6.609  16.317 -0.5560  0.8581  0.5795
18137TIP3   OH275901   2.594   2.260  14.250 -0.0056 -0.3339  0.7867
18137TIP3    H175902   2.637   2.298  14.327  1.1900  1.1769 -0.5461
18137TIP3    H275903   2.534   2.329  14.220  0.1751 -0.5594 -0.1126
18138TIP3   OH275904   4.323   6.570  14.441 -0.2794  0.0897 -0.6026
18138TIP3    H175905   4.268   6.533  14.510  0.8701  1.0683  0.8930
18138TIP3    H275906   4.315   6.664  14.451  1.7074  0.2650 -0.2738
18139TIP3   OH275907   4.457   2.741  12.049  0.4362 -0.2727  0.3529
18139TIP3    H175908   4.526   2.800  12.079  0.3870 -0.5849  1.1027
18139TIP3    H275909   4.441   2.684  12.124 -1.7739  0.8265  0.7928
18140TIP3   OH275910   2.440   5.385  13.060 -0.0222 -0.1740  0.1675
18140TIP3    H175911   2.372   5.392  12.993 -0.1810 -3.8044 -0.2386
18140TIP3    H275912   2.418   5.307  13.110  2.1104  0.3629  2.1652
18141TIP3   OH275913   6.565   1.877   4.278  0.5518 -0.6830  0.1775
18141TIP3    H175914   6.531   1.800   4.323 -0.1562 -0.5020 -0.0402
18141TIP3    H275915   6.515   1.883   4.197  1.2650 -0.5432 -0.2653
18142TIP3   OH275916   6.504   2.817  12.158  0.8193 -0.1128 -0.4467
18142TIP3    H175917   6.512   2.906  12.123 -2.3237  0.4620 -0.0613
18142TIP3    H275918   6.429   2.822  12.217  2.3451 -2.3951  1.8979
18143TIP3   OH275919   0.540   4.689   5.734  0.1896 -0.0917 -0.3174
18143TIP3    H175920   0.561   4.598   5.757  0.2121  0.2623  1.1335
18143TIP3    H275921   0.452   4.703   5.768  0.1732  0.4366 -0.5667
18144TIP3   OH275922   6.336   0.562   3.561 -0.4649  0.1151 -0.0176
18144TIP3    H175923   6.424   0.525   3.554 -0.2167  0.7854 -0.5237
18144TIP3    H275924   6.315   0.558   3.654 -0.1642 -0.6561  0.0178
18145TIP3   OH275925   3.830   6.434   2.689  0.1879 -0.6091  0.2489
18145TIP3    H175926   3.781   6.393   2.617  0.6668  0.4620 -0.7227
18145TIP3    H275927   3.889   6.495   2.646  0.0462  0.5332  1.5927
18146TIP3   OH275928   5.153   4.716   0.402 -0.1453  0.2920 -0.6462
18146TIP3    H175929   5.211   4.781   0.442 -1.2047  0.7757  0.1514
18146TIP3    H275930   5.069   4.760   0.395 -1.2313 -1.3352  1.0562
18147TIP3   OH275931   6.526   4.952  16.572  0.0022 -0.0982 -0.0633
18147TIP3    H175932   6.585   5.017  16.610  0.8484 -1.2522  0.6595
18147TIP3    H275933   6.583   4.878  16.552 -1.2941 -1.5271  1.3210
18148TIP3   OH275934   6.741   4.585   0.909 -0.1555  0.1394 -0.2148
18148TIP3    H175935   6.673   4.560   0.847  0.5289  0.7161 -1.2264
18148TIP3    H275936   6.745   4.512   0.971 -1.7340  0.1299 -0.0836
18149TIP3   OH275937   3.516   0.691   4.604 -0.0049 -0.9861  0.1616
18149TIP3    H175938   3.564   0.700   4.686  0.4175  3.5227 -0.3242
18149TIP3    H275939   3.568   0.630   4.552  2.3338 -0.2730  1.5447
18150TIP3   OH275940   5.014   3.100   3.480 -0.0925 -0.4540 -0.0147
18150TIP3    H175941   5.068   3.042   3.532 -0.4930 -0.1207  0.7979
18150TIP3    H275942   4.929   3.101   3.525 -0.1632  0.5635 -0.1295
18151TIP3   OH275943   3.283   1.490   1.723 -0.4041 -0.1418 -0.0152
18151TIP3    H175944   3.342   1.453   1.657 -0.0052 -0.3067  0.4279
18151TIP3    H275945   3.196   1.485   1.684  0.1777  3.1530 -2.1335
18152TIP3   OH275946   0.723   1.324   5.007  0.1584  0.1088  0.0893
18152TIP3    H175947   0.699   1.375   5.085  0.7757  1.9305 -0.8627
18152TIP3    H275948   0.640   1.305   4.964 -0.1293 -0.2996  0.8013
18153TIP3   OH275949   2.939   6.135   1.627  0.2410 -0.0342 -0.2915
18153TIP3    H175950   2.956   6.043   1.645 -0.2292 -0.2445 -0.8901
18153TIP3    H275951   2.992   6.156   1.550 -0.0946  0.0305 -0.5115
18154TIP3   OH275952   2.061   3.084   2.483 -0.5346  0.4463  0.0322
18154TIP3    H175953   1.965   3.085   2.483 -0.5423 -0.2207  0.1054
18154TIP3    H275954   2.084   2.992   2.491  0.1187  0.6613  0.6570
18155TIP3   OH275955   1.954   2.215  12.046  0.7796  0.4986  0.0421
18155TIP3    H175956   2.050   2.220  12.051  1.0213 -2.2115 -0.0473
18155TIP3    H275957   1.937   2.172  11.962 -0.4936  0.7170  0.1806
18156TIP3   OH275958   0.494   2.928  14.645  0.2114 -0.3858 -0.7466
18156TIP3    H175959   0.589   2.922  14.659  0.4135  1.0102 -1.3229
18156TIP3    H275960   0.461   2.841  14.666  1.2074 -0.1075  2.5690
18157TIP3   OH275961   3.906   1.943   4.709  0.5186  0.1454  0.3464
18157TIP3    H175962   3.887   1.887   4.784 -0.3136 -1.2351 -0.8544
18157TIP3    H275963   3.986   1.907   4.671  0.6980  0.5732  0.3100
18158TIP3   OH275964   6.590   0.789   0.201 -0.0281 -0.1185 -0.3386
18158TIP3    H175965   6.589   0.824   0.112  0.6503 -2.1035 -1.1701
18158TIP3    H275966   6.661   0.725   0.201  0.7799  0.6687  1.9873
18159TIP3   OH275967   1.650   6.218  15.206 -0.1768 -0.0416  1.2140
18159TIP3    H175968   1.725   6.225  15.264 -0.8744  0.7060  2.0445
18159TIP3    H275969   1.632   6.307  15.177 -1.0529 -0.1345  1.4308
18160TIP3   OH275970   0.351   0.603   5.374  0.0714  0.4373  0.2079
18160TIP3    H175971   0.298   0.669   5.419 -1.3509 -1.3316  1.2737
18160TIP3    H275972   0.406   0.564   5.442 -0.1690 -0.4552 -0.0854
18161TIP3   OH275973   5.858   3.724   1.842  0.1637  0.9193 -0.8064
18161TIP3    H175974   5.778   3.776   1.844 -0.3460  0.1508 -0.8099
18161TIP3    H275975   5.926   3.784   1.872 -0.5323  1.3708 -0.0966
18162TIP3   OH275976   1.211   1.019  16.690 -0.1160  0.0261  0.2542
18162TIP3    H175977   1.149   1.063  16.632  0.7101  0.1295 -0.5505
18162TIP3    H275978   1.171   1.028  16.777 -0.6912  1.0584 -0.0959
18163TIP3   OH275979   4.024   4.606  11.783  0.6412 -0.2424  0.3810
18163TIP3    H175980   3.944   4.617  11.834  0.6002  0.1805  0.2279
18163TIP3    H275981   3.996   4.616  11.692  0.9386  0.3481  0.3516
18164TIP3   OH275982   0.377   0.172  11.159 -0.0662 -0.1423  0.8391
18164TIP3    H175983   0.366   0.099  11.098 -0.0980 -0.1007  0.7945
18164TIP3    H275984   0.409   0.244  11.105  1.2564 -0.4982  1.1206
18165TIP3   OH275985   2.264   0.627   1.394 -0.3821 -0.5162  0.4307
18165TIP3    H175986   2.326   0.568   1.436  1.2393  1.4480  0.9790
18165TIP3    H275987   2.317   0.677   1.332 -1.6620  0.4152  0.0385
18166TIP3   OH275988   0.784   4.107   1.982 -0.1939  0.0239  0.8165
18166TIP3    H175989   0.715   4.173   1.989 -0.7488 -0.6883  2.6670
18166TIP3    H275990   0.836   4.119   2.061  1.5106  0.1879 -0.2982
18167TIP3   OH275991   6.716   0.272   5.270 -0.0229 -0.9013 -0.6323
18167TIP3    H175992   6.795   0.287   5.217  0.1225 -0.6561 -0.3496
18167TIP3    H275993   6.716   0.178   5.286 -0.6391 -1.1530 -1.9540
18168TIP3   OH275994   5.876   5.816   1.962 -0.1531 -0.1466 -0.4465
18168TIP3    H175995   5.924   5.739   1.933  0.2544  0.4055 -1.2741
18168TIP3    H275996   5.888   5.880   1.892 -1.1234  0.4099 -0.1305
18169TIP3   OH275997   0.244   2.176  14.128  0.3383 -0.3233  0.3523
18169TIP3    H175998   0.283   2.095  14.095  1.4940  0.1622  0.5039
18169TIP3    H275999   0.249   2.168  14.223 -0.3077 -0.4306  0.3804
18170TIP3   OH276000   3.059   6.528   3.875 -0.2078  0.2300  0.5018
18170TIP3    H176001   3.026   6.518   3.964 -1.2975 -1.1099 -0.0137
18170TIP3    H276002   3.005   6.597   3.837 -2.1913 -1.5830 -0.1669
18171TIP3   OH276003   1.179   2.200   5.972  0.4375 -0.3593  0.0463
18171TIP3    H176004   1.137   2.154   6.045 -0.2649 -0.2213 -0.2635
18171TIP3    H276005   1.251   2.249   6.012  0.5029 -0.8592  0.5389
18172TIP3   OH276006   1.497   0.402  12.346  0.3455  0.1548 -0.1451
18172TIP3    H176007   1.578   0.420  12.394 -0.4329  0.8725  0.9610
18172TIP3    H276008   1.433   0.464  12.383 -0.9764 -1.0825 -0.2652
18173TIP3   OH276009   2.087   3.356   0.129 -0.3129  0.9203  0.9761
18173TIP3    H176010   2.155   3.419   0.153 -0.1250 -0.3737  4.4940
18173TIP3    H276011   2.006   3.393   0.163 -0.3853 -0.0903  1.9801
18174TIP3   OH276012   3.095   2.409  16.000  0.4995 -0.4987 -0.3479
18174TIP3    H176013   3.059   2.491  15.968 -2.1796 -0.8552  1.3750
18174TIP3    H276014   3.166   2.387  15.939  0.6919  2.5739 -1.3663
18175TIP3   OH276015   5.471   1.732  13.007 -0.3085 -0.1650 -0.2123
18175TIP3    H176016   5.532   1.790  13.051  1.8601 -2.8646  0.6019
18175TIP3    H276017   5.417   1.791  12.953  1.7024  2.5305  0.4924
18176TIP3   OH276018   1.007   0.635   2.338 -0.0216  1.3139 -0.3851
18176TIP3    H176019   1.096   0.664   2.357  0.3499  0.4814 -0.7925
18176TIP3    H276020   0.985   0.678   2.256  0.6808  0.1948 -1.2027
18177TIP3   OH276021   6.226   5.907  13.295  0.0763 -0.0818  0.0235
18177TIP3    H176022   6.278   5.827  13.287  1.8334  0.8710  1.2623
18177TIP3    H276023   6.266   5.968  13.234 -1.5710 -0.2407 -1.2906
18178TIP3   OH276024   3.145   4.632   3.806  0.1833  0.6281 -0.6924
18178TIP3    H176025   3.189   4.694   3.864  0.5097 -0.2308  0.0023
18178TIP3    H276026   3.207   4.617   3.735  1.6515 -1.5391  0.9132
18179TIP3   OH276027   0.077   4.258   3.121 -0.4153  0.1470  0.3979
18179TIP3    H176028   0.043   4.338   3.162  2.2572  2.8292 -2.1148
18179TIP3    H276029   0.124   4.213   3.191 -0.6131  1.6341  1.5429
18180TIP3   OH276030   1.832   2.738   0.477 -0.2141  0.1557 -0.2478
18180TIP3    H176031   1.897   2.670   0.459  0.2091  0.6842 -0.7421
18180TIP3    H276032   1.776   2.700   0.545  0.7656 -0.2109  0.3756
18181TIP3   OH276033   5.856   1.514   3.786  0.1053 -0.3207  0.1072
18181TIP3    H176034   5.769   1.524   3.747  0.9455  1.6526 -1.4837
18181TIP3    H276035   5.859   1.424   3.819 -3.2056  0.1350  2.0333
18182TIP3   OH276036   5.044   0.035  17.152  0.0312 -0.2140 -0.3298
18182TIP3    H176037   4.955   0.071  17.148  0.1708  0.5793  2.0579
18182TIP3    H276038   5.063   0.008  17.063 -2.1992  0.6029 -1.1213
18183TIP3   OH276039   0.074   0.945   0.339  0.0828 -0.0727 -0.3558
18183TIP3    H176040   0.115   0.958   0.425 -0.0136 -1.1040 -0.1349
18183TIP3    H276041  -0.019   0.962   0.355  0.2244  0.9303 -0.5450
18184TIP3   OH276042   5.067   0.135  15.392 -0.1118 -0.2272 -0.2901
18184TIP3    H176043   5.152   0.109  15.357 -0.1008 -0.4238 -0.1183
18184TIP3    H276044   5.087   0.193  15.465  0.0670 -3.5569  2.6001
18185TIP3   OH276045   6.556   3.827  14.876  0.5868 -0.2352 -0.5903
18185TIP3    H176046   6.582   3.803  14.786 -0.8593 -0.6044 -0.9301
18185TIP3    H276047   6.487   3.765  14.898 -0.6942  1.3207 -0.0948
18186TIP3   OH276048   3.349   3.526  11.921  0.1902  0.0884  0.1104
18186TIP3    H176049   3.300   3.448  11.896  0.9243  0.0115 -1.1633
18186TIP3    H276050   3.396   3.551  11.842  1.4404  0.7292  1.0334
18187TIP3   OH276051   1.388   5.392   0.011 -0.3245 -0.2850 -0.4324
18187TIP3    H176052   1.321   5.446  -0.029 -0.0407  0.1325 -0.3562
18187TIP3    H276053   1.362   5.386   0.103  0.7103  1.4427  0.0172
18188TIP3   OH276054   4.554   2.629   0.315 -0.3663 -0.3010 -0.1112
18188TIP3    H176055   4.628   2.597   0.264  0.3542  0.8309  0.1892
18188TIP3    H276056   4.574   2.722   0.331 -1.3360 -0.2412  0.8765
18189TIP3   OH276057   1.151   0.022  15.413 -0.5376 -0.4173  0.9069
18189TIP3    H176058   1.195   0.096  15.455  0.5459 -1.2215  1.2508
18189TIP3    H276059   1.091  -0.010  15.480 -0.3428 -0.4021  1.0919
18190TIP3   OH276060   0.045   6.046   1.183 -0.3905  0.0354 -0.3285
18190TIP3    H176061  -0.022   5.987   1.149  1.1550 -0.2621 -3.2347
18190TIP3    H276062   0.102   5.989   1.235 -2.6321  0.4393  2.8772
18191TIP3   OH276063   4.686   3.608   5.773  0.3328  0.4353 -0.1524
18191TIP3    H176064   4.754   3.578   5.713  2.2686 -0.3919  2.3045
18191TIP3    H276065   4.617   3.542   5.766  1.3384 -0.6494 -0.1260
18192TIP3   OH276066   0.957   0.645  12.471 -0.2124 -0.0167 -0.1893
18192TIP3    H176067   0.990   0.723  12.426 -3.3978  0.7848 -1.3589
18192TIP3    H276068   0.950   0.579  12.402  0.4820 -0.7262  0.3926
18193TIP3   OH276069   0.241   2.146  13.631 -0.2385  0.1562  0.3051
18193TIP3    H176070   0.253   2.169  13.539  1.0616 -0.0240  0.4007
18193TIP3    H276071   0.237   2.230  13.677 -2.0308  0.2748 -0.0118
18194TIP3   OH276072   0.159   1.689   2.639 -0.1894 -0.6255 -0.0312
18194TIP3    H176073   0.163   1.784   2.632  1.0465 -0.7719 -2.1586
18194TIP3    H276074   0.070   1.671   2.669 -0.4030  1.1814  0.5387
18195TIP3   OH276075   1.162   0.570   0.676 -0.1920 -0.4483  0.0227
18195TIP3    H176076   1.130   0.613   0.755 -0.9051 -0.0325 -0.4756
18195TIP3    H276077   1.211   0.639   0.629 -1.9800  0.0934 -1.1474
18196TIP3   OH276078   6.404   0.645  15.314  0.6473  0.0356  0.0986
18196TIP3    H176079   6.391   0.727  15.363 -0.6698 -0.4085  0.5460
18196TIP3    H276080   6.400   0.672  15.222 -0.7715  0.3878  0.2245
18197TIP3   OH276081   3.875   2.270  12.482  0.3063  0.6542 -0.4759
18197TIP3    H176082   3.893   2.225  12.400 -0.2013  0.6493 -0.5903
18197TIP3    H276083   3.784   2.248  12.502  0.7666 -0.2699  0.6840
18198TIP3   OH276084   6.399   4.098   1.446  0.6893 -0.0624  0.3284
18198TIP3    H176085   6.337   4.063   1.510  2.2798 -2.5757  0.6290
18198TIP3    H276086   6.395   4.037   1.372  2.4904 -0.0896  0.2077
18199TIP3   OH276087   6.268   1.344   6.692 -0.1425 -0.4461 -0.5177
18199TIP3    H176088   6.322   1.351   6.771  0.3453 -1.7045 -0.7217
18199TIP3    H276089   6.228   1.258   6.698  0.3354 -0.7938 -1.9050
18200TIP3   OH276090   0.482   3.546   0.997  0.2180  0.3224  0.0174
18200TIP3    H176091   0.550   3.591   0.946  0.0360  0.4863 -0.0811
18200TIP3    H276092   0.506   3.561   1.088  0.9678 -0.6021 -0.0121
18201TIP3   OH276093   6.676   4.371  10.271 -0.7069 -0.4233  0.7311
18201TIP3    H176094   6.743   4.335  10.328 -2.1255 -2.7804  1.0639
18201TIP3    H276095   6.704   4.348  10.183 -0.4405 -0.2394  0.7678
18202TIP3   OH276096   6.049   3.771   0.920 -1.0387  0.4768 -0.3074
18202TIP3    H176097   6.016   3.861   0.912  0.2118  1.1397  1.2694
18202TIP3    H276098   6.072   3.746   0.831  0.4121  2.4932 -0.5784
18203TIP3   OH276099   3.322   6.640   6.358  0.3079  0.7397 -0.0037
18203TIP3    H176100   3.334   6.581   6.284 -0.4980 -0.6399  0.9156
18203TIP3    H276101   3.245   6.692   6.336 -0.5538 -0.3850  0.2850
18204TIP3   OH276102   1.704   6.778  14.080 -0.1082 -0.4019  0.3661
18204TIP3    H176103   1.638   6.817  14.138 -0.3694  2.0493 -1.4237
18204TIP3    H276104   1.659   6.705  14.037  0.3553 -2.9225  3.7374
18205TIP3   OH276105   3.699   1.644   3.279  0.0603 -0.1772 -0.5602
18205TIP3    H176106   3.793   1.650   3.298 -0.3624  3.4426  1.3921
18205TIP3    H276107   3.691   1.673   3.188  0.8188  0.1333 -0.5385
18206TIP3   OH276108   4.651   6.586  14.973 -0.0590  0.3537 -0.2679
18206TIP3    H176109   4.567   6.563  14.934 -0.5967  0.3441  0.8691
18206TIP3    H276110   4.682   6.506  15.015 -0.0109  0.6464  0.2619
18207TIP3   OH276111   2.793   0.023   1.811  0.1704 -0.5509  0.0443
18207TIP3    H176112   2.831  -0.024   1.885  0.6878 -0.1319  0.0518
18207TIP3    H276113   2.855   0.094   1.793 -0.5456  0.0635 -0.0287
18208TIP3   OH276114   3.186   3.946   0.113 -0.7184  0.2523  0.3251
18208TIP3    H176115   3.152   4.007   0.047  0.8928 -2.4029 -3.2754
18208TIP3    H276116   3.108   3.913   0.158 -2.0196  1.2599 -1.1029
18209TIP3   OH276117   4.938   2.371   5.078  1.0061  0.3952  0.4560
18209TIP3    H176118   4.963   2.376   4.986  0.6928  0.8019  0.3916
18209TIP3    H276119   4.842   2.367   5.077  0.9589  1.1553  0.7840
18210TIP3   OH276120   1.714   6.210   1.956 -0.5762 -0.0834  0.7306
18210TIP3    H176121   1.627   6.172   1.949  0.6006 -2.9169  0.4352
18210TIP3    H276122   1.719   6.272   1.883 -1.7153 -1.2593 -0.3917
18211TIP3   OH276123   4.794   5.224   1.943  0.0372  0.0112  0.0183
18211TIP3    H176124   4.766   5.133   1.937  0.1341  0.0022 -0.3224
18211TIP3    H276125   4.860   5.234   1.874  1.1710 -0.0783  1.0502
18212TIP3   OH276126   4.001   1.919  16.702 -0.3059 -0.4495 -0.6151
18212TIP3    H176127   3.927   1.904  16.760 -0.4770 -1.7998 -1.1420
18212TIP3    H276128   3.971   1.987  16.641 -1.8656 -2.3192 -2.0402
18213TIP3   OH276129   3.782   2.725   5.253  0.4597  0.3392  0.5292
18213TIP3    H176130   3.706   2.724   5.195  0.0780  1.7407  0.9730
18213TIP3    H276131   3.796   2.633   5.275 -1.2239  0.0578  0.5854
18214TIP3   OH276132   0.069   1.544   3.308 -0.1090  0.2763  0.0309
18214TIP3    H176133   0.100   1.456   3.287 -0.1910  0.5211 -1.2071
18214TIP3    H276134   0.145   1.601   3.294 -0.1002  0.4236  0.6628
18215TIP3   OH276135   0.766   3.905  15.617 -0.6356  0.6730  0.4332
18215TIP3    H176136   0.838   3.951  15.574  0.8608 -0.6757  1.3356
18215TIP3    H276137   0.783   3.916  15.711 -1.2535 -0.1671  0.6610
18216TIP3   OH276138   0.482   3.795   1.583  0.0116 -0.1775  0.4181
18216TIP3    H176139   0.510   3.887   1.575 -1.0387  0.0944 -0.3590
18216TIP3    H276140   0.411   3.786   1.520 -1.8114 -0.7941  2.4516
18217TIP3   OH276141   3.744   4.469  13.137 -0.5097  0.2231 -0.8025
18217TIP3    H176142   3.651   4.484  13.154 -0.6322 -0.1023 -1.1735
18217TIP3    H276143   3.788   4.510  13.211 -0.9548  0.2500 -0.5447
18218TIP3   OH276144   0.368   4.800   3.039 -0.3590 -0.2313 -0.0222
18218TIP3    H176145   0.301   4.808   3.107  1.1408  0.7859  1.4355
18218TIP3    H276146   0.424   4.877   3.051  0.2187 -0.2584 -2.1612
18219TIP3   OH276147   2.223   3.822  17.168  0.6030 -0.2993  0.0763
18219TIP3    H176148   2.209   3.751  17.105  1.1196  0.4949 -0.9539
18219TIP3    H276149   2.310   3.856  17.148  0.6055  0.2505  0.9514
18220TIP3   OH276150   4.704   5.578  12.449 -0.2849  0.1237  0.1355
18220TIP3    H176151   4.765   5.624  12.391  0.2412  0.2359  0.7618
18220TIP3    H276152   4.717   5.486  12.428  0.3474  0.1254  0.4895
18221TIP3   OH276153   0.018   6.419  12.215 -0.2404 -0.5307  0.3619
18221TIP3    H176154   0.052   6.332  12.235  1.6579  0.1374  0.2265
18221TIP3    H276155   0.006   6.419  12.120  1.5996 -0.0671  0.0940
18222TIP3   OH276156   3.192   3.732   3.244 -0.2332 -0.1076 -0.0147
18222TIP3    H176157   3.158   3.785   3.172  0.9389  0.9534  0.1679
18222TIP3    H276158   3.286   3.723   3.225  0.3918  1.3006  1.9914
18223TIP3   OH276159   2.664   1.043   3.060 -0.5676  0.1649  0.1369
18223TIP3    H176160   2.617   1.014   3.138 -0.3351 -2.3573 -0.5919
18223TIP3    H276161   2.740   0.986   3.054  0.1982  1.2483 -1.1789
18224TIP3   OH276162   0.990   1.113  16.310  0.5574 -0.4534 -0.3769
18224TIP3    H176163   0.982   1.126  16.216  1.6244  0.9593 -0.3031
18224TIP3    H276164   0.938   1.034  16.328 -2.1811  0.9402 -1.6459
18225TIP3   OH276165   4.318   4.761   4.587  0.8728 -0.5262 -0.4248
18225TIP3    H176166   4.260   4.708   4.641  1.8184 -0.7273  0.4314
18225TIP3    H276167   4.356   4.699   4.525  2.0801 -0.9297  0.6613
18226TIP3   OH276168   3.127   6.140   1.409 -0.0446 -0.2909  0.1328
18226TIP3    H176169   3.147   6.233   1.417  3.2000 -0.9653  1.4546
18226TIP3    H276170   3.120   6.125   1.314 -2.4804  1.5394 -0.0566
18227TIP3   OH276171   4.222   5.996  13.758 -0.4415 -0.0435  0.8143
18227TIP3    H176172   4.289   5.930  13.739  0.1774  1.1702 -1.7508
18227TIP3    H276173   4.139   5.952  13.737 -0.1013 -0.3258 -0.0105
18228TIP3   OH276174   1.672   3.194   0.643 -0.3284  0.0008  0.2153
18228TIP3    H176175   1.718   3.156   0.569 -0.9796 -3.0372  1.2128
18228TIP3    H276176   1.737   3.194   0.714 -0.3956  0.6239  0.2813
18229TIP3   OH276177   6.203   5.502  13.198  0.2659 -0.2567 -0.3599
18229TIP3    H176178   6.282   5.476  13.245  0.4001 -0.0295 -0.4614
18229TIP3    H276179   6.172   5.579  13.246  0.5232  0.1068 -0.7773
18230TIP3   OH276180   3.914   1.798   1.365 -0.2691 -0.6785  0.0779
18230TIP3    H176181   3.915   1.716   1.414 -0.4671 -1.4052 -1.0752
18230TIP3    H276182   3.990   1.792   1.307  0.8383  0.8264  1.2818
18231TIP3   OH276183   1.349   1.608   6.027  0.0997 -0.1178 -0.5286
18231TIP3    H176184   1.344   1.652   5.942 -3.2751 -0.9562 -0.9355
18231TIP3    H276185   1.431   1.637   6.065  0.2277  2.8247 -2.7170
18232TIP3   OH276186   5.574   5.858   3.032  0.3568  0.3169 -0.2342
18232TIP3    H176187   5.630   5.781   3.019  1.8673  1.3768 -0.2606
18232TIP3    H276188   5.593   5.914   2.957  0.4553  1.3849  0.5699
18233TIP3   OH276189   2.754   2.620  12.553 -0.6670 -0.7024  0.8090
18233TIP3    H176190   2.677   2.653  12.505 -1.5878 -0.0596  2.6388
18233TIP3    H276191   2.829   2.649  12.500 -1.5802  1.1947  0.4405
18234TIP3   OH276192   3.220   0.298   2.433  0.9690 -0.2900  0.7299
18234TIP3    H176193   3.268   0.247   2.368 -0.3668 -1.0496  0.3046
18234TIP3    H276194   3.238   0.389   2.410 -0.1967 -0.5109 -1.3158
18235TIP3   OH276195   2.807   6.358   0.006  0.1722  0.0885  0.3324
18235TIP3    H176196   2.884   6.369   0.063  0.1552 -1.3909  0.6823
18235TIP3    H276197   2.732   6.364   0.065  0.0956 -0.1938  0.2637
18236TIP3   OH276198   3.504   4.622  12.326  0.4267  0.1833 -0.3264
18236TIP3    H176199   3.462   4.652  12.406  0.1087 -0.1213 -0.3798
18236TIP3    H276200   3.475   4.685  12.259 -0.4389 -0.3835 -0.4897
18237TIP3   OH276201   0.973   4.923  11.053  0.5586  0.2632 -0.0700
18237TIP3    H176202   0.880   4.903  11.051  0.5649  0.1652  0.6287
18237TIP3    H276203   0.999   4.921  10.961  0.3051 -1.7874 -0.1519
18238TIP3   OH276204   0.628   5.801  15.537 -0.0359  0.7883 -0.1493
18238TIP3    H176205   0.533   5.791  15.532 -0.0342  1.1311 -1.3612
18238TIP3    H276206   0.657   5.737  15.602 -1.0485  0.3766 -0.1002
18239TIP3   OH276207   0.857   3.554   6.113  0.3969 -0.3998 -0.2523
18239TIP3    H176208   0.784   3.608   6.084  0.6206  1.2787  2.1220
18239TIP3    H276209   0.900   3.605   6.181  2.9364 -1.9718 -0.5438
18240TIP3   OH276210   5.039   0.306  11.004  0.0414  0.1683 -0.6696
18240TIP3    H176211   5.002   0.379  10.954  0.4023  0.1779 -0.9215
18240TIP3    H276212   4.963   0.253  11.028 -0.0591 -0.2905 -1.9473
18241TIP3   OH276213   3.047   1.191   1.405 -0.0611 -0.0240 -0.4780
18241TIP3    H176214   3.009   1.167   1.489 -0.6059 -1.5306 -1.1224
18241TIP3    H276215   2.974   1.227   1.355  0.3281  1.1756 -0.2284
18242TIP3   OH276216   1.886   3.611   5.560 -0.2800  0.3351  0.1623
18242TIP3    H176217   1.823   3.681   5.574 -1.4208 -1.1348  3.5590
18242TIP3    H276218   1.838   3.530   5.580  1.6542 -1.2161 -1.0277
18243TIP3   OH276219   1.798   2.310   5.543  0.1703 -0.9993  0.0743
18243TIP3    H176220   1.844   2.313   5.459 -0.7443 -1.2072 -0.4444
18243TIP3    H276221   1.765   2.220   5.549 -0.6283 -0.7056  0.1799
18244TIP3   OH276222   6.514   5.493  14.831  0.0981 -0.1857  0.2920
18244TIP3    H176223   6.486   5.419  14.884 -0.4789 -0.8609 -0.9275
18244TIP3    H276224   6.605   5.509  14.857  0.1697 -1.2089  0.6851
18245TIP3   OH276225   3.043   0.527   1.669  0.3055  0.0058  0.5928
18245TIP3    H176226   3.091   0.604   1.701  0.4289 -0.0616  0.5706
18245TIP3    H276227   3.081   0.510   1.583 -0.4055  0.5226  0.1697
18246TIP3   OH276228   6.222   4.487   1.564  0.7079 -1.1599 -0.4176
18246TIP3    H176229   6.193   4.448   1.647  2.0488 -0.8667  0.2226
18246TIP3    H276230   6.189   4.576   1.566  0.8085 -1.1274 -0.1538
18247TIP3   OH276231   4.339   2.525   0.145 -0.6002  0.8642 -0.3938
18247TIP3    H176232   4.401   2.557   0.210 -0.1399  2.5212 -1.5827
18247TIP3    H276233   4.391   2.515   0.065 -1.4753  0.4123 -0.9195
18248TIP3   OH276234   1.440   1.409   1.023  0.2152  0.5026  0.1094
18248TIP3    H176235   1.424   1.330   0.971  1.1613  1.3222 -1.4971
18248TIP3    H276236   1.363   1.416   1.080 -1.2647 -0.0091 -1.7201
18249TIP3   OH276237   3.485   1.518  14.170 -0.1253  0.4292  0.4149
18249TIP3    H176238   3.397   1.496  14.139  0.5453 -1.2396 -0.4229
18249TIP3    H276239   3.516   1.439  14.214  0.4866  1.4334  1.8541
18250TIP3   OH276240   2.026   1.096   1.480 -0.0980  0.0262  0.6785
18250TIP3    H176241   2.065   1.118   1.565  1.7013 -0.4887  0.0363
18250TIP3    H276242   2.041   1.002   1.471  0.1991  0.1658 -0.4101
18251TIP3   OH276243   3.607   3.761  11.359  0.5034  0.3207 -0.1557
18251TIP3    H176244   3.642   3.843  11.395  0.0407  0.2223  0.5511
18251TIP3    H276245   3.682   3.701  11.362  0.3503  0.1517  1.2116
18252TIP3   OH276246   0.270   1.942   2.643 -0.1227  0.1700  0.1388
18252TIP3    H176247   0.255   2.036   2.656  0.9856  0.6385 -1.6015
18252TIP3    H276248   0.309   1.936   2.555  1.0565 -1.8042  0.7381
18253TIP3   OH276249   6.647   0.765   2.840  0.0780  0.4182  0.2661
18253TIP3    H176250   6.716   0.727   2.785 -0.9255  0.5150 -1.1324
18253TIP3    H276251   6.584   0.694   2.852 -0.0099  0.5792  0.7560
18254TIP3   OH276252   3.072   6.718   6.301  0.1776  0.0578  0.5409
18254TIP3    H176253   3.060   6.664   6.379 -0.9627 -0.6874 -0.1236
18254TIP3    H276254   3.023   6.673   6.232 -0.2507  1.5734 -0.2097
18255TIP3   OH276255   3.489   6.724  14.826  0.3929  0.3734  0.3638
18255TIP3    H176256   3.424   6.659  14.851 -0.0087  0.6148 -0.0443
18255TIP3    H276257   3.572   6.677  14.827 -0.1245 -0.7484 -2.0376
18256TIP3   OH276258   1.785   3.596   6.485 -0.3931  0.7520  0.1384
18256TIP3    H176259   1.770   3.683   6.522 -0.4751  0.3777  1.0129
18256TIP3    H276260   1.880   3.591   6.475 -0.3760  0.8834  0.2274
18257TIP3   OH276261   5.961   4.927  11.403  0.3965  0.2599 -0.3587
18257TIP3    H176262   5.877   4.961  11.374  0.5028  0.1623 -0.7902
18257TIP3    H276263   6.017   4.934  11.325  0.6023 -0.2845 -0.2595
18258TIP3   OH276264   0.052   2.197   4.765 -0.1111 -0.2337 -0.1339
18258TIP3    H176265   0.077   2.144   4.690  0.1619 -0.9338  0.4365
18258TIP3    H276266  -0.028   2.243   4.738  0.5721  0.3397 -1.2115
18259TIP3   OH276267   3.664   5.015   3.206 -0.0627 -0.4234  0.3935
18259TIP3    H176268   3.662   5.063   3.288 -0.6810  0.9071 -0.3700
18259TIP3    H276269   3.686   4.925   3.231 -1.4672 -0.3216  2.1321
18260TIP3   OH276270   0.089   6.122   2.513  0.3642 -0.3041  0.3658
18260TIP3    H176271   0.059   6.209   2.537  1.2351 -0.0250  0.4875
18260TIP3    H276272   0.052   6.064   2.580 -0.3456 -0.0547  0.1925
18261TIP3   OH276273   3.366   6.185  16.954 -0.0379 -0.1171  0.2474
18261TIP3    H176274   3.318   6.267  16.941  0.6062  0.1933 -0.2203
18261TIP3    H276275   3.406   6.167  16.869  1.4152  0.1078  0.8574
18262TIP3   OH276276   2.466   6.253   3.425 -0.1333 -0.5223 -0.3435
18262TIP3    H176277   2.483   6.189   3.494 -2.1033  0.1716  0.8369
18262TIP3    H276278   2.497   6.336   3.462 -1.7254 -0.0506 -0.0261
18263TIP3   OH276279   4.653   1.499  15.987  0.3891 -0.3673  0.0117
18263TIP3    H176280   4.632   1.512  16.080  1.5868  0.8012  0.1600
18263TIP3    H276281   4.578   1.535  15.940 -1.4861 -3.3104  0.4464
18264TIP3   OH276282   1.763   5.491   0.635 -0.3994  0.2346  0.4181
18264TIP3    H176283   1.695   5.439   0.677 -1.4660  1.0249 -0.2581
18264TIP3    H276284   1.717   5.537   0.564  1.1658 -0.4699 -1.1328
18265TIP3   OH276285   0.079   5.506  11.015  0.8125  0.1878 -0.4107
18265TIP3    H176286   0.152   5.470  11.065  0.8128 -0.6729 -1.0039
18265TIP3    H276287   0.120   5.564  10.951  1.1271 -1.3546 -1.6568
18266TIP3   OH276288   1.605   1.181  17.046 -0.4250  0.3970  0.1945
18266TIP3    H176289   1.666   1.161  17.117 -0.6755  1.4700  0.7442
18266TIP3    H276290   1.599   1.100  16.995  2.6492  0.6831 -0.8256
18267TIP3   OH276291   3.829   0.035   2.341 -0.2551  0.3237  0.4800
18267TIP3    H176292   3.861   0.124   2.354  2.5751 -0.2782 -1.4209
18267TIP3    H276293   3.848  -0.010   2.423  1.2100  0.7510  0.4013
18268TIP3   OH276294   5.627   0.325   2.399 -0.4499 -0.3412  0.6607
18268TIP3    H176295   5.603   0.364   2.315 -1.2615 -1.4622  0.3503
18268TIP3    H276296   5.619   0.397   2.462 -0.7836  0.2731 -0.0652
18269TIP3   OH276297   3.630   3.735  11.897  0.6130  0.0013  0.8246
18269TIP3    H176298   3.560   3.769  11.953 -0.1139 -0.9343  0.5114
18269TIP3    H276299   3.689   3.690  11.957 -0.7561 -1.9821  0.7580
18270TIP3   OH276300   2.477   1.945  11.271 -0.1183 -0.2846  0.0653
18270TIP3    H176301   2.463   1.972  11.180  0.3743  0.2277  0.1366
18270TIP3    H276302   2.417   1.871  11.283  0.2627 -0.7690 -0.8618
18271TIP3   OH276303   5.089   5.297   2.686  0.0127  0.3257  0.2184
18271TIP3    H176304   5.008   5.326   2.729 -0.4651 -0.6433 -0.0088
18271TIP3    H276305   5.086   5.338   2.600 -0.5449 -0.1817 -0.0140
18272TIP3   OH276306   0.169   2.630  13.658 -0.2293  0.0543  0.2970
18272TIP3    H176307   0.125   2.636  13.743 -0.1346 -0.2273  0.3658
18272TIP3    H276308   0.258   2.662  13.675 -0.3484  0.4436  0.1996
18273TIP3   OH276309   3.630   6.442  12.282 -0.5697  0.4101 -0.0960
18273TIP3    H176310   3.638   6.364  12.227 -0.1061  1.2043 -1.1984
18273TIP3    H276311   3.716   6.482  12.280 -0.5571  0.4899  1.2072
18274TIP3   OH276312   4.899   6.744  15.441  0.0438  0.2671 -0.6373
18274TIP3    H176313   4.972   6.804  15.421  0.9189 -0.4913  0.1629
18274TIP3    H276314   4.856   6.729  15.357 -1.0149  3.0154 -0.6786
18275TIP3   OH276315   1.754   4.663   5.208 -0.3380 -0.2287  0.0643
18275TIP3    H176316   1.759   4.665   5.112  0.3226 -0.5874  0.0831
18275TIP3    H276317   1.782   4.574   5.231  1.5504  0.4694  0.6718
18276TIP3   OH276318   2.656   6.560   4.856  0.1649 -0.2676 -0.5743
18276TIP3    H176319   2.621   6.515   4.779 -0.3926 -1.9446  0.6078
18276TIP3    H276320   2.598   6.536   4.927  1.4893  0.0562  0.6724
18277TIP3   OH276321   2.470   3.563  13.316  0.7505 -0.0243  0.0062
18277TIP3    H176322   2.504   3.653  13.319  1.4831 -0.3197  1.3645
18277TIP3    H276323   2.399   3.567  13.252 -1.1068  2.2068  1.9847
18278TIP3   OH276324   5.437   1.499  12.157 -0.1854 -0.4408 -0.0491
18278TIP3    H176325   5.365   1.481  12.218 -0.2062 -2.4917 -0.6177
18278TIP3    H276326   5.490   1.420  12.159 -0.0605 -0.4919 -2.5321
18279TIP3   OH276327   3.062   4.434  12.679 -0.3220  0.1120  0.1825
18279TIP3    H176328   3.153   4.461  12.691  0.3437 -1.5672 -0.7620
18279TIP3    H276329   3.044   4.449  12.586 -1.1482  0.8005  0.4449
18280TIP3   OH276330   1.006   1.430   5.445 -0.7382  0.6018  0.1681
18280TIP3    H176331   0.956   1.424   5.527 -2.6230 -0.7741 -0.9902
18280TIP3    H276332   0.965   1.501   5.397  0.1324  1.1713  0.2498
18281TIP3   OH276333   5.953   1.404  11.256 -0.5233 -0.3861  0.1034
18281TIP3    H176334   5.870   1.357  11.269 -1.3031  1.0479  0.5985
18281TIP3    H276335   6.020   1.342  11.285 -1.6495 -0.3285  3.3205
18282TIP3   OH276336   6.825   5.212   3.134 -0.4932 -0.4786 -0.1636
18282TIP3    H176337   6.917   5.226   3.157 -0.2564 -1.0759 -0.7180
18282TIP3    H276338   6.805   5.283   3.072 -0.1740 -0.8011 -0.6440
18283TIP3   OH276339   2.143   3.092   3.094 -0.3756 -0.3987  0.2805
18283TIP3    H176340   2.081   3.051   3.033 -0.6899 -0.6050  0.7352
18283TIP3    H276341   2.226   3.047   3.077 -0.3821 -0.2323 -0.2197
18284TIP3   OH276342   3.005   4.722   1.607 -0.3657  0.1880 -0.0793
18284TIP3    H176343   3.079   4.733   1.547 -0.7940  1.1614 -0.4491
18284TIP3    H276344   3.023   4.640   1.651  0.7997  0.2655 -0.3639
18285TIP3   OH276345   4.679   0.883   2.471 -0.0047  0.0225  0.2135
18285TIP3    H176346   4.737   0.954   2.498  1.0291 -0.3719 -0.8759
18285TIP3    H276347   4.700   0.811   2.531  1.4568 -0.4750 -0.8344
18286TIP3   OH276348   3.976   2.233   4.794  0.4143 -0.3481 -0.4347
18286TIP3    H176349   3.891   2.197   4.770 -0.3511  0.3632  1.0435
18286TIP3    H276350   4.038   2.190   4.735 -0.7289 -2.2501 -0.3504
18287TIP3   OH276351   4.433   3.506  10.717  0.4060  0.0676 -0.0874
18287TIP3    H176352   4.372   3.579  10.715 -0.0233 -0.2891 -0.1856
18287TIP3    H276353   4.500   3.530  10.653  0.8756  0.8821  0.6822
18288TIP3   OH276354   4.102   5.282   6.543  0.2779 -0.4614  0.1308
18288TIP3    H176355   4.136   5.356   6.594  1.4172 -0.7131 -0.2304
18288TIP3    H276356   4.108   5.207   6.602 -1.1977 -0.2213  0.6126
18289TIP3   OH276357   6.271   0.012   0.946  0.4747 -0.1194 -0.2001
18289TIP3    H176358   6.198  -0.027   0.994  0.5863  0.6118  0.5788
18289TIP3    H276359   6.266  -0.028   0.859 -1.0763  0.2062 -0.2827
18290TIP3   OH276360   1.548   6.672   5.607  0.6812 -0.5733 -0.0024
18290TIP3    H176361   1.621   6.684   5.547  0.0126 -2.5627 -1.3290
18290TIP3    H276362   1.576   6.602   5.666  0.3933 -0.3656  0.3832
18291TIP3   OH276363   5.556   4.767   3.904  0.0457 -0.9432  0.9656
18291TIP3    H176364   5.605   4.692   3.870  1.9782  0.5514  0.2740
18291TIP3    H276365   5.617   4.810   3.963 -0.4199  0.9631  0.1250
18292TIP3   OH276366   1.472   1.732   3.061 -0.6834  0.3708  0.2092
18292TIP3    H176367   1.462   1.820   3.024 -0.9726 -0.5784 -2.1580
18292TIP3    H276368   1.514   1.681   2.991 -1.1804 -1.5639  1.2354
18293TIP3   OH276369   4.061   3.825  13.310  0.1169  0.4250  0.7237
18293TIP3    H176370   4.011   3.868  13.380  0.3323  0.5462  0.8057
18293TIP3    H276371   4.119   3.894  13.277  0.2657  0.2704  0.6650
18294TIP3   OH276372   2.468   6.457   3.615  0.5080  0.0799  0.4335
18294TIP3    H176373   2.418   6.535   3.594  0.0730 -0.7068 -1.7146
18294TIP3    H276374   2.542   6.489   3.666  1.2382  2.1832 -1.7388
18295TIP3   OH276375   2.958   2.798   2.522 -0.7328  0.0497 -0.2944
18295TIP3    H176376   2.928   2.711   2.546  1.0945 -0.7768 -0.8609
18295TIP3    H276377   2.947   2.802   2.427  0.8687 -0.2879 -0.5231
18296TIP3   OH276378   2.776   3.793  12.987  0.6394 -0.6068 -0.0023
18296TIP3    H176379   2.829   3.785  13.066  1.3517  0.1526 -0.3889
18296TIP3    H276380   2.829   3.846  12.927 -1.1474  1.5311  0.1822
18297TIP3   OH276381   5.788   2.216   3.006  0.0387  0.0435 -0.0047
18297TIP3    H176382   5.730   2.258   3.070  1.9401 -0.5260  2.2290
18297TIP3    H276383   5.809   2.285   2.943 -1.3317  0.8338  0.3778
18298TIP3   OH276384   2.237   0.296   6.526  0.4321 -0.3015 -0.6808
18298TIP3    H176385   2.273   0.359   6.588 -0.7205 -0.2415 -0.0513
18298TIP3    H276386   2.308   0.233   6.513  0.0487 -1.5940  2.4618
18299TIP3   OH276387   5.812   6.421   4.747  0.0327 -0.2097 -0.5088
18299TIP3    H176388   5.792   6.515   4.753  1.8818  0.1488  0.6099
18299TIP3    H276389   5.747   6.387   4.684 -1.4173  1.5738 -0.0651
18300TIP3   OH276390   4.694   6.437  15.737 -0.1205 -0.3884 -0.4042
18300TIP3    H176391   4.776   6.410  15.695 -0.1109  0.6631 -1.1281
18300TIP3    H276392   4.655   6.499  15.674 -0.2741  0.9930  0.9815
18301TIP3   OH276393   4.409   5.018  13.548  0.3328 -0.2032 -0.2824
18301TIP3    H176394   4.375   5.090  13.496  1.4524 -0.0817 -0.8709
18301TIP3    H276395   4.358   5.021  13.630 -0.2435  0.6720 -0.6610
18302TIP3   OH276396   6.515   2.828  15.994  0.3303 -0.4359  0.2977
18302TIP3    H176397   6.498   2.880  15.915 -1.6018 -0.1503  0.8457
18302TIP3    H276398   6.592   2.869  16.033 -0.4725  1.3587  0.1249
18303TIP3   OH276399   6.763   6.277  11.515  0.3692  0.0824 -0.4555
18303TIP3    H176400   6.846   6.250  11.554  0.2627 -1.1251 -1.0334
18303TIP3    H276401   6.728   6.198  11.475 -2.6591 -0.2547  2.4919
18304TIP3   OH276402   3.014   3.284  14.161 -0.0443  0.5107 -0.1894
18304TIP3    H176403   3.008   3.189  14.166  0.0894  0.5247  0.2095
18304TIP3    H276404   2.925   3.315  14.173 -0.4861  0.3518 -2.4665
18305TIP3   OH276405   2.968   3.412   1.740 -0.0825 -0.1128 -0.2675
18305TIP3    H176406   3.021   3.334   1.755  1.5975  0.8653 -0.7780
18305TIP3    H276407   2.907   3.387   1.671  1.2998 -0.6267 -1.3521
18306TIP3   OH276408   5.558   2.111  16.840 -0.2606 -0.0469  0.2248
18306TIP3    H176409   5.587   2.081  16.753 -2.6389 -1.3378 -0.1948
18306TIP3    H276410   5.574   2.037  16.898 -1.9736 -0.5426  0.1139
18307TIP3   OH276411   3.355   5.536  12.528 -0.2871  0.2498  0.4858
18307TIP3    H176412   3.431   5.592  12.511  0.4318 -1.5769 -3.3579
18307TIP3    H276413   3.392   5.455  12.562 -0.5390 -0.3862 -0.7067
18308TIP3   OH276414   0.343   0.566   5.832 -0.1296 -0.5643 -0.4650
18308TIP3    H176415   0.410   0.633   5.829 -1.0260  0.4631  1.0445
18308TIP3    H276416   0.270   0.607   5.878 -2.6905 -0.8902 -3.8797
18309TIP3   OH276417   6.720   2.372   6.139  0.0650 -0.1556 -0.1163
18309TIP3    H176418   6.636   2.325   6.136 -0.2023  0.0765  1.9542
18309TIP3    H276419   6.700   2.458   6.102 -0.9563  0.2972  1.3660
18310TIP3   OH276420   5.312   1.719   4.512 -0.3206 -0.7653 -0.6245
18310TIP3    H176421   5.322   1.784   4.581  0.6921 -0.5945 -0.9205
18310TIP3    H276422   5.401   1.697   4.485 -0.6648  0.1376 -2.7531
18311TIP3   OH276423   2.629   1.901   0.445 -0.5253 -0.1317 -0.4538
18311TIP3    H176424   2.678   1.955   0.507  0.5616 -1.2314 -0.3210
18311TIP3    H276425   2.695   1.849   0.401 -1.5416 -1.4917 -0.4474
18312TIP3   OH276426   5.774   2.610  16.839  0.2017  0.5092 -0.1132
18312TIP3    H176427   5.822   2.556  16.901 -1.9552 -0.6360  0.6791
18312TIP3    H276428   5.804   2.699  16.855 -1.1823  0.4562  3.5697
18313TIP3   OH276429   2.702   6.823  14.056  0.4783 -0.3579  0.7757
18313TIP3    H176430   2.698   6.889  14.126  1.5278 -0.5480  1.0295
18313TIP3    H276431   2.795   6.812  14.039  0.2855 -1.2785  0.2490
18314TIP3   OH276432   5.274   3.495   1.925 -1.0577 -0.3286 -0.0239
18314TIP3    H176433   5.261   3.446   1.844  1.8976 -1.3192 -0.0174
18314TIP3    H276434   5.287   3.586   1.897  0.5988 -0.7611 -0.8037
18315TIP3   OH276435   3.306   0.839   3.644  0.1863 -0.2767  0.3311
18315TIP3    H176436   3.319   0.895   3.721  0.6263 -0.0282  0.0800
18315TIP3    H276437   3.358   0.881   3.575 -1.8636  0.7018 -0.7028
18316TIP3   OH276438   1.638   6.182  16.578  0.5686  0.5315  0.6360
18316TIP3    H176439   1.567   6.140  16.530  1.0079  0.4859  0.0026
18316TIP3    H276440   1.596   6.247  16.634  0.0256  0.4384  0.3358
18317TIP3   OH276441   0.591   5.928   0.056  0.1510  0.6115 -0.3847
18317TIP3    H176442   0.529   5.855   0.065 -1.0825  1.2460 -2.9962
18317TIP3    H276443   0.641   5.907  -0.022  1.7131  1.2572  0.3992
18318TIP3   OH276444   5.448   3.216   3.815  0.5594 -0.0384 -0.1736
18318TIP3    H176445   5.536   3.249   3.832  0.2781  0.7450 -0.1892
18318TIP3    H276446   5.431   3.241   3.724 -0.3373  1.4155  0.3411
18319TIP3   OH276447   2.626   6.029  14.341 -0.5501 -0.0100 -0.2629
18319TIP3    H176448   2.549   6.084  14.349 -1.1098 -1.0165  2.2569
18319TIP3    H276449   2.593   5.946  14.306 -0.1902  0.3061 -1.3819
18320TIP3   OH276450   2.898   6.307   4.000 -0.1129  0.2124 -0.0285
18320TIP3    H176451   2.921   6.216   3.979  1.0807 -0.5948  3.8954
18320TIP3    H276452   2.804   6.304   4.017 -0.2989  0.0129 -1.0118
18321TIP3   OH276453   3.357   2.210   2.605  0.0503 -0.2734  0.2341
18321TIP3    H176454   3.368   2.157   2.684  1.6393 -0.9366 -0.3732
18321TIP3    H276455   3.419   2.172   2.542 -1.4542 -0.0284 -1.4805
18322TIP3   OH276456   0.440   2.206   0.274  0.3898 -0.3262  0.0498
18322TIP3    H176457   0.505   2.136   0.279 -0.3663 -1.0935 -0.5753
18322TIP3    H276458   0.357   2.161   0.256 -0.0871  0.7467 -0.5352
18323TIP3   OH276459   2.074   4.807  12.901 -0.0010 -0.2848  0.2781
18323TIP3    H176460   2.032   4.744  12.960  0.5470 -2.7663 -1.8061
18323TIP3    H276461   2.162   4.771  12.887  1.0754  2.0542  0.5089
18324TIP3   OH276462   6.468   0.763  13.450  0.4730 -0.0675  0.0607
18324TIP3    H176463   6.449   0.783  13.542  0.1476  0.0309 -0.0278
18324TIP3    H276464   6.557   0.728  13.451 -0.3498 -2.3237  0.7232
18325TIP3   OH276465   2.721   1.309  17.101  0.3217 -0.0334  0.4341
18325TIP3    H176466   2.631   1.328  17.129  0.3806 -2.0476  2.2940
18325TIP3    H276467   2.775   1.341  17.174  0.9601 -0.4942  0.1634
18326TIP3   OH276468   2.981   6.806   5.759 -0.0399  0.2338  0.4665
18326TIP3    H176469   3.005   6.827   5.668 -1.1362  1.6464  0.4655
18326TIP3    H276470   3.042   6.858   5.812 -0.3237  0.5312  0.5075
18327TIP3   OH276471   3.477   5.924   0.193 -0.0667 -0.1133 -0.1346
18327TIP3    H176472   3.481   5.986   0.120  0.0595 -0.3055 -0.2923
18327TIP3    H276473   3.400   5.870   0.175  0.2500 -0.4847 -0.3895
18328TIP3   OH276474   6.761   6.773  13.306  0.3157  0.1558  0.7240
18328TIP3    H176475   6.779   6.834  13.378  1.7339 -0.7509  1.1841
18328TIP3    H276476   6.780   6.823  13.227 -1.1269  1.1274  0.9609
18329TIP3   OH276477   6.192   3.325   4.630  0.2299 -0.3892 -0.5275
18329TIP3    H176478   6.198   3.419   4.644 -0.8703 -0.4849  0.8008
18329TIP3    H276479   6.099   3.310   4.612  0.2067 -1.3384  0.3121
18330TIP3   OH276480   6.008   0.986  12.774 -0.4721 -0.6478 -0.4698
18330TIP3    H176481   5.921   0.954  12.800 -1.1577 -0.3737 -2.2717
18330TIP3    H276482   6.044   0.916  12.719 -0.5087  0.1642 -1.5540
18331TIP3   OH276483   1.555   0.880   2.474 -0.2438 -0.1979 -0.4592
18331TIP3    H176484   1.557   0.831   2.392 -0.1231 -0.3647 -0.3558
18331TIP3    H276485   1.608   0.828   2.535 -2.3388 -1.3745  0.4595
18332TIP3   OH276486   3.874   6.403   5.354  0.1402  0.4205  0.6051
18332TIP3    H176487   3.899   6.399   5.447  0.0101  0.5346  0.6453
18332TIP3    H276488   3.955   6.422   5.308  0.2994 -0.1279  0.6511
18333TIP3   OH276489   2.740   4.170   4.003  0.9092 -0.1841 -0.6010
18333TIP3    H176490   2.729   4.189   3.910 -0.2857  0.7762 -0.2979
18333TIP3    H276491   2.677   4.100   4.021  0.8046 -0.0529 -0.4400
18334TIP3   OH276492   5.187   0.861   0.972 -0.1772  0.1959 -0.1506
18334TIP3    H176493   5.118   0.809   1.014  0.2308  0.2685  0.6258
18334TIP3    H276494   5.267   0.810   0.985 -0.1712 -0.2074 -1.6217
18335TIP3   OH276495   6.394   3.253  15.088  0.6727 -0.0851  0.7231
18335TIP3    H176496   6.464   3.245  15.153  1.8951  1.6654 -0.2939
18335TIP3    H276497   6.388   3.347  15.071 -0.6718 -0.3721 -0.5841
18336TIP3   OH276498   0.831   6.823   0.194  0.2870 -0.2619  0.9841
18336TIP3    H176499   0.746   6.808   0.236  0.1776  1.5022  1.4646
18336TIP3    H276500   0.808   6.845   0.103  0.1130  1.2640  1.3681
18337TIP3   OH276501   3.111   1.180  11.525  0.0851 -0.0972 -0.8040
18337TIP3    H176502   3.056   1.169  11.448  0.4715  0.7587 -1.2146
18337TIP3    H276503   3.183   1.236  11.496  0.1220  0.4225  0.2257
18338TIP3   OH276504   2.459   4.941   0.827  0.0859  0.0865 -0.3050
18338TIP3    H176505   2.408   4.881   0.880  1.4621 -1.7344 -0.9315
18338TIP3    H276506   2.468   4.897   0.742 -0.0126  1.8131 -1.2585
18339TIP3   OH276507   3.443   6.593  15.810 -0.0999  0.2602  0.3170
18339TIP3    H176508   3.434   6.501  15.834  2.1552  0.0621  0.5498
18339TIP3    H276509   3.531   6.617  15.838 -0.6211  2.4829  0.2040
18340TIP3   OH276510   4.393   5.654   4.716  0.3277  0.2258  0.0199
18340TIP3    H176511   4.466   5.593   4.703  0.2233  0.1714 -0.3374
18340TIP3    H276512   4.319   5.613   4.670 -0.1755 -0.1558  1.1460
18341TIP3   OH276513   3.198   5.148  12.582 -0.4251 -0.0587  0.1738
18341TIP3    H176514   3.203   5.166  12.676  0.9918 -1.7425  0.4771
18341TIP3    H276515   3.105   5.129  12.567 -0.7070  0.4325  1.1919
18342TIP3   OH276516   2.345   5.969  14.233  0.4251 -0.3752  0.4199
18342TIP3    H176517   2.327   5.917  14.311  1.6538 -0.3887  0.7232
18342TIP3    H276518   2.277   6.036  14.232  0.1578 -0.6243  1.2860
18343TIP3   OH276519   0.582   0.855  17.109 -0.2904 -0.2066  0.2836
18343TIP3    H176520   0.564   0.765  17.137  0.2820 -0.6881 -0.8114
18343TIP3    H276521   0.619   0.898  17.186 -0.4874 -0.9333  0.7943
18344TIP3   OH276522   6.319   6.271  12.709  0.3172  0.5246 -0.3412
18344TIP3    H176523   6.311   6.341  12.775 -2.1593 -0.3180  0.3717
18344TIP3    H276524   6.405   6.234  12.724  0.2152  1.0251  1.7969
18345TIP3   OH276525   2.621   2.193  15.686  0.3641 -0.7914  0.1517
18345TIP3    H176526   2.709   2.206  15.720  0.8380 -0.6948 -1.0628
18345TIP3    H276527   2.619   2.101  15.660 -0.0920 -0.9411  0.6915
18346TIP3   OH276528   0.341   3.212   1.597  0.3889 -0.4451 -0.1255
18346TIP3    H176529   0.415   3.250   1.549 -0.0898  1.3864  0.4850
18346TIP3    H276530   0.270   3.211   1.533  0.0989  0.8171  0.1380
18347TIP3   OH276531   4.132   5.957  15.747  0.1466  0.6422  0.4035
18347TIP3    H176532   4.118   5.944  15.653  2.6850  0.8004 -0.0684
18347TIP3    H276533   4.185   5.881  15.774  0.4352  1.1947  1.4290
18348TIP3   OH276534   5.792   1.663  16.449  0.0633  0.2995 -0.0660
18348TIP3    H176535   5.776   1.704  16.364 -0.8346 -0.0972 -0.1029
18348TIP3    H276536   5.831   1.733  16.502  1.1283  0.3944 -0.9575
18349TIP3   OH276537   0.128   0.323  11.056  0.1493  0.4079 -0.3742
18349TIP3    H176538   0.212   0.356  11.087 -0.0693  1.8762 -1.2652
18349TIP3    H276539   0.151   0.255  10.993  0.6057 -1.0987  1.3263
18350TIP3   OH276540   5.502   1.033   0.913  0.5039  0.0257  0.7362
18350TIP3    H176541   5.509   0.990   0.828 -0.2896  0.7385  0.2992
18350TIP3    H276542   5.547   1.116   0.902 -3.7799  2.4903 -0.6461
18351TIP3   OH276543   1.675   4.238  17.019  0.0890 -0.2630  0.1958
18351TIP3    H176544   1.734   4.163  17.030  0.9699  0.2952 -0.6215
18351TIP3    H276545   1.592   4.199  16.991  0.5331 -0.9357 -0.2062
18352TIP3   OH276546   4.818   2.950   5.987 -0.5649 -0.3089  0.0748
18352TIP3    H176547   4.861   3.026   6.026  2.3970 -1.5192 -0.5519
18352TIP3    H276548   4.863   2.874   6.025 -0.8731 -1.6416 -2.0448
18353TIP3   OH276549   2.735   4.305  10.842  0.2812  0.1325 -0.0520
18353TIP3    H176550   2.739   4.369  10.912 -3.9483  0.6199  0.0385
18353TIP3    H276551   2.719   4.357  10.763  0.5367 -0.6236 -0.6125
18354TIP3   OH276552   3.655   3.700  14.107  0.0539 -0.6453  0.3370
18354TIP3    H176553   3.643   3.615  14.065  1.8826  0.0776 -1.8070
18354TIP3    H276554   3.742   3.694  14.148 -0.0415  0.0218  0.6454
18355TIP3   OH276555   5.006   3.155  14.108  0.3380 -0.5253 -0.5994
18355TIP3    H176556   4.950   3.232  14.113 -0.0179 -0.7903 -0.4624
18355TIP3    H276557   5.001   3.116  14.196  2.2646  0.5020  0.0206
18356TIP3   OH276558   3.579   0.419  14.215  0.1837  0.5007  0.3845
18356TIP3    H176559   3.499   0.375  14.185  1.7106 -1.5653 -0.8694
18356TIP3    H276560   3.619   0.358  14.277  0.4501  1.8578  1.6207
18357TIP3   OH276561   2.957   2.943   5.048  0.3911 -0.3390  0.5624
18357TIP3    H176562   2.902   2.875   5.010 -0.8628  0.3303  1.1292
18357TIP3    H276563   2.963   3.010   4.979 -0.6569  0.2036  0.9802
18358TIP3   OH276564   3.371   1.625   3.536 -0.2782 -0.5711 -0.0424
18358TIP3    H176565   3.308   1.581   3.480 -1.5263 -0.3517  1.1418
18358TIP3    H276566   3.361   1.583   3.621  0.4180  0.1911  0.4322
18359TIP3   OH276567   6.329   2.054  11.865  0.0543  0.4428 -0.0300
18359TIP3    H176568   6.360   2.049  11.774 -0.7497  0.4570 -0.3089
18359TIP3    H276569   6.407   2.079  11.915  0.6335 -0.0774 -0.6393
18360TIP3   OH276570   3.321   2.230  17.091 -0.3369 -0.1642 -0.6755
18360TIP3    H176571   3.370   2.168  17.145  2.2202  1.5923 -0.8466
18360TIP3    H276572   3.357   2.316  17.113 -2.6727  1.1430 -1.6010
18361TIP3   OH276573   3.161   1.229   3.955 -0.0670  0.3298 -0.1502
18361TIP3    H176574   3.228   1.273   4.007  0.1169  0.2431 -0.3129
18361TIP3    H276575   3.085   1.287   3.960  0.7271  1.6297 -1.8999
18362TIP3   OH276576   0.902   3.919   0.585  0.2969 -0.0785 -0.2134
18362TIP3    H176577   0.929   4.011   0.588  2.3916 -0.5890 -1.6429
18362TIP3    H276578   0.921   3.886   0.673 -2.2238  1.2301  0.9187
18363TIP3   OH276579   1.696   4.062   5.046 -0.3345 -0.9267  0.1445
18363TIP3    H176580   1.612   4.104   5.064  0.6368  0.7854  0.9550
18363TIP3    H276581   1.723   4.097   4.961 -0.2067 -1.0921  0.1165
18364TIP3   OH276582   6.371   4.555   4.373 -0.5274  0.6020 -0.2802
18364TIP3    H176583   6.402   4.614   4.442 -1.2241 -0.0092  0.5813
18364TIP3    H276584   6.340   4.478   4.420  3.7926 -2.2418 -1.4268
18365TIP3   OH276585   1.399   3.836  11.624  0.0040 -0.5241  0.4656
18365TIP3    H176586   1.436   3.859  11.539  0.2595  0.1202  0.7448
18365TIP3    H276587   1.368   3.746  11.613 -0.8812 -0.1137 -0.6167
18366TIP3   OH276588   1.362   0.257  14.761  0.0364  0.6384  0.3360
18366TIP3    H176589   1.417   0.252  14.839 -0.4741 -0.5356  0.6488
18366TIP3    H276590   1.420   0.290  14.693  1.6803 -2.1250  0.2270
18367TIP3   OH276591   4.019   0.933   2.199  0.0793  0.1770  0.3073
18367TIP3    H176592   3.925   0.949   2.204  0.0783  0.2468  0.0909
18367TIP3    H276593   4.039   0.879   2.275 -0.5490 -1.8709 -0.8975
18368TIP3   OH276594   5.177   0.698  13.357  0.6535  0.2535  0.1388
18368TIP3    H176595   5.190   0.773  13.416  0.4914  0.4398 -0.0613
18368TIP3    H276596   5.122   0.732  13.287 -1.4998 -0.6569  1.2908
18369TIP3   OH276597   1.103   6.495   0.579 -0.2422  0.6644 -0.0422
18369TIP3    H176598   1.073   6.462   0.663  0.2132  0.0550 -0.1103
18369TIP3    H276599   1.062   6.437   0.514 -0.9884  1.4292 -0.2808
18370TIP3   OH276600   1.904   0.728  16.634 -0.2811  0.0180 -0.2059
18370TIP3    H176601   1.944   0.771  16.558 -1.3182  2.5387  0.5523
18370TIP3    H276602   1.868   0.647  16.600  2.0934 -0.5264 -1.6752
18371TIP3   OH276603   2.795   6.094  17.122  0.4478 -0.1388  0.0918
18371TIP3    H176604   2.786   6.186  17.145 -0.3651 -0.1652 -0.0620
18371TIP3    H276605   2.882   6.086  17.084  1.2582  0.1936  1.8004
18372TIP3   OH276606   6.028   4.718   3.653  0.9835 -0.4001  0.0906
18372TIP3    H176607   6.113   4.749   3.622 -0.0412 -0.1247 -2.8373
18372TIP3    H276608   6.007   4.773   3.728  2.1396  1.4832 -0.9109
18373TIP3   OH276609   5.146   6.806   3.469  0.3017 -0.5006 -0.0054
18373TIP3    H176610   5.082   6.810   3.398 -0.1091 -0.5784  0.3573
18373TIP3    H276611   5.175   6.896   3.481 -0.6711 -0.2576  0.6614
18374TIP3   OH276612   3.881   1.432   5.442  0.0106  0.4417 -0.0181
18374TIP3    H176613   3.786   1.439   5.428 -0.0299 -0.2690 -0.1338
18374TIP3    H276614   3.910   1.523   5.451 -0.8332  0.6381  1.0466
18375TIP3   OH276615   1.862   4.263   3.345 -0.5995 -0.1188 -0.0882
18375TIP3    H176616   1.827   4.183   3.385 -0.2326 -0.0777  0.3206
18375TIP3    H276617   1.893   4.234   3.259 -2.3986  0.0137 -0.8209
18376TIP3   OH276618   6.191   6.788  12.370  0.1630 -0.0492  0.2816
18376TIP3    H176619   6.103   6.756  12.350 -0.2876  1.3431 -0.1253
18376TIP3    H276620   6.177   6.860  12.432  0.8242  1.3096 -1.0593
18377TIP3   OH276621   2.405   4.701  14.155 -0.2251 -0.1077 -0.1075
18377TIP3    H176622   2.466   4.668  14.221 -1.1442 -0.8849  0.3603
18377TIP3    H276623   2.396   4.629  14.093  0.7534  0.6676 -1.1956
18378TIP3   OH276624   6.729   0.685   5.920  0.0780 -0.3130 -0.1202
18378TIP3    H176625   6.812   0.704   5.964  0.2253 -2.2077  0.5148
18378TIP3    H276626   6.755   0.650   5.835 -0.0072 -1.5429  0.3361
18379TIP3   OH276627   6.466   1.893   0.808  0.2757 -0.2518  0.1398
18379TIP3    H176628   6.530   1.944   0.858 -1.4940  2.0113  0.2705
18379TIP3    H276629   6.503   1.805   0.804  1.8056  0.1205  3.0777
18380TIP3   OH276630   6.237   6.189   3.126  0.6084 -0.4616 -0.8724
18380TIP3    H176631   6.212   6.131   3.054 -0.2064  0.8940 -1.7437
18380TIP3    H276632   6.198   6.274   3.102 -0.3609 -0.1407  1.5477
18381TIP3   OH276633   6.764   1.947  15.021  0.1529  0.4379  0.2493
18381TIP3    H176634   6.816   1.991  14.953 -0.8425 -1.8935 -2.2402
18381TIP3    H276635   6.829   1.903  15.076  0.9601  1.8098  0.4459
18382TIP3   OH276636   4.351   4.177   6.553  0.1471 -0.9118 -0.4089
18382TIP3    H176637   4.359   4.219   6.468  0.6912  0.4012  0.2593
18382TIP3    H276638   4.257   4.161   6.564 -0.2620  1.3582 -0.1539
18383TIP3   OH276639   5.326   4.554  11.144  0.0156 -0.0533  0.0646
18383TIP3    H176640   5.420   4.561  11.128 -0.0564  3.8040  0.3793
18383TIP3    H276641   5.288   4.537  11.058  0.8832  0.4419 -0.4362
18384TIP3   OH276642   5.914   5.062  14.391 -0.2702  0.2481 -0.2276
18384TIP3    H176643   5.966   5.135  14.424 -1.5288  1.0944 -0.0618
18384TIP3    H276644   5.854   5.041  14.463  0.0794 -0.9705 -0.2664
18385TIP3   OH276645   1.146   6.135   5.716  0.3217 -0.4144 -0.0522
18385TIP3    H176646   1.115   6.045   5.724  0.8866 -0.7194 -1.0734
18385TIP3    H276647   1.236   6.126   5.682  0.5708  0.5158  0.3374
18386TIP3   OH276648   5.449   5.940  16.316  0.4030 -0.5453 -0.1196
18386TIP3    H176649   5.531   5.986  16.295  1.0158 -0.9928  1.1942
18386TIP3    H276650   5.474   5.847  16.317 -0.2338 -0.7179 -0.1943
18387TIP3   OH276651   3.647   5.108   2.139  0.4730  0.4979 -0.0570
18387TIP3    H176652   3.726   5.143   2.180 -0.5359  2.6153  0.1987
18387TIP3    H276653   3.598   5.185   2.113 -0.4902 -0.7833 -2.2565
18388TIP3   OH276654   5.656   5.556   2.054 -0.6870 -0.2623 -0.2417
18388TIP3    H176655   5.570   5.580   2.086 -0.0977  0.1278  1.1414
18388TIP3    H276656   5.712   5.558   2.132  0.0221 -3.2970 -0.5139
18389TIP3   OH276657   2.242   4.190   4.671  0.1228 -0.4977 -0.4911
18389TIP3    H176658   2.230   4.118   4.733  0.3920  0.4154  0.6516
18389TIP3    H276659   2.212   4.155   4.588 -0.0624 -1.8239  0.1089
18390TIP3   OH276660   5.531   2.852   2.947  0.0634  0.0496 -0.4386
18390TIP3    H176661   5.484   2.782   2.992  1.5618 -0.8011 -0.1097
18390TIP3    H276662   5.576   2.899   3.018 -0.3961  0.9305 -0.7227
18391TIP3   OH276663   3.412   3.925  15.835 -0.4757 -0.0180 -0.2549
18391TIP3    H176664   3.382   3.878  15.757 -0.1919  1.9795 -1.6365
18391TIP3    H276665   3.358   4.004  15.838 -0.2366  0.1307  1.4118
18392TIP3   OH276666   4.929   1.343  11.389  0.2114  0.8563 -0.8970
18392TIP3    H176667   4.984   1.360  11.312  0.5597  0.8733 -0.6468
18392TIP3    H276668   4.884   1.261  11.368  0.7490  0.5464 -0.8836
18393TIP3   OH276669   3.982   1.049  14.083  0.7324  0.1649  0.4047
18393TIP3    H176670   3.914   1.087  14.140  0.6707  1.1268 -0.2842
18393TIP3    H276671   3.998   0.962  14.120 -0.7401 -0.0152  0.7074
18394TIP3   OH276672   1.607   5.701  16.269 -0.4197  1.3069  0.0066
18394TIP3    H176673   1.615   5.609  16.246  0.7725  1.5083 -0.4440
18394TIP3    H276674   1.664   5.747  16.207 -1.1613  2.3806  0.0715
18395TIP3   OH276675   3.744   1.607  15.156  0.2039  0.2242  0.3152
18395TIP3    H176676   3.784   1.645  15.078  0.5246 -0.4717  0.1286
18395TIP3    H276677   3.650   1.620  15.143  0.3019  0.8691  0.2218
18396TIP3   OH276678   2.286   5.168   5.407 -0.0855 -0.7101 -0.2634
18396TIP3    H176679   2.211   5.222   5.383  1.0535  1.0118 -0.1234
18396TIP3    H276680   2.341   5.225   5.462  2.0382 -1.3850 -1.5556
18397TIP3   OH276681   4.987   0.786  15.666  0.2066  0.1455 -0.4437
18397TIP3    H176682   5.014   0.703  15.706  0.9409 -0.7953 -2.7417
18397TIP3    H276683   5.067   0.821  15.628  0.4415  3.1541  2.3442
18398TIP3   OH276684   5.190   4.982  12.579  0.3069  0.5621  0.4079
18398TIP3    H176685   5.217   4.890  12.576 -2.6948 -0.4193 -2.1197
18398TIP3    H276686   5.143   4.990  12.662 -0.8908 -0.7158 -0.1061
18399TIP3   OH276687   3.567   1.336   6.155 -0.0653 -0.0882 -0.6027
18399TIP3    H176688   3.544   1.244   6.166 -0.3183  0.0992  0.5109
18399TIP3    H276689   3.585   1.368   6.243  1.1779  0.6399 -1.0932
18400TIP3   OH276690   0.277   5.668   0.519  0.3771 -0.0459 -0.8971
18400TIP3    H176691   0.366   5.633   0.521  0.2853 -0.2487 -0.1430
18400TIP3    H276692   0.242   5.649   0.606 -0.3369  0.2071 -1.1252
18401TIP3   OH276693   3.821   6.715   2.121  0.5899 -0.4554 -1.0316
18401TIP3    H176694   3.834   6.768   2.200 -0.6952 -0.6699 -0.6608
18401TIP3    H276695   3.808   6.779   2.051 -0.7698 -0.2603 -0.6204
18402TIP3   OH276696   3.300   3.083  13.129  0.1790 -0.3133 -0.3131
18402TIP3    H176697   3.205   3.085  13.113 -0.2600  0.7753  1.9900
18402TIP3    H276698   3.315   2.999  13.173  0.4372 -0.8007 -1.2979
18403TIP3   OH276699   3.476   5.491   1.806 -0.3625  0.0470  0.4319
18403TIP3    H176700   3.425   5.506   1.726 -0.3115 -0.2887  0.3344
18403TIP3    H276701   3.554   5.545   1.795  0.7131 -1.6138 -0.7535
18404TIP3   OH276702   1.729   5.345   4.649 -0.0486 -0.2122 -0.0747
18404TIP3    H176703   1.744   5.438   4.635  0.4367 -0.2888 -0.0733
18404TIP3    H276704   1.771   5.302   4.575  0.0360 -0.4530  0.1118
18405TIP3   OH276705   6.547   0.405   0.771  0.1334  0.2023  0.0464
18405TIP3    H176706   6.598   0.395   0.691  1.9043 -2.1703  1.3412
18405TIP3    H276707   6.477   0.466   0.748  2.0069  1.5419 -2.5747
18406TIP3   OH276708   1.587   5.959   6.170  0.3890 -0.6488 -0.1301
18406TIP3    H176709   1.495   5.954   6.145  0.7381 -2.5592 -1.1811
18406TIP3    H276710   1.586   5.974   6.264 -0.9820 -0.6841 -0.1260
18407TIP3   OH276711   1.278   5.306   6.493  0.5097 -0.1419  0.0235
18407TIP3    H176712   1.346   5.274   6.551 -0.1586  0.3981  1.1558
18407TIP3    H276713   1.290   5.258   6.411  4.4809  2.4190 -1.1541
18408TIP3   OH276714   4.909   6.313   2.437  0.3793 -0.0004  0.1379
18408TIP3    H176715   4.904   6.308   2.341  1.2433  0.7521  0.0362
18408TIP3    H276716   4.986   6.367   2.454  0.9930 -1.1768  1.2851
18409TIP3   OH276717   4.569   3.784   4.120  0.6066  0.1235 -0.3046
18409TIP3    H176718   4.659   3.815   4.114  0.1950  1.0213 -2.5058
18409TIP3    H276719   4.518   3.848   4.072 -0.5981 -2.7171 -3.1353
18410TIP3   OH276720   2.930   0.309   1.105  0.4296 -0.0236  0.5456
18410TIP3    H176721   2.961   0.266   1.026  1.1728 -0.6814  1.1693
18410TIP3    H276722   2.838   0.330   1.087 -0.0255 -2.0518  0.2607
18411TIP3   OH276723   2.456   6.351   3.181 -0.4817  0.5527  0.3149
18411TIP3    H176724   2.477   6.305   3.262 -1.3342  0.8255  0.6985
18411TIP3    H276725   2.376   6.399   3.200 -1.7696 -0.8521 -1.2259
18412TIP3   OH276726   1.098   2.981  13.546  1.0307  0.1455  0.2672
18412TIP3    H176727   1.095   2.885  13.547 -1.7489  0.1602  0.8208
18412TIP3    H276728   1.191   3.002  13.556  1.9049 -2.4750 -1.3825
18413TIP3   OH276729   5.666   4.992   5.684  0.2594  0.3161 -0.3731
18413TIP3    H176730   5.670   5.030   5.772  0.8813 -1.6320  0.4885
18413TIP3    H276731   5.583   4.944   5.681  0.4186  0.0538 -0.7191
18414TIP3   OH276732   0.829   1.972   0.982 -0.4949 -0.0839 -0.3151
18414TIP3    H176733   0.911   2.018   1.000 -0.9650  0.8827 -0.5580
18414TIP3    H276734   0.835   1.948   0.890 -0.0524 -0.9332 -0.0715
18415TIP3   OH276735   0.087   1.572  15.671  0.2414  0.0157 -0.6427
18415TIP3    H176736   0.044   1.607  15.749 -0.1805  0.9350 -1.2575
18415TIP3    H276737   0.146   1.504  15.703 -0.4755 -0.1334  0.3921
18416TIP3   OH276738   6.770   5.020   3.964 -0.1754  0.6081  0.1980
18416TIP3    H176739   6.701   5.066   3.917 -0.2435  2.4367  1.9638
18416TIP3    H276740   6.852   5.056   3.929  0.0021 -1.7568 -2.0923
18417TIP3   OH276741   0.181   0.958   1.510  0.4039  0.0167 -0.1216
18417TIP3    H176742   0.174   1.053   1.507 -1.5855 -0.0931  0.2132
18417TIP3    H276743   0.250   0.937   1.447  2.0585  1.7613  0.9965
18418TIP3   OH276744   1.516   1.987  11.614  0.7340 -0.1907 -0.5118
18418TIP3    H176745   1.453   2.019  11.549  0.8177 -0.9177 -0.9645
18418TIP3    H276746   1.599   2.027  11.589  0.2708  1.7560  0.8019
18419TIP3   OH276747   3.494   3.479   0.311  0.6278 -0.4624 -0.5951
18419TIP3    H176748   3.411   3.498   0.355  0.0494 -0.7986 -1.5168
18419TIP3    H276749   3.540   3.563   0.308 -1.1132  0.5086 -3.0120
18420TIP3   OH276750   4.131   0.516  11.775  0.6270  0.6367 -0.0488
18420TIP3    H176751   4.079   0.564  11.838  1.3106  0.4569  0.6773
18420TIP3    H276752   4.114   0.558  11.691 -0.0720  1.0636  0.3046
18421TIP3   OH276753   2.156   5.068   4.692 -1.0531 -0.0049 -0.0927
18421TIP3    H176754   2.137   4.974   4.693 -0.9500 -0.0243  0.5837
18421TIP3    H276755   2.118   5.100   4.610 -0.2601 -0.8066 -0.7940
18422TIP3   OH276756   0.223   3.543   2.716  0.9087 -0.3409  0.6372
18422TIP3    H176757   0.207   3.487   2.792 -0.3916  0.5250  1.0229
18422TIP3    H276758   0.213   3.632   2.749  0.8499  0.0621 -0.4413
18423TIP3   OH276759   0.372   1.264  13.609  0.5732 -0.1706  0.0118
18423TIP3    H176760   0.302   1.231  13.666  0.6800  1.4757  1.1612
18423TIP3    H276761   0.349   1.232  13.522 -0.4772 -1.3980  0.6989
18424TIP3   OH276762   1.153   5.044   5.164 -0.3955  0.5149 -0.5935
18424TIP3    H176763   1.135   5.065   5.255  0.9425  0.2768 -0.2599
18424TIP3    H276764   1.067   5.026   5.126 -0.8362 -1.1114  1.0496
18425TIP3   OH276765   6.443   3.760   5.065 -0.5112 -0.6377 -0.0132
18425TIP3    H176766   6.488   3.837   5.099 -0.4641 -0.6145 -0.1282
18425TIP3    H276767   6.513   3.703   5.033 -0.5304 -0.8442  0.3117
18426TIP3   OH276768   3.205   5.106  11.522 -0.2414  0.4398 -0.0220
18426TIP3    H176769   3.239   5.081  11.436  2.2434  1.8817  0.4468
18426TIP3    H276770   3.127   5.158  11.503 -0.8586 -0.8669 -1.2847
18427TIP3   OH276771   6.767   0.628  15.974 -0.2660  0.0163 -0.1200
18427TIP3    H176772   6.779   0.537  15.948 -1.2702  0.1648 -1.2214
18427TIP3    H276773   6.806   0.679  15.903 -0.4435  0.4375  0.0763
18428TIP3   OH276774   2.892   3.960   6.478 -0.1450 -0.1862  0.7667
18428TIP3    H176775   2.843   4.022   6.531 -0.7833 -1.8366  2.1702
18428TIP3    H276776   2.828   3.896   6.450  0.3137  0.2422 -1.4834
18429TIP3   OH276777   5.858   0.251  16.309 -0.0218 -0.5297 -0.4689
18429TIP3    H176778   5.829   0.168  16.270 -0.4147 -0.2243 -0.8406
18429TIP3    H276779   5.894   0.301  16.235 -0.3013 -0.1508 -0.3499
18430TIP3   OH276780   6.692   1.391  17.118  0.4614  0.4640 -0.0194
18430TIP3    H176781   6.764   1.427  17.169  0.6977 -1.4465  1.0964
18430TIP3    H276782   6.644   1.336  17.180  0.8455 -2.0816 -1.8516
18431TIP3   OH276783   5.199   3.443  16.801  0.2770 -0.6046  0.9825
18431TIP3    H176784   5.174   3.520  16.751  1.5315 -0.6235  0.2804
18431TIP3    H276785   5.217   3.475  16.889  1.6637  0.0901  0.4796
18432TIP3   OH276786   0.420   2.968   2.085  0.6213  0.2633 -0.1689
18432TIP3    H176787   0.461   3.001   2.165  0.9383 -0.4896 -0.0110
18432TIP3    H276788   0.337   2.930   2.115 -0.1702  1.6644 -0.4702
18433TIP3   OH276789   0.781   6.599  14.923 -0.5261  0.2849  0.0437
18433TIP3    H176790   0.836   6.606  14.844 -2.0714  0.4562 -1.0647
18433TIP3    H276791   0.766   6.689  14.950 -1.2699  0.3093 -0.4125
18434TIP3   OH276792   1.071   0.952  16.902 -0.0773  0.4710  0.0864
18434TIP3    H176793   0.983   0.947  16.865 -0.0526  1.8160 -0.1727
18434TIP3    H276794   1.057   0.943  16.996 -0.4552  0.3894  0.0266
18435TIP3   OH276795   2.034   4.296   3.053  0.0890  0.8617  0.4837
18435TIP3    H176796   2.064   4.298   3.144 -1.5601 -0.7038  1.1284
18435TIP3    H276797   2.080   4.221   3.015 -0.8381  0.1746  0.6798
18436TIP3   OH276798   3.502   5.768  12.761 -0.4548 -0.0577  0.3271
18436TIP3    H176799   3.479   5.805  12.846  0.4364  1.1332  0.0797
18436TIP3    H276800   3.438   5.806  12.701 -1.3039 -1.1731  0.4969
18437TIP3   OH276801   3.235   2.578   3.902 -0.3970  0.0930 -0.1627
18437TIP3    H176802   3.253   2.566   3.809  1.9294  2.5268 -0.1280
18437TIP3    H276803   3.230   2.489   3.937  0.4937 -0.8591 -2.3011
18438TIP3   OH276804   1.699   6.810  13.066 -0.2216 -0.0623 -0.2354
18438TIP3    H176805   1.714   6.797  12.972 -2.7742 -1.9743 -0.4757
18438TIP3    H276806   1.641   6.887  13.070 -0.6606 -0.3898 -0.2813
18439TIP3   OH276807   6.487   5.512  11.747 -0.0220  0.2726 -0.1239
18439TIP3    H176808   6.565   5.520  11.692  0.5682 -2.2727  0.2082
18439TIP3    H276809   6.509   5.562  11.826  1.4508 -0.6367  0.0868
18440TIP3   OH276810   0.849   4.361  14.972 -0.3577  0.0433  0.0921
18440TIP3    H176811   0.765   4.328  14.941 -0.0690 -0.2881 -0.3514
18440TIP3    H276812   0.912   4.332  14.907 -0.3744  3.5890 -1.7599
18441TIP3   OH276813   3.132   6.451   6.177 -0.0339 -0.2191 -0.7844
18441TIP3    H176814   3.078   6.377   6.204  0.0390 -0.0179 -0.0606
18441TIP3    H276815   3.095   6.480   6.094 -2.3816  1.2042  0.6473
18442TIP3   OH276816   2.549   6.092  14.061  0.5892 -0.8373  0.0048
18442TIP3    H176817   2.455   6.077  14.051  1.0429 -3.4159 -1.4167
18442TIP3    H276818   2.568   6.069  14.152 -0.1428 -0.1913  0.3311
18443TIP3   OH276819   5.549   0.169   3.117 -0.0134  0.6145 -0.6176
18443TIP3    H176820   5.618   0.231   3.143  0.3924  0.8384 -2.1441
18443TIP3    H276821   5.537   0.114   3.195  0.6644  1.6586  0.2680
18444TIP3   OH276822   2.286   5.585   5.539  0.1143  0.1999 -0.0472
18444TIP3    H176823   2.345   5.613   5.608 -0.1686 -1.7378  1.0554
18444TIP3    H276824   2.206   5.636   5.554  0.3165  0.3456  0.5720
18445TIP3   OH276825   2.566   5.470  14.632 -0.4618 -0.2810 -0.4582
18445TIP3    H176826   2.646   5.418  14.630 -0.2725 -0.0018 -0.2415
18445TIP3    H276827   2.592   5.552  14.674 -1.1414 -0.6616  0.7218
18446TIP3   OH276828   1.360   2.128   3.671  0.1964 -0.0541 -0.0652
18446TIP3    H176829   1.306   2.065   3.718 -0.8137  0.8358  0.0163
18446TIP3    H276830   1.314   2.212   3.683 -1.2240 -0.0190 -4.2381
18447TIP3   OH276831   3.689   5.333   2.807  0.1218  0.5173 -0.0215
18447TIP3    H176832   3.707   5.358   2.897  0.8725 -0.6026  0.1620
18447TIP3    H276833   3.756   5.268   2.786 -0.7544 -0.1170 -0.9908
18448TIP3   OH276834   4.195   2.469   3.628 -0.2246 -0.1029  0.5189
18448TIP3    H176835   4.270   2.442   3.576  0.8760 -1.8018  2.8043
18448TIP3    H276836   4.126   2.406   3.607 -0.7659  0.9448 -0.9483
18449TIP3   OH276837   5.920   4.045  15.268 -0.6091  0.0352 -0.6613
18449TIP3    H176838   6.001   4.054  15.217 -1.2922  2.2530 -1.4890
18449TIP3    H276839   5.857   4.008  15.206 -1.4965  2.9209 -1.6518
18450TIP3   OH276840   2.744   4.890  11.255 -0.1318  0.5265  0.1830
18450TIP3    H176841   2.743   4.809  11.305 -2.1962 -0.1490 -0.8760
18450TIP3    H276842   2.835   4.899  11.226  0.1170 -1.4633  0.2222
18451TIP3   OH276843   4.513   2.128   1.898 -0.0123  0.1643 -0.1750
18451TIP3    H176844   4.555   2.042   1.893 -0.6212 -0.0907 -1.1393
18451TIP3    H276845   4.451   2.120   1.971 -0.2952 -0.3231 -0.4661
18452TIP3   OH276846   6.109   5.146   3.470 -0.5790  0.1974  0.2623
18452TIP3    H176847   6.105   5.242   3.478 -3.2661  0.2293 -0.2397
18452TIP3    H276848   6.197   5.128   3.440 -0.5437  2.7097 -1.4819
18453TIP3   OH276849   6.099   0.882   1.239 -0.2043 -0.1029 -0.3834
18453TIP3    H176850   6.060   0.808   1.193 -1.2827  1.0109 -1.3390
18453TIP3    H276851   6.187   0.890   1.202  0.2167 -1.3407  0.2819
18454TIP3   OH276852   0.512   1.095   2.263 -0.1004 -1.0140  0.3652
18454TIP3    H176853   0.493   1.167   2.323  0.7595 -0.5593  0.1101
18454TIP3    H276854   0.593   1.121   2.220 -0.5282 -1.4848 -0.7555
18455TIP3   OH276855   1.547   4.235   2.735 -0.0377  0.2368  0.0257
18455TIP3    H176856   1.540   4.242   2.830  0.9509  1.8843 -0.0013
18455TIP3    H276857   1.459   4.207   2.707 -0.5338  0.3992  1.3476
18456TIP3   OH276858   2.076   4.959   1.591 -0.2809 -0.2712 -0.0643
18456TIP3    H176859   1.993   4.957   1.638 -0.0759 -2.7517  0.3087
18456TIP3    H276860   2.142   4.973   1.660 -0.1339 -2.0490  0.2029
18457TIP3   OH276861   2.556   2.307   1.108  0.0181 -0.4337  0.7199
18457TIP3    H176862   2.566   2.392   1.149  0.4686  0.1528 -0.5677
18457TIP3    H276863   2.627   2.254   1.144 -0.1407 -0.2137  1.3667
18458TIP3   OH276864   1.931   6.594   1.922 -0.5252  0.3649  0.6961
18458TIP3    H176865   1.989   6.610   1.847 -0.7486  0.6041  0.5722
18458TIP3    H276866   1.980   6.626   1.998 -0.6274  0.8704  0.5508
18459TIP3   OH276867   1.713   5.713  10.864 -0.0012 -0.4856 -0.6486
18459TIP3    H176868   1.643   5.649  10.870 -0.1720 -0.4124 -1.7589
18459TIP3    H276869   1.790   5.667  10.898  0.4560 -2.1695 -3.6526
18460TIP3   OH276870   1.097   0.083  14.770 -0.2890  0.1686  0.2893
18460TIP3    H176871   1.162   0.118  14.831  0.1905 -1.5762  0.8483
18460TIP3    H276872   1.050   0.017  14.821 -3.3130  2.0879  0.2564
18461TIP3   OH276873   4.181   4.969  16.895 -0.8624  0.2980 -0.1431
18461TIP3    H176874   4.122   5.042  16.878 -0.0924  0.7227 -1.0571
18461TIP3    H276875   4.123   4.899  16.926 -1.8911  0.6121 -1.2498
18462TIP3   OH276876   4.729   6.277   0.493 -0.9636 -0.1966  0.1284
18462TIP3    H176877   4.787   6.353   0.489 -0.0095 -0.9418 -2.1617
18462TIP3    H276878   4.667   6.291   0.421  0.7691 -2.6345 -2.0649
18463TIP3   OH276879   4.992   2.227  16.699 -0.3747  0.2068 -0.4764
18463TIP3    H176880   4.971   2.314  16.732  0.7296  0.3470 -0.0900
18463TIP3    H276881   5.068   2.200  16.750  0.7283 -0.0300 -2.1572
18464TIP3   OH276882   5.694   2.719   2.146  0.1738 -0.2500  0.2196
18464TIP3    H176883   5.753   2.651   2.113 -0.7696 -0.9192 -0.1255
18464TIP3    H276884   5.629   2.731   2.077 -0.3180  0.2127  0.7472
18465TIP3   OH276885   5.990   3.242   3.089  0.1097 -0.1712 -0.3968
18465TIP3    H176886   6.007   3.315   3.029 -1.0775  0.2312 -0.2588
18465TIP3    H276887   6.034   3.268   3.170  1.0489 -0.3538 -0.8357
18466TIP3   OH276888   5.930   1.146   6.232  0.0383 -0.2150 -0.1981
18466TIP3    H176889   5.958   1.132   6.323 -1.9890 -0.9258  0.3581
18466TIP3    H276890   5.852   1.202   6.239  0.3007  0.3702 -1.5719
18467TIP3   OH276891   5.576   4.507   4.670  0.9833  0.3423  0.7915
18467TIP3    H176892   5.612   4.483   4.755  1.5140  0.9673  0.7483
18467TIP3    H276893   5.520   4.583   4.688  0.3727 -0.0889  0.7237
18468TIP3   OH276894   1.617   6.663   3.311  0.3880 -0.5974  0.2741
18468TIP3    H176895   1.563   6.736   3.342  1.5234  0.4602 -0.1164
18468TIP3    H276896   1.591   6.650   3.220  1.2093  0.3642 -0.1223
18469TIP3   OH276897   2.580   4.395  12.104  1.1640 -0.3374  0.4473
18469TIP3    H176898   2.523   4.472  12.099 -0.6268 -1.6569 -1.0597
18469TIP3    H276899   2.617   4.386  12.016  0.5840 -1.7010  0.3108
18470TIP3   OH276900   5.791   3.364   4.102 -0.7556 -0.1297  0.1007
18470TIP3    H176901   5.866   3.322   4.144 -1.2171 -0.5676  0.5047
18470TIP3    H276902   5.715   3.318   4.137 -1.2697  0.9265  0.4088
18471TIP3   OH276903   2.790   5.267  10.979  0.5189 -0.2746  0.0097
18471TIP3    H176904   2.781   5.282  11.073 -0.4014  0.2509 -0.1515
18471TIP3    H276905   2.842   5.341  10.947  1.4648 -0.8367  0.2057
18472TIP3   OH276906   5.427   4.505   1.069  0.3173 -0.2845 -0.1106
18472TIP3    H176907   5.474   4.460   1.140  0.0341  0.0975  0.3266
18472TIP3    H276908   5.448   4.598   1.081 -0.2233 -0.1520 -0.1570
18473TIP3   OH276909   0.587   3.859  11.349 -0.3434  0.0273 -0.0451
18473TIP3    H176910   0.579   3.773  11.309 -2.4198  0.6640 -1.1508
18473TIP3    H276911   0.618   3.916  11.279  4.1318 -0.2337  1.4061
18474TIP3   OH276912   1.551   6.126   0.188 -0.1893 -0.5063  0.3570
18474TIP3    H176913   1.483   6.188   0.214  0.1303  0.1900 -0.4106
18474TIP3    H276914   1.598   6.171   0.118 -1.0320 -2.2555 -1.4573
18475TIP3   OH276915   2.711   5.985   4.109  0.4101  0.1117  0.5409
18475TIP3    H176916   2.665   5.988   4.025  0.7907  1.1778  0.3463
18475TIP3    H276917   2.756   5.901   4.109  1.6479  0.7129 -1.0280
18476TIP3   OH276918   2.412   6.273  13.208 -0.7499 -0.3946  0.0215
18476TIP3    H176919   2.355   6.199  13.226  0.3828 -1.4390 -0.5190
18476TIP3    H276920   2.473   6.241  13.141  0.3098  0.7372  0.3986
18477TIP3   OH276921   1.199   3.498   2.070 -0.6279  0.3782 -0.1630
18477TIP3    H176922   1.110   3.532   2.081 -0.1749  1.3514  0.7202
18477TIP3    H276923   1.246   3.569   2.028  0.5613  1.2955  2.5223
18478TIP3   OH276924   5.392   0.335   6.871 -0.0368 -0.1059 -0.4052
18478TIP3    H176925   5.443   0.383   6.807 -0.7301  1.9954  0.5299
18478TIP3    H276926   5.455   0.311   6.939  0.3173 -0.5871 -0.8940
18479TIP3   OH276927   5.370   0.323  11.749 -0.3569  0.2906 -0.5448
18479TIP3    H176928   5.411   0.239  11.728 -0.8114  0.4424 -2.2078
18479TIP3    H276929   5.278   0.303  11.763 -0.3824  0.4395 -0.4909
18480TIP3   OH276930   0.150   6.319   0.585  0.6107  0.2619  0.5336
18480TIP3    H176931   0.242   6.344   0.574  1.3148 -2.0187  0.7138
18480TIP3    H276932   0.102   6.401   0.571  2.5363  1.2174 -1.2503
18481TIP3   OH276933   3.779   4.969  12.656 -0.4413 -0.0009  0.8005
18481TIP3    H176934   3.821   4.919  12.586 -1.2403 -0.8193  0.8822
18481TIP3    H276935   3.847   5.027  12.689  1.3471 -2.7891  2.4424
18482TIP3   OH276936   0.375   0.287   5.802 -0.2020 -0.0769 -0.1342
18482TIP3    H176937   0.354   0.379   5.786  1.2968  0.0450 -1.7408
18482TIP3    H276938   0.465   0.288   5.836 -0.7336 -0.8738  1.3908
18483TIP3   OH276939   2.779   6.742   2.232 -0.4255 -0.0171 -0.0389
18483TIP3    H176940   2.837   6.728   2.307 -0.2933  1.0239  0.0698
18483TIP3    H276941   2.792   6.834   2.209 -1.0735 -0.1152 -0.8300
18484TIP3   OH276942   6.183   2.090   1.480 -0.1281 -0.5061 -0.5960
18484TIP3    H176943   6.264   2.134   1.506 -1.3304  1.7956 -0.5875
18484TIP3    H276944   6.146   2.057   1.562 -0.7138  1.1238 -0.1892
18485TIP3   OH276945   4.498   2.533   3.776 -0.0991  0.4426 -0.3015
18485TIP3    H176946   4.547   2.600   3.729  1.6674  0.2020  1.0742
18485TIP3    H276947   4.466   2.577   3.854  3.4175 -0.7501  2.0697
18486TIP3   OH276948   2.613   4.177   0.414  0.3103  0.0371 -0.0862
18486TIP3    H176949   2.562   4.175   0.333  0.1597  0.8524 -0.0134
18486TIP3    H276950   2.697   4.136   0.390  1.0839  2.1268 -1.2329
18487TIP3   OH276951   0.966   1.649  15.890  0.0301  0.5076  0.0354
18487TIP3    H176952   0.981   1.707  15.964 -0.3754  1.3460 -0.5252
18487TIP3    H276953   1.046   1.597  15.884 -0.5180 -0.6344  1.9721
18488TIP3   OH276954   5.589   0.452   6.433 -0.0183 -0.1468  0.1607
18488TIP3    H176955   5.595   0.396   6.511 -0.3420  0.7319  0.8328
18488TIP3    H276956   5.618   0.396   6.361 -3.8505 -2.4499  0.1415
18489TIP3   OH276957   3.689   6.241   3.683  0.5745  0.1755  0.3066
18489TIP3    H176958   3.660   6.251   3.593 -1.6002 -0.0241  0.9301
18489TIP3    H276959   3.714   6.329   3.711  0.0954  0.4524 -0.1222
18490TIP3   OH276960   0.412   2.032  15.403  0.3192 -0.2692  0.5725
18490TIP3    H176961   0.428   1.989  15.319  0.1494 -0.7806  0.7942
18490TIP3    H276962   0.497   2.031  15.447  0.6980  1.1471 -0.1050
18491TIP3   OH276963   5.126   5.543   5.873 -0.3520  0.5878 -0.3540
18491TIP3    H176964   5.159   5.535   5.963 -2.6426 -1.3468  0.4234
18491TIP3    H276965   5.130   5.636   5.854  0.8230  0.9706  1.5015
18492TIP3   OH276966   2.165   3.992   4.064 -0.4117 -0.6502 -0.3107
18492TIP3    H176967   2.224   3.928   4.024 -0.7579 -1.0909 -0.1300
18492TIP3    H276968   2.124   4.036   3.990  0.7975  0.2879 -0.4466
18493TIP3   OH276969   0.482   0.656  15.051 -0.4309  0.0037  0.2809
18493TIP3    H176970   0.540   0.625  14.982 -0.7309 -0.9622  0.4569
18493TIP3    H276971   0.523   0.627  15.132 -0.5413  0.3618  0.4667
18494TIP3   OH276972   2.611   5.829  10.265 -0.2253  0.0678  0.4516
18494TIP3    H176973   2.625   5.851  10.173 -0.8617 -0.6005  0.1800
18494TIP3    H276974   2.586   5.911  10.306 -1.4359  0.0936 -0.2939
18495TIP3   OH276975   0.654   0.354   4.499  0.3701 -0.1624 -0.0218
18495TIP3    H176976   0.600   0.417   4.546  0.0068 -0.4009 -0.1177
18495TIP3    H276977   0.609   0.341   4.416  0.4317 -0.5683  0.0082
18496TIP3   OH276978   3.738   6.066   2.845 -0.1360 -0.1953  0.1878
18496TIP3    H176979   3.644   6.079   2.836  0.1546  1.8037 -0.2601
18496TIP3    H276980   3.751   5.972   2.827 -1.8792 -0.2602 -0.9264
18497TIP3   OH276981   1.457   3.658   4.611 -0.0092 -0.1685 -0.1300
18497TIP3    H176982   1.443   3.712   4.689  0.0045  0.8590 -0.8173
18497TIP3    H276983   1.548   3.674   4.587 -0.6641  1.4858 -1.7577
18498TIP3   OH276984   5.659   5.888   2.194 -0.3709  0.0632  0.7756
18498TIP3    H176985   5.687   5.819   2.254  0.6328  1.8573  2.4845
18498TIP3    H276986   5.716   5.878   2.118  0.9142  0.0243  1.7149
18499TIP3   OH276987   3.822   0.071  15.096  0.9213  0.4256  0.4084
18499TIP3    H176988   3.794   0.109  15.179  1.9719  1.5176  0.2844
18499TIP3    H276989   3.897   0.016  15.118 -0.1578 -1.0807  0.4805
18500TIP3   OH276990   1.126   2.978   3.059  0.5567  0.3143 -0.5105
18500TIP3    H176991   1.136   2.929   3.141  3.0195 -0.2173 -1.0576
18500TIP3    H276992   1.206   3.030   3.052 -0.1413  1.2398 -2.0142
18501TIP3   OH276993   2.257   3.629  13.520 -0.1196 -0.3629 -0.0652
18501TIP3    H176994   2.205   3.649  13.598  0.7902  2.3890 -0.0581
18501TIP3    H276995   2.227   3.543  13.493 -1.8064 -0.5924  2.2316
18502TIP3   OH276996   3.733   0.550  16.682  0.3531 -0.2067 -0.2326
18502TIP3    H176997   3.700   0.637  16.703  0.0949 -0.3475 -0.0439
18502TIP3    H276998   3.753   0.554  16.588  0.5747  0.1260 -0.1729
18503TIP3   OH276999   6.299   0.039   5.953 -0.5364 -0.1737 -0.2286
18503TIP3    H177000   6.221   0.005   5.998  0.1171 -0.2156  0.8997
18503TIP3    H277001   6.363   0.052   6.023  0.1884  0.6737 -1.0327
18504TIP3   OH277002   4.458   6.545   2.053  0.1904  0.4601 -0.5368
18504TIP3    H177003   4.473   6.484   1.981  1.7567 -0.5236  0.5475
18504TIP3    H277004   4.472   6.492   2.132  0.9518  2.0577  0.4444
18505TIP3   OH277005   0.347   3.003  17.084 -0.2563 -0.1282 -0.3926
18505TIP3    H177006   0.308   2.990  16.998 -0.8853  0.2587 -0.1739
18505TIP3    H277007   0.403   3.080  17.073 -0.7986  0.2876 -0.3180
18506TIP3   OH277008   0.727   1.346   5.499 -0.0342  0.4713 -0.2829
18506TIP3    H177009   0.661   1.307   5.556 -0.1472  0.0060 -0.7216
18506TIP3    H277010   0.750   1.429   5.541 -0.8487  0.6083 -0.0991
18507TIP3   OH277011   3.585   4.894  13.234  0.2888 -0.0033  0.0996
18507TIP3    H177012   3.671   4.937  13.240  1.6417 -2.4182 -0.5609
18507TIP3    H277013   3.574   4.875  13.141 -0.0962 -1.2988  0.3840
18508TIP3   OH277014   1.116   5.656  11.551  0.3914  1.0899  0.2875
18508TIP3    H177015   1.173   5.580  11.563  1.1731  2.0080  3.3571
18508TIP3    H277016   1.036   5.620  11.513  0.8160 -1.2754  1.4214
18509TIP3   OH277017   4.644   0.128   3.868 -0.1164 -0.5115 -0.5068
18509TIP3    H177018   4.593   0.074   3.808 -0.4325 -2.4021  1.3692
18509TIP3    H277019   4.601   0.118   3.952  1.5024  0.4229  0.4950
18510TIP3   OH277020   2.205   1.303   3.267  0.3735  0.0913  0.7198
18510TIP3    H177021   2.182   1.351   3.187 -0.8829  0.0618  1.0353
18510TIP3    H277022   2.214   1.212   3.238  0.1932  0.1253  0.5523
18511TIP3   OH277023   3.552   3.397  14.825 -0.6770  0.4837 -0.2098
18511TIP3    H177024   3.631   3.449  14.816  0.8049 -1.7783 -1.4059
18511TIP3    H277025   3.581   3.317  14.870 -2.0460 -0.7675 -1.4193
18512TIP3   OH277026   2.406   0.098  11.124  0.2280  0.3049  0.0939
18512TIP3    H177027   2.328   0.052  11.096  0.8258 -1.8896  1.8133
18512TIP3    H277028   2.439   0.140  11.044 -2.8732  1.7214 -0.5851
18513TIP3   OH277029   6.181   4.892   0.499 -0.3751 -0.5304  0.3161
18513TIP3    H177030   6.192   4.843   0.417 -0.2927 -0.4010  0.2490
18513TIP3    H277031   6.264   4.937   0.511 -0.5803 -0.1117  0.1805
18514TIP3   OH277032   5.620   2.752  16.452 -0.0494 -0.1217  0.7211
18514TIP3    H177033   5.716   2.757  16.452 -0.1012  1.9614  0.6491
18514TIP3    H277034   5.592   2.835  16.490 -1.8437 -1.1987  1.9147
18515TIP3   OH277035   0.954   2.418   3.346  0.3084 -0.4551 -0.8954
18515TIP3    H177036   0.984   2.469   3.271  0.8321 -0.6588 -0.8350
18515TIP3    H277037   0.890   2.473   3.389  1.4494  0.5028 -0.3703
18516TIP3   OH277038   6.422   5.291   3.658  0.2774  0.5934 -0.6166
18516TIP3    H177039   6.486   5.225   3.685  0.7687  1.6462  0.9295
18516TIP3    H277040   6.475   5.368   3.636 -0.3764  1.0261 -0.6932
18517TIP3   OH277041   5.125   5.565  10.766  0.1138 -0.1278  0.4359
18517TIP3    H177042   5.207   5.595  10.806 -0.4446  1.6517  0.3151
18517TIP3    H277043   5.150   5.486  10.717  1.9416  0.8610 -0.3106
18518TIP3   OH277044   1.598   3.458  11.176 -0.4239 -0.6824 -0.0514
18518TIP3    H177045   1.603   3.501  11.261 -0.6654 -2.5687  0.9871
18518TIP3    H277046   1.609   3.528  11.112 -0.3355  0.8032  1.5269
18519TIP3   OH277047   6.443   0.749  17.010 -0.2698 -0.5516  0.2226
18519TIP3    H177048   6.431   0.795  16.927  1.3492 -0.3806  0.0495
18519TIP3    H277049   6.379   0.788  17.069  0.2086  1.0519 -0.2761
18520TIP3   OH277050   0.318   4.397   3.225  0.2079 -0.0664  0.4812
18520TIP3    H177051   0.226   4.411   3.249  0.2465  2.0281 -0.3610
18520TIP3    H277052   0.364   4.472   3.263  1.8294 -1.6984  1.9426
18521TIP3   OH277053   6.295   3.130  16.713 -0.3377 -0.0369 -0.1698
18521TIP3    H177054   6.277   3.159  16.803 -2.6945 -1.2389 -0.1756
18521TIP3    H277055   6.350   3.052  16.724 -0.9477 -0.4161  0.2742
18522TIP3   OH277056   2.206   4.320  11.179  0.2355 -0.1612  0.0129
18522TIP3    H177057   2.248   4.342  11.262 -0.5000 -1.7111  0.8269
18522TIP3    H277058   2.144   4.391  11.164  0.7668  0.4185  0.4861
18523TIP3   OH277059   4.369   1.348   1.720 -0.4556  0.0765 -0.2169
18523TIP3    H177060   4.423   1.298   1.781 -0.9963  0.0997  0.2847
18523TIP3    H277061   4.431   1.406   1.675  0.1319 -0.8284 -0.5975
18524TIP3   OH277062   6.773   0.529   6.656 -0.9609  0.3745 -0.3167
18524TIP3    H177063   6.856   0.508   6.614 -0.5763 -0.8239  0.9519
18524TIP3    H277064   6.756   0.621   6.633  0.2320  0.3544 -1.3536
18525TIP3   OH277065   2.099   3.966   0.397 -0.2799 -0.5388 -0.0392
18525TIP3    H177066   2.177   3.914   0.416 -0.3816 -0.0475  1.9284
18525TIP3    H277067   2.132   4.044   0.352  0.6585  0.4807  2.2349
18526TIP3   OH277068   6.557   4.605   2.536 -0.1253 -0.0288 -0.1867
18526TIP3    H177069   6.621   4.541   2.505 -1.0935 -0.9548 -0.3416
18526TIP3    H277070   6.565   4.604   2.631  2.7755  2.7312 -0.2402
18527TIP3   OH277071   4.775   3.835  11.778  0.4962 -0.4350  0.0462
18527TIP3    H177072   4.781   3.781  11.700 -1.3862  0.9752 -1.1581
18527TIP3    H277073   4.719   3.786  11.838  1.1727 -1.0932  0.1460
18528TIP3   OH277074   0.401   5.801  13.536 -0.2034 -0.6261  0.1422
18528TIP3    H177075   0.384   5.813  13.442  0.6298  2.6886  0.2649
18528TIP3    H277076   0.318   5.823  13.578  0.3053  1.4584  0.2080
18529TIP3   OH277077   4.383   4.535  10.937  0.2491  0.0400 -0.6747
18529TIP3    H177078   4.356   4.482  10.861  0.3231 -0.4371 -0.3710
18529TIP3    H277079   4.303   4.575  10.968 -0.0045 -0.7748 -0.2377
18530TIP3   OH277080   5.362   5.826  15.503  0.0696 -0.4185 -0.5692
18530TIP3    H177081   5.388   5.799  15.415 -0.6357 -1.2214 -0.5455
18530TIP3    H277082   5.421   5.778  15.561  0.4159 -0.0266 -0.5924
18531TIP3   OH277083   4.844   4.699  15.256 -0.8139 -0.2614  0.1322
18531TIP3    H177084   4.906   4.658  15.196 -0.4910 -2.5109  1.8692
18531TIP3    H277085   4.890   4.777  15.288  0.0188 -0.4181 -0.6513
18532TIP3   OH277086   0.233   3.214   3.210  0.1776 -0.2335 -0.8398
18532TIP3    H177087   0.180   3.166   3.273  0.0176 -0.2766 -1.0087
18532TIP3    H277088   0.176   3.227   3.134  0.1147  0.4767 -0.6841
18533TIP3   OH277089   2.820   3.627  11.475  0.0875 -0.4871  0.0754
18533TIP3    H177090   2.897   3.640  11.419  0.6918  0.6853  1.1463
18533TIP3    H277091   2.746   3.636  11.415  0.7235  0.5684 -0.5816
18534TIP3   OH277092   3.590   5.195  13.537 -0.2005  0.5322 -0.1883
18534TIP3    H177093   3.676   5.200  13.579 -0.4142 -0.9641  0.5165
18534TIP3    H277094   3.605   5.141  13.459 -0.6710 -0.6094  0.4931
18535TIP3   OH277095   2.775   0.082   3.999 -0.3958  0.0793 -0.1474
18535TIP3    H177096   2.768   0.094   4.094 -1.7382  1.1500 -0.3606
18535TIP3    H277097   2.685   0.071   3.969 -0.0648  0.6211 -1.4066
18536TIP3   OH277098   0.179   4.637  16.675 -0.0737  0.1475  0.0419
18536TIP3    H177099   0.239   4.600  16.740  0.2855  0.7023  0.0322
18536TIP3    H277100   0.196   4.586  16.596 -1.1754 -1.1619  0.6107
18537TIP3   OH277101   3.655   4.132  17.010 -0.0913  0.0987  0.1684
18537TIP3    H177102   3.698   4.169  16.933  0.4853 -1.0579 -0.0877
18537TIP3    H277103   3.583   4.080  16.974 -2.4432  2.7437  0.6170
18538TIP3   OH277104   1.791   4.095  15.186 -0.2293 -0.6273  0.0402
18538TIP3    H177105   1.723   4.125  15.126 -0.4278 -0.4279  0.3560
18538TIP3    H277106   1.787   4.157  15.259 -0.8416 -1.5712  0.8412
18539TIP3   OH277107   5.138   1.060   1.310 -0.2652  0.0768 -0.3370
18539TIP3    H177108   5.114   1.044   1.218  0.2165  1.4819 -0.7367
18539TIP3    H277109   5.220   1.110   1.305 -0.9976  1.4488  0.8177
18540TIP3   OH277110   5.315   1.732  14.754  0.1381 -0.7497 -0.1345
18540TIP3    H177111   5.355   1.812  14.719 -1.0090  0.0573  0.3408
18540TIP3    H277112   5.354   1.722  14.841 -2.7907  1.8168  1.7041
18541TIP3   OH277113   5.552   0.947  16.932  0.2514 -0.3034  0.0258
18541TIP3    H177114   5.628   1.003  16.917 -0.6269  0.7262 -0.7438
18541TIP3    H277115   5.553   0.928  17.026 -0.5559  2.7159  0.7439
18542TIP3   OH277116   6.741   6.433  15.203  1.0882 -0.6403 -0.2748
18542TIP3    H177117   6.766   6.523  15.185  0.0672 -0.1977  0.4732
18542TIP3    H277118   6.704   6.401  15.120  0.4408 -0.0135 -0.2329
18543TIP3   OH277119   4.771   1.485  15.688 -0.0878 -0.3902  0.4741
18543TIP3    H177120   4.806   1.539  15.758  0.1047  3.4674 -2.2556
18543TIP3    H277121   4.676   1.502  15.690  0.0538  0.7469 -0.8152
18544TIP3   OH277122   0.309   3.298  15.455 -0.8888 -0.1542 -0.6511
18544TIP3    H177123   0.354   3.244  15.389 -1.1134 -0.8645 -0.2325
18544TIP3    H277124   0.371   3.368  15.475 -0.0921 -0.9465 -0.3137
18545TIP3   OH277125   5.858   3.493  11.507  0.1453  0.6457 -0.4308
18545TIP3    H177126   5.799   3.481  11.582  0.8641  0.1535  0.0635
18545TIP3    H277127   5.822   3.435  11.439  0.1536  0.2103 -0.0707
18546TIP3   OH277128   4.380   0.336  14.134  0.2159  0.6502  0.2291
18546TIP3    H177129   4.353   0.375  14.218  0.4843 -0.3258  0.7838
18546TIP3    H277130   4.316   0.266  14.120  0.7567  0.1803  0.1124
18547TIP3   OH277131   5.541   5.242  14.120  0.0436 -0.2708 -0.0106
18547TIP3    H177132   5.620   5.193  14.095 -0.1308 -0.5270 -0.0659
18547TIP3    H277133   5.539   5.316  14.059  0.9241  0.4540  0.8012
18548TIP3   OH277134   2.567   2.070  11.850 -0.4217  0.0436 -0.1260
18548TIP3    H177135   2.565   2.006  11.779  0.9250  0.5647 -0.6571
18548TIP3    H277136   2.558   2.017  11.930  0.5098 -0.8129 -0.5695
18549TIP3   OH277137   1.924   0.482   1.037  0.3918 -0.6619 -0.1055
18549TIP3    H177138   1.982   0.426   1.089  0.6040  0.8544  1.3881
18549TIP3    H277139   1.862   0.517   1.101  0.4970  1.0813 -0.9176
18550TIP3   OH277140   2.025   5.132  10.889  0.3246  0.2805 -0.1768
18550TIP3    H177141   2.068   5.072  10.951  1.8004  0.8328 -0.6302
18550TIP3    H277142   2.070   5.117  10.806 -1.0110  0.2221 -0.9198
18551TIP3   OH277143   4.285   4.932  13.166  0.4033  0.1421  0.3961
18551TIP3    H177144   4.249   4.872  13.232 -0.9799 -0.3157 -0.7110
18551TIP3    H277145   4.349   4.879  13.118 -0.6274 -0.4125 -0.4105
18552TIP3   OH277146   6.617   1.101   3.933 -0.0480 -0.1323 -0.3383
18552TIP3    H177147   6.697   1.126   3.887 -1.2809  0.1087 -2.4810
18552TIP3    H277148   6.617   1.005   3.932 -0.7908 -0.1458 -2.2839
18553TIP3   OH277149   1.018   1.031  11.709  0.1936 -0.2407  0.0270
18553TIP3    H177150   1.020   1.126  11.698  0.3373 -0.3994 -1.6092
18553TIP3    H277151   1.109   1.004  11.692  0.1206 -0.6900  0.3446
18554TIP3   OH277152   2.210   5.184  16.267  0.3935  0.1647  0.2166
18554TIP3    H177153   2.261   5.265  16.261  0.2812  0.2640  0.5514
18554TIP3    H277154   2.210   5.149  16.179  0.2441  0.6513  0.0199
18555TIP3   OH277155   1.309   3.754   3.433  0.2155 -0.7016 -0.1135
18555TIP3    H177156   1.365   3.714   3.367 -0.0197 -1.0658 -0.1016
18555TIP3    H277157   1.222   3.719   3.414 -0.0427 -0.0051 -0.2420
18556TIP3   OH277158   3.313   4.174   4.064  0.1964 -0.2125  0.1518
18556TIP3    H177159   3.316   4.231   4.141  1.7707  0.8948 -0.6759
18556TIP3    H277160   3.260   4.222   4.001 -0.9199 -1.0270  0.4323
18557TIP3   OH277161   3.062   5.702  15.195 -0.0825  0.1964 -0.1154
18557TIP3    H177162   3.106   5.744  15.268  1.7897 -0.8261 -0.5884
18557TIP3    H277163   3.112   5.729  15.118  0.2006 -1.5627 -0.5976
18558TIP3   OH277164   5.867   3.295  15.852 -0.2822 -0.3999 -0.8220
18558TIP3    H177165   5.959   3.272  15.841  0.3022  1.3428  0.0453
18558TIP3    H277166   5.865   3.391  15.847 -1.6397 -0.2166  1.6209
18559TIP3   OH277167   5.231   2.840   0.103 -0.2268 -0.0872  0.0484
18559TIP3    H177168   5.258   2.754   0.135  0.7651  0.3231  0.3637
18559TIP3    H277169   5.207   2.825   0.011 -1.2700 -0.9241  0.4463
18560TIP3   OH277170   5.296   3.480  14.408 -0.5422 -0.0873  0.2696
18560TIP3    H177171   5.383   3.439  14.411  0.2375  1.5730  1.8804
18560TIP3    H277172   5.240   3.420  14.458  0.0461 -0.3684  0.6005
18561TIP3   OH277173   3.934   1.592   4.648 -0.2082  0.0948  0.1308
18561TIP3    H177174   3.914   1.521   4.588 -0.6464 -0.5992  1.0706
18561TIP3    H277175   4.028   1.586   4.663 -0.3777 -0.8449  0.8796
18562TIP3   OH277176   5.453   0.606  11.149  0.0249 -0.5110  0.1098
18562TIP3    H177177   5.483   0.697  11.143  1.1936 -0.9531 -1.3621
18562TIP3    H277178   5.378   0.601  11.089 -1.0085 -0.1815  1.3395
18563TIP3   OH277179   4.538   2.554   3.465 -0.2265  0.1574 -0.1067
18563TIP3    H177180   4.574   2.635   3.502  2.3848  0.0115 -2.0453
18563TIP3    H277181   4.463   2.583   3.413  1.3743  1.6225 -1.7664
18564TIP3   OH277182   6.636   2.643  11.677 -0.1160  0.2148  0.2319
18564TIP3    H177183   6.635   2.659  11.582  0.9221  0.8344  0.3035
18564TIP3    H277184   6.590   2.718  11.714 -1.5472 -0.5989  0.1760
18565TIP3   OH277185   5.306   5.167   4.630 -0.3185  0.6806 -0.3259
18565TIP3    H177186   5.359   5.092   4.601 -1.0053 -0.1270  0.4171
18565TIP3    H277187   5.216   5.134   4.626 -0.5261  0.9903  1.3708
18566TIP3   OH277188   0.803   4.706  17.047 -0.0918 -0.6193 -0.2075
18566TIP3    H177189   0.842   4.793  17.062  0.1320 -0.6009 -0.8646
18566TIP3    H277190   0.765   4.682  17.132 -0.3601  0.2242 -0.0772
18567TIP3   OH277191   0.733   3.226  13.760 -0.0924 -0.4467 -0.0130
18567TIP3    H177192   0.723   3.175  13.680 -0.1091 -0.5772  0.0717
18567TIP3    H277193   0.643   3.252  13.782 -0.0229  0.1163 -0.3795
18568TIP3   OH277194   5.225   3.419  11.821  0.2074 -0.1865  0.1201
18568TIP3    H177195   5.182   3.333  11.814  1.1601 -0.6721  0.0153
18568TIP3    H277196   5.238   3.446  11.730  0.9527 -0.4735  0.1391
18569TIP3   OH277197   2.299   4.481   5.153 -0.3417  0.3779 -0.1536
18569TIP3    H177198   2.230   4.473   5.220 -0.7530 -3.3568 -0.8233
18569TIP3    H277199   2.379   4.458   5.200 -0.1556  0.7660 -0.2806
18570TIP3   OH277200   3.428   4.596   0.433  0.6622  0.1494  0.1666
18570TIP3    H177201   3.355   4.658   0.435  0.1049 -0.4739 -0.3171
18570TIP3    H277202   3.487   4.632   0.366 -0.0060 -0.2044 -0.6323
18571TIP3   OH277203   4.537   2.764  11.776 -0.3461 -0.2612 -0.2396
18571TIP3    H177204   4.629   2.792  11.778  0.4630 -2.4891 -1.9413
18571TIP3    H277205   4.508   2.768  11.867  1.3824  0.6398  0.3078
18572TIP3   OH277206   3.996   3.930  14.529 -0.3755  0.1116 -0.6149
18572TIP3    H177207   3.928   3.940  14.462  1.1712 -0.0246 -2.2937
18572TIP3    H277208   4.074   3.969  14.490  0.3770  0.8627  1.5201
18573TIP3   OH277209   2.455   2.345   5.778 -0.4521 -0.2860  0.2316
18573TIP3    H177210   2.540   2.385   5.794 -0.5559  0.3433 -0.7162
18573TIP3    H277211   2.404   2.412   5.733 -1.2132 -0.8912  0.1565
18574TIP3   OH277212   3.469   4.311   1.123 -0.6502 -0.2201 -0.2317
18574TIP3    H177213   3.449   4.401   1.097 -0.7142 -0.6934 -1.8916
18574TIP3    H277214   3.563   4.311   1.138 -0.6988  0.1897  0.1133
18575TIP3   OH277215   5.387   0.816   6.538  0.7796  0.2837 -0.9228
18575TIP3    H177216   5.394   0.755   6.465  0.3839 -0.8275 -0.0599
18575TIP3    H277217   5.347   0.895   6.500  0.2470 -0.4061 -1.8180
18576TIP3   OH277218   2.906   6.654  14.399 -0.3903  0.3351 -0.3885
18576TIP3    H177219   2.833   6.629  14.454  0.9911 -0.9253  0.9699
18576TIP3    H277220   2.930   6.574  14.352  1.7421 -0.0651  1.2189
18577TIP3   OH277221   0.331   5.478  14.583 -0.3826 -0.0374  0.4688
18577TIP3    H177222   0.422   5.507  14.594 -0.9648  1.5830  1.2751
18577TIP3    H277223   0.296   5.535  14.515 -1.0099 -0.1507  0.6878
18578TIP3   OH277224   6.327   4.011   0.223 -0.3873 -0.2223  0.0760
18578TIP3    H177225   6.297   3.927   0.257 -0.5182  0.0518  0.6388
18578TIP3    H277226   6.250   4.049   0.182 -0.5412 -0.0081  0.5562
18579TIP3   OH277227   3.362   6.778   2.506  0.1651 -0.0633 -0.9511
18579TIP3    H177228   3.447   6.765   2.548  0.4727  0.4482 -1.4028
18579TIP3    H277229   3.358   6.872   2.488  0.2355 -0.3230 -2.4572
18580TIP3   OH277230   3.318   6.344   0.025  0.1872 -0.0737 -0.3010
18580TIP3    H177231   3.272   6.347  -0.059  0.4872 -2.4855 -0.6251
18580TIP3    H277232   3.399   6.392   0.010 -0.3369  0.6142 -0.9894
18581TIP3   OH277233   6.330   6.279  16.954  0.2095  0.8623 -0.5231
18581TIP3    H177234   6.258   6.338  16.933 -0.6146 -0.1840 -0.7307
18581TIP3    H277235   6.335   6.280  17.049 -1.1685 -0.2719 -0.3996
18582TIP3   OH277236   2.889   1.939  13.572 -0.7114  0.4156 -0.0118
18582TIP3    H177237   2.966   1.905  13.619 -0.2589  3.8176  2.0417
18582TIP3    H277238   2.926   1.993  13.502 -1.1496  2.1562  1.0488
18583TIP3   OH277239   1.549   4.627  16.297  0.0493  0.1456 -0.0252
18583TIP3    H177240   1.630   4.576  16.291  0.1424  0.1845  0.8156
18583TIP3    H277241   1.540   4.646  16.390 -0.9026  0.1903 -0.1215
18584TIP3   OH277242   4.372   3.951   5.970 -0.4049 -0.7296  1.1972
18584TIP3    H177243   4.361   3.933   5.876 -3.1207 -1.2733  1.5280
18584TIP3    H277244   4.446   3.896   5.996  0.9766  0.0682 -0.7386
18585TIP3   OH277245   5.203   2.959   1.253  0.4719 -0.1732  0.3568
18585TIP3    H177246   5.208   2.869   1.220  1.3579  0.7180 -2.2674
18585TIP3    H277247   5.293   2.979   1.281 -0.3982 -1.1378  4.3379
18586TIP3   OH277248   2.319   1.056   2.654  0.1292 -0.5306  0.0219
18586TIP3    H177249   2.291   1.101   2.575 -1.3854  2.6316  2.1269
18586TIP3    H277250   2.240   1.015   2.688 -0.1482  1.1930  1.6337
18587TIP3   OH277251   4.649   2.926   1.273 -0.0228 -0.2449 -0.1760
18587TIP3    H177252   4.581   2.936   1.341 -0.4567 -2.0078 -0.2986
18587TIP3    H277253   4.623   2.847   1.226  1.7992 -0.6028 -0.6277
18588TIP3   OH277254   6.049   1.708  15.436  0.0362  0.2063 -0.8366
18588TIP3    H177255   5.991   1.771  15.478 -0.0784  0.0474 -0.7530
18588TIP3    H277256   6.110   1.761  15.385  0.5209  0.4402 -0.0372
18589TIP3   OH277257   5.264   3.369   1.510  0.0110  0.4318 -0.0386
18589TIP3    H177258   5.206   3.443   1.528 -0.5234 -0.2480  1.0962
18589TIP3    H277259   5.256   3.313   1.586  1.8396  0.0915 -0.0559
18590TIP3   OH277260   5.126   2.673  13.204 -0.1967 -0.0995 -0.2539
18590TIP3    H177261   5.101   2.583  13.223 -0.8581 -0.2411 -1.7048
18590TIP3    H277262   5.208   2.685  13.253 -1.4643 -0.5858  2.1353
18591TIP3   OH277263   1.694   1.982   4.674  0.0441 -0.2352 -0.2394
18591TIP3    H177264   1.728   2.029   4.751  0.0608  2.4890 -1.7860
18591TIP3    H277265   1.753   1.907   4.664  0.6996 -0.0508  1.7279
18592TIP3   OH277266   1.896   3.118   6.397 -0.0190  0.1083  0.3248
18592TIP3    H177267   1.854   3.154   6.476 -0.8564  0.4219 -0.2448
18592TIP3    H277268   1.839   3.046   6.370  0.3061 -0.0488  0.0478
18593TIP3   OH277269   1.575   0.872   2.952 -0.2540 -0.5138 -0.2427
18593TIP3    H177270   1.504   0.937   2.946  1.2590  1.1637 -0.8724
18593TIP3    H277271   1.580   0.834   2.865 -0.4287 -0.6887 -0.1767
18594TIP3   OH277272   2.168   6.591   0.245  0.1499  0.2173  0.2704
18594TIP3    H177273   2.076   6.565   0.246  0.3849 -0.7818 -1.0092
18594TIP3    H277274   2.203   6.559   0.328 -0.5509  0.2053  0.5663
18595TIP3   OH277275   0.280   6.369  11.654 -0.0357 -0.4974  0.1955
18595TIP3    H177276   0.319   6.379  11.741  0.2269 -0.0868  0.0329
18595TIP3    H277277   0.232   6.286  11.659 -2.8186  1.0358  1.8036
18596TIP3   OH277278   5.881   6.677   1.770  0.0549 -0.7861 -0.2879
18596TIP3    H177279   5.968   6.687   1.731  0.3167  2.3683  0.8173
18596TIP3    H277280   5.898   6.658   1.862 -0.4105 -0.2616 -0.0917
18597TIP3   OH277281   6.754   2.691   4.617 -0.1513  0.3328  0.9122
18597TIP3    H177282   6.756   2.764   4.679  2.6890 -1.2264  2.8921
18597TIP3    H277283   6.844   2.684   4.586 -1.2228  0.2357 -2.5749
18598TIP3   OH277284   4.042   4.196  16.954 -0.4799  0.8702 -0.1614
18598TIP3    H177285   4.133   4.178  16.979 -0.8665 -0.2188  0.5146
18598TIP3    H277286   4.002   4.233  17.033 -0.6200  1.4052 -0.4763
18599TIP3   OH277287   0.536   2.940   4.712  0.0024 -0.0637 -0.2894
18599TIP3    H177288   0.598   3.012   4.719  0.2320 -0.3380  0.7068
18599TIP3    H277289   0.481   2.949   4.790 -2.0444  0.9197 -1.7449
18600TIP3   OH277290   6.164   1.106  12.502 -0.6759  0.1667  0.3875
18600TIP3    H177291   6.243   1.080  12.549  0.8353  1.1116 -1.4932
18600TIP3    H277292   6.135   1.185  12.548 -1.6064 -1.1216  2.1533
18601TIP3   OH277293   3.642   3.452  13.315  0.6976  0.3567 -0.0181
18601TIP3    H177294   3.711   3.392  13.286  0.4126  1.0940 -2.4542
18601TIP3    H277295   3.683   3.538  13.313  0.7729  0.4253  2.3319
18602TIP3   OH277296   3.071   6.305  12.661 -0.2373  0.7820 -0.2928
18602TIP3    H177297   3.007   6.234  12.674 -0.6779  0.9810 -1.3208
18602TIP3    H277298   3.067   6.355  12.743 -2.5753  1.7141 -0.8899
18603TIP3   OH277299   5.719   4.642  10.789 -0.2566  0.3643  0.1520
18603TIP3    H177300   5.676   4.728  10.789 -0.2612  0.3619  0.0820
18603TIP3    H277301   5.709   4.610  10.700  1.3808  1.1081 -0.3436
18604TIP3   OH277302   5.252   0.707   1.867 -0.1931  0.8143 -0.3055
18604TIP3    H177303   5.241   0.665   1.782  0.5136 -0.2058  0.0814
18604TIP3    H277304   5.321   0.772   1.854  0.2140  0.3655 -0.4270
18605TIP3   OH277305   1.883   3.088  15.268 -0.0603 -0.0990  0.1366
18605TIP3    H177306   1.894   3.015  15.207  0.0119 -0.7652  0.9255
18605TIP3    H277307   1.952   3.150  15.243  1.7608 -1.5635  1.2062
18606TIP3   OH277308   4.072   5.703  10.931 -0.1254 -0.4428 -0.2049
18606TIP3    H177309   4.046   5.611  10.926 -1.4767 -0.1884  1.2212
18606TIP3    H277310   4.148   5.703  10.989 -1.2676 -0.5105  1.3561
18607TIP3   OH277311   5.939   1.989   0.735  0.0943 -0.0249 -0.3289
18607TIP3    H177312   5.869   1.946   0.783 -1.8771  2.4357 -0.8248
18607TIP3    H277313   5.910   1.988   0.644  1.3029 -0.0297 -0.7357
18608TIP3   OH277314   4.534   0.107  11.786  0.0470  0.2978  0.5064
18608TIP3    H177315   4.498   0.184  11.742 -1.1399  0.6455  2.0005
18608TIP3    H277316   4.457   0.057  11.813  0.7713 -2.0692 -1.4397
18609TIP3   OH277317   4.512   2.432   4.370 -0.1479  0.0727 -0.0184
18609TIP3    H177318   4.511   2.513   4.319  0.2001 -0.2494 -0.5470
18609TIP3    H277319   4.579   2.378   4.328 -1.3499 -1.0597 -0.5694
18610TIP3   OH277320   1.018   3.976   2.713  0.3288  0.3943 -0.3789
18610TIP3    H177321   1.082   4.005   2.779  0.3009  2.4538 -1.1707
18610TIP3    H277322   1.013   4.050   2.652  0.6905 -1.5915 -2.9585
18611TIP3   OH277323   0.493   4.155  13.701 -0.5498  0.4127 -0.5409
18611TIP3    H177324   0.434   4.099  13.651 -0.1226  2.0004 -3.0055
18611TIP3    H277325   0.578   4.112  13.698 -0.5886  0.3681 -0.9747
18612TIP3   OH277326   4.237   2.949  14.290  0.3153  0.3244  0.2818
18612TIP3    H177327   4.157   2.907  14.321  1.7906 -1.4223  1.9364
18612TIP3    H277328   4.275   2.988  14.368  2.1611 -0.7512 -0.0372
18613TIP3   OH277329   2.586   2.164  13.687 -0.3607 -0.0978  0.1946
18613TIP3    H177330   2.574   2.182  13.594  0.7522  0.7895  0.2072
18613TIP3    H277331   2.663   2.214  13.712  1.9261 -3.4634  0.6484
18614TIP3   OH277332   1.171   4.315   2.769  0.1457  0.2847  0.2367
18614TIP3    H177333   1.163   4.247   2.836 -0.2855  0.8712  0.7991
18614TIP3    H277334   1.179   4.267   2.687  1.3094 -0.4622  0.7574
18615TIP3   OH277335   2.777   0.729  17.122  0.1948  0.5134  0.0343
18615TIP3    H177336   2.788   0.821  17.100 -0.1234  0.3810 -0.7171
18615TIP3    H277337   2.767   0.728  17.218  1.0793  1.1631  0.1426
18616TIP3   OH277338   1.566   3.165  11.239  0.2665 -0.6693 -0.1936
18616TIP3    H177339   1.573   3.089  11.296 -0.0813 -0.0836  0.6419
18616TIP3    H277340   1.602   3.237  11.291  1.0217 -0.3344 -1.1434
18617TIP3   OH277341   3.869   5.011  14.757 -0.1384 -0.6514  0.1543
18617TIP3    H177342   3.780   4.978  14.745 -0.0017 -0.3964 -1.9267
18617TIP3    H277343   3.923   4.933  14.761 -0.4904 -0.8317  2.1073
18618TIP3   OH277344   5.834   3.095  13.534  0.3484 -0.3137  0.2511
18618TIP3    H177345   5.896   3.133  13.472 -1.0722 -0.3072 -1.2359
18618TIP3    H277346   5.776   3.041  13.480 -0.3704 -1.0652  1.7155
18619TIP3   OH277347   6.482   0.490   2.807  0.0931 -0.3980  0.1396
18619TIP3    H177348   6.530   0.407   2.808  1.7134  0.4119 -1.8878
18619TIP3    H277349   6.449   0.497   2.717  0.0918  1.2108  0.2422
18620TIP3   OH277350   5.899   5.353  16.285  0.0203 -0.0923 -0.1474
18620TIP3    H177351   5.869   5.301  16.211 -1.7053 -0.1067  0.5192
18620TIP3    H277352   5.959   5.295  16.332 -0.5501 -0.8702 -0.3642
18621TIP3   OH277353   1.942   4.303  13.397 -0.1207  0.1596  0.0828
18621TIP3    H177354   1.977   4.292  13.485 -0.9132 -0.8661  0.2985
18621TIP3    H277355   2.015   4.336  13.345  0.2510  1.1543  1.2035
18622TIP3   OH277356   4.665   4.340   2.449 -0.0734  0.0797 -0.0667
18622TIP3    H177357   4.723   4.301   2.383  1.3806  2.0143 -0.0269
18622TIP3    H277358   4.581   4.349   2.404  0.0692 -1.2688 -0.6684
18623TIP3   OH277359   4.519   4.653   2.166 -0.2545  0.2754 -0.4752
18623TIP3    H177360   4.607   4.689   2.162 -0.3440  0.9851  1.9524
18623TIP3    H277361   4.488   4.654   2.076  1.4526  1.9992 -1.1058
18624TIP3   OH277362   1.669   3.157  14.562 -0.1061 -0.1405  0.2950
18624TIP3    H177363   1.666   3.084  14.501 -1.1680  0.0909  0.0477
18624TIP3    H277364   1.678   3.235  14.506 -0.7315  0.0436  0.4366
18625TIP3   OH277365   1.716   1.878  15.596  0.0956 -0.0715 -0.1836
18625TIP3    H177366   1.650   1.886  15.527  0.5487  0.1196 -0.5958
18625TIP3    H277367   1.668   1.898  15.677 -0.0686  1.4138 -0.6223
18626TIP3   OH277368   4.517   0.767  12.627  0.2263 -0.3017 -0.4700
18626TIP3    H177369   4.423   0.751  12.633  0.4075 -1.0189  1.0475
18626TIP3    H277370   4.526   0.837  12.563 -1.3791  0.0730 -0.3197
18627TIP3   OH277371   3.239   2.206   0.911 -0.0077  0.2807  0.3938
18627TIP3    H177372   3.175   2.255   0.963  0.9316  0.8917  1.0024
18627TIP3    H277373   3.234   2.245   0.824  1.0310  1.8025  0.9762
18628TIP3   OH277374   6.583   0.808   0.934  0.1714 -0.1848 -0.2839
18628TIP3    H177375   6.645   0.741   0.904 -1.2678 -1.7319  0.0476
18628TIP3    H277376   6.633   0.861   0.995  1.7328 -0.1092 -1.5523
18629TIP3   OH277377   1.987   5.613   2.587  0.8213  0.4010 -0.4626
18629TIP3    H177378   1.960   5.552   2.518 -1.7587  2.5645 -1.5319
18629TIP3    H277379   1.922   5.683   2.585  2.4102  2.1534  2.1343
18630TIP3   OH277380   4.193   2.142  14.412  0.3649  0.5331 -0.1909
18630TIP3    H177381   4.190   2.046  14.417  1.8525  0.4755  0.1243
18630TIP3    H277382   4.197   2.161  14.319  2.2942  0.1439 -0.2392
18631TIP3   OH277383   2.033   0.425  12.066  0.1047  0.1352  0.0252
18631TIP3    H177384   2.016   0.338  12.102  1.6614 -0.0780  0.3055
18631TIP3    H277385   2.128   0.427  12.052 -0.0359  1.4239 -0.9346
18632TIP3   OH277386   2.767   1.945   1.272 -0.0157 -0.4158 -0.3470
18632TIP3    H177387   2.789   1.933   1.365 -1.7668  1.1926  0.3399
18632TIP3    H277388   2.713   1.869   1.251  0.4705 -0.8402 -0.0883
18633TIP3   OH277389   5.058   5.762  16.832 -0.2060  0.2049  0.2936
18633TIP3    H177390   5.032   5.848  16.801  0.3814 -0.0481 -0.9544
18633TIP3    H277391   5.064   5.771  16.927  1.1716  1.9081  0.0807
18634TIP3   OH277392   0.213   3.496   1.606  0.4968 -0.3946  0.0429
18634TIP3    H177393   0.192   3.429   1.671 -2.6065  0.5856  0.2102
18634TIP3    H277394   0.209   3.449   1.522 -1.1652 -0.6128  0.1978
18635TIP3   OH277395   1.482   1.486   5.275 -1.0023 -0.0421  0.0895
18635TIP3    H177396   1.394   1.450   5.265 -1.3125  0.8437 -0.5361
18635TIP3    H277397   1.492   1.501   5.369 -0.7024 -2.1012  0.4187
18636TIP3   OH277398   1.254   3.895   3.175 -0.3032 -0.3154  0.3287
18636TIP3    H177399   1.204   3.829   3.127 -0.9489  0.5850 -0.2731
18636TIP3    H277400   1.224   3.887   3.266  1.1558 -2.2440  0.7024
18637TIP3   OH277401   6.078   0.093   5.222 -0.3854 -0.6362 -0.5522
18637TIP3    H177402   6.162   0.049   5.209  0.5741  0.1005  2.4602
18637TIP3    H277403   6.046   0.108   5.133  3.3597  0.3693 -1.9502
18638TIP3   OH277404   0.728   1.745  17.190  0.4456 -0.7538 -0.1820
18638TIP3    H177405   0.812   1.710  17.220  0.0451 -2.0461 -0.5142
18638TIP3    H277406   0.714   1.705  17.104 -0.1726  0.0160 -0.4579
18639TIP3   OH277407   6.721   1.413   2.826  0.3917 -0.0874  0.1949
18639TIP3    H177408   6.662   1.436   2.898 -1.4760 -1.6789 -0.7216
18639TIP3    H277409   6.800   1.381   2.869  0.1066  0.8503  1.4937
18640TIP3   OH277410   0.106   1.391  11.733 -0.6632  0.0878 -0.4784
18640TIP3    H177411   0.078   1.371  11.643 -3.1051  0.5208  0.0991
18640TIP3    H277412   0.025   1.386  11.784  0.8199 -1.2342  1.9267
18641TIP3   OH277413   5.414   6.774   3.233  0.0035  0.5257 -0.0399
18641TIP3    H177414   5.324   6.802   3.252 -0.4023 -0.5022 -0.3713
18641TIP3    H277415   5.411   6.748   3.140  0.6210  0.4082 -0.0294
18642TIP3   OH277416   3.237   1.205   3.691 -0.0973  0.2442  0.0506
18642TIP3    H177417   3.265   1.202   3.783  2.0464 -0.2120 -0.5454
18642TIP3    H277418   3.196   1.120   3.676 -2.6438  1.1957  1.1451
18643TIP3   OH277419   3.223   3.793   1.992 -0.2927 -0.2829 -0.1533
18643TIP3    H177420   3.218   3.874   1.941  1.6925  0.1256  0.1928
18643TIP3    H277421   3.149   3.797   2.052  0.6174  2.0482  0.9053
18644TIP3   OH277422   6.659   3.571  12.572  0.0412 -0.2333  0.1276
18644TIP3    H177423   6.639   3.485  12.534  0.2508  0.4855 -1.6831
18644TIP3    H277424   6.631   3.634  12.506 -0.0944  1.1246  1.4149
18645TIP3   OH277425   3.529   3.016  15.935  0.4389  0.0445 -0.1373
18645TIP3    H177426   3.558   3.089  15.990 -0.3600 -0.2914  0.7507
18645TIP3    H277427   3.529   2.940  15.994  0.0302 -0.4199 -0.7295
18646TIP3   OH277428   0.708   5.147   5.892 -0.3781  0.9185 -0.0604
18646TIP3    H177429   0.755   5.230   5.906  1.7198 -0.1739 -0.2106
18646TIP3    H277430   0.694   5.143   5.797 -0.9236  1.3223  0.0014
18647TIP3   OH277431   4.130   3.336  12.645  0.2702 -0.7141  0.2707
18647TIP3    H177432   4.201   3.285  12.607 -1.9249 -4.6718  0.9521
18647TIP3    H277433   4.098   3.390  12.573  0.4533 -3.0398 -1.7018
18648TIP3   OH277434   5.601   4.756   3.615  0.0093  0.0627  0.5321
18648TIP3    H177435   5.589   4.769   3.709  0.0457 -0.4488  0.6095
18648TIP3    H277436   5.628   4.664   3.606  2.4370  0.7155  0.2525
18649TIP3   OH277437   4.212   4.296  12.298  0.1631  0.3804 -0.0814
18649TIP3    H177438   4.131   4.276  12.253 -0.4981  0.0847  1.1866
18649TIP3    H277439   4.220   4.391  12.294 -1.1833  0.5900  1.2710
18650TIP3   OH277440   3.705   6.042   5.610 -0.0410  0.8563  0.8924
18650TIP3    H177441   3.775   6.016   5.669 -1.2428 -2.5916  1.0606
18650TIP3    H277442   3.744   6.038   5.523  0.3627  0.4660  1.0890
18651TIP3   OH277443   4.370   1.833   0.922 -0.3181 -0.0534  0.1488
18651TIP3    H177444   4.400   1.822   1.013  0.6665  0.1960 -0.1346
18651TIP3    H277445   4.387   1.925   0.903 -1.2640  0.0933 -0.0434
18652TIP3   OH277446   2.912   5.955  11.516 -0.4010 -0.3975 -0.1742
18652TIP3    H177447   2.966   6.014  11.568 -0.4841 -1.0104  0.6299
18652TIP3    H277448   2.895   5.881  11.574 -3.7542  0.6370  0.3676
18653TIP3   OH277449   3.967   4.114  13.357  0.6901  0.2024 -0.0970
18653TIP3    H177450   3.950   4.038  13.413  1.2340 -1.0638 -1.5869
18653TIP3    H277451   4.062   4.111  13.340  1.0326  2.1820  1.1227
18654TIP3   OH277452   3.299   3.324  12.861  0.0534  0.4943 -0.2939
18654TIP3    H177453   3.390   3.352  12.852  0.3763 -1.0653 -2.9340
18654TIP3    H277454   3.304   3.236  12.898 -0.3384  0.2600 -0.7795
18655TIP3   OH277455   1.947   4.787  14.809 -0.4722 -0.2131  0.1061
18655TIP3    H177456   1.982   4.787  14.898 -0.2656 -0.9195  0.0371
18655TIP3    H277457   1.858   4.823  14.817  0.2168  1.5331  0.2914
18656TIP3   OH277458   0.135   6.806  16.204  0.0873  0.6678 -0.6029
18656TIP3    H177459   0.072   6.825  16.275 -0.5179 -1.2410 -0.5678
18656TIP3    H277460   0.217   6.788  16.250 -0.2124 -0.1995 -0.3803
18657TIP3   OH277461   6.032   5.931  13.656 -0.4656  0.1612  0.1288
18657TIP3    H177462   5.977   5.862  13.618 -1.4481  1.4242 -0.8580
18657TIP3    H277463   5.989   5.954  13.738 -0.4735 -0.0187  0.1734
18658TIP3   OH277464   6.355   5.874   3.470  0.0496 -0.0994  0.0989
18658TIP3    H177465   6.320   5.894   3.557 -0.6913 -0.9604  0.0162
18658TIP3    H277466   6.450   5.874   3.483 -0.0255  0.5101  0.7380
18659TIP3   OH277467   2.360   6.268  15.490 -0.2885 -0.7754 -0.3925
18659TIP3    H177468   2.431   6.205  15.505  0.3133 -0.5748 -2.1849
18659TIP3    H277469   2.319   6.240  15.408  0.2472  1.3523 -1.4605
18660TIP3   OH277470   5.167   2.007   3.303  0.6109 -0.1186  0.4910
18660TIP3    H177471   5.254   2.030   3.335  1.7343 -1.2749 -1.4999
18660TIP3    H277472   5.144   2.080   3.245  1.9859 -1.4486 -1.9066
18661TIP3   OH277473   2.765   5.941   5.695 -0.5042 -0.1451 -0.2012
18661TIP3    H177474   2.723   5.858   5.716 -0.2270 -0.2791 -0.1754
18661TIP3    H277475   2.776   5.984   5.780 -0.6826 -0.0649 -0.2183
18662TIP3   OH277476   0.533   5.296   4.654  0.4399  0.4473 -0.1247
18662TIP3    H177477   0.623   5.304   4.685 -0.1143 -0.5319  1.9597
18662TIP3    H277478   0.504   5.386   4.641  1.1070  0.8899  1.2223
18663TIP3   OH277479   3.819   0.344  12.008  0.5646 -0.4376  0.3780
18663TIP3    H177480   3.811   0.324  11.915 -0.9320  0.8650  0.1732
18663TIP3    H277481   3.776   0.270  12.052  0.0339 -0.3998 -0.0607
18664TIP3   OH277482   1.229   2.396  11.401 -0.7499 -0.0363  0.1681
18664TIP3    H177483   1.255   2.307  11.375  0.8182  0.1884  0.8694
18664TIP3    H277484   1.180   2.429  11.325 -0.8744 -1.2874 -0.3265
18665TIP3   OH277485   6.462   6.638   4.728  0.1008 -0.2244  0.2572
18665TIP3    H177486   6.526   6.626   4.657  2.4152  1.6278  1.8615
18665TIP3    H277487   6.406   6.709   4.697  1.4153  0.9308  0.3789
18666TIP3   OH277488   0.798   1.798   0.676  0.6607 -0.6467 -0.1529
18666TIP3    H177489   0.873   1.761   0.628  0.0633 -0.3125 -1.3959
18666TIP3    H277490   0.814   1.892   0.675  0.2600 -0.5775 -0.3872
18667TIP3   OH277491   6.030   6.124  11.616 -0.1858 -0.7602 -0.4444
18667TIP3    H177492   6.087   6.137  11.540  2.2437  0.8144  1.5058
18667TIP3    H277493   5.982   6.044  11.596  1.9842 -1.6281 -2.6853
18668TIP3   OH277494   0.137   3.194  16.934 -0.8332 -0.0606 -0.5733
18668TIP3    H177495   0.211   3.158  16.884  0.0757  0.2950  0.4835
18668TIP3    H277496   0.077   3.120  16.943 -0.7189 -0.3001 -1.6278
18669TIP3   OH277497   4.316   6.503  12.290 -0.1474  0.5719 -0.2843
18669TIP3    H177498   4.401   6.526  12.252 -0.0299  0.5734 -0.0202
18669TIP3    H277499   4.253   6.555  12.240  0.0709  1.0949 -0.0199
18670TIP3   OH277500   5.501   1.568   7.021  0.1787  0.5392 -0.0469
18670TIP3    H177501   5.575   1.548   7.077 -0.1037  2.5361  1.1247
18670TIP3    H277502   5.490   1.490   6.967  1.8042 -0.6067  1.1904
18671TIP3   OH277503   1.845   0.537   0.087  0.1032 -0.5124 -0.2692
18671TIP3    H177504   1.859   0.447   0.059  0.4186 -0.9368  1.1283
18671TIP3    H277505   1.879   0.539   0.177  0.2810  1.0517 -0.3455
18672TIP3   OH277506   6.571   6.125   2.262 -0.0538 -0.0069 -0.5433
18672TIP3    H177507   6.506   6.057   2.245 -0.6684  0.7593 -1.3730
18672TIP3    H277508   6.655   6.080   2.255 -0.4720 -1.0746  0.8112
18673TIP3   OH277509   0.524   2.169  11.830  0.9583 -0.0372 -0.0378
18673TIP3    H177510   0.498   2.119  11.907  0.0358 -0.4774 -0.6324
18673TIP3    H277511   0.517   2.261  11.858 -2.8704 -0.0044 -0.6021
18674TIP3   OH277512   3.903   0.275   0.398 -0.2033 -0.0540 -0.3291
18674TIP3    H177513   3.820   0.320   0.414  0.3186  1.3118 -1.2203
18674TIP3    H277514   3.878   0.196   0.350 -0.9573  0.7354 -1.3065
18675TIP3   OH277515   6.799   6.476   3.616 -0.3197 -0.2014  0.2224
18675TIP3    H177516   6.717   6.525   3.627  0.2917  0.6107  1.2742
18675TIP3    H277517   6.792   6.404   3.680 -0.9352 -1.1435 -0.8722
18676TIP3   OH277518   2.576   3.598   3.767 -0.6353  0.2434  0.4876
18676TIP3    H177519   2.621   3.658   3.827  0.7084  0.5940 -0.7975
18676TIP3    H277520   2.617   3.514   3.783  1.9643  0.8923 -1.9397
18677TIP3   OH277521   0.049   4.520   4.595  0.2910 -0.2188 -0.3567
18677TIP3    H177522   0.070   4.566   4.677 -0.5459 -0.4385 -0.0059
18677TIP3    H277523   0.026   4.431   4.623  0.0425 -0.3085 -0.8391
18678TIP3   OH277524   1.770   0.312  15.757  0.3033 -0.0867 -0.3349
18678TIP3    H177525   1.770   0.398  15.716 -0.3173  0.2546  0.3543
18678TIP3    H277526   1.686   0.307  15.802  0.7477 -0.6548  0.4620
18679TIP3   OH277527   5.923   0.979   2.339 -0.0666  0.0649  0.3307
18679TIP3    H177528   5.946   0.924   2.414 -0.6923 -1.2549 -0.3891
18679TIP3    H277529   5.969   0.939   2.265  0.4380  1.2635 -0.0233
18680TIP3   OH277530   6.712   1.630  16.968 -0.1952  0.2602  1.0063
18680TIP3    H177531   6.675   1.548  16.998 -2.5135  1.2725  1.0888
18680TIP3    H277532   6.639   1.677  16.928  1.5385  1.3888 -1.0219
18681TIP3   OH277533   0.884   2.125   6.385 -0.1140  0.1907  0.5339
18681TIP3    H177534   0.893   2.144   6.479  0.3878  0.1314  0.5008
18681TIP3    H277535   0.844   2.038   6.382  1.0311 -0.3619  0.7087
18682TIP3   OH277536   2.663   5.309   3.783  0.2181  0.0455  0.2559
18682TIP3    H177537   2.649   5.391   3.830 -1.3485  1.4317 -2.3679
18682TIP3    H277538   2.605   5.246   3.826 -0.3797  0.9551  0.8186
18683TIP3   OH277539   5.579   4.442   4.406  0.7273 -0.5836  0.1953
18683TIP3    H177540   5.595   4.467   4.497  0.3580  0.3211  0.0261
18683TIP3    H277541   5.490   4.472   4.389  0.3876 -1.7511 -0.1373
18684TIP3   OH277542   3.161   2.134  14.192 -0.5514  0.6165 -0.6200
18684TIP3    H177543   3.086   2.152  14.250 -1.0042  0.3612 -1.1154
18684TIP3    H277544   3.232   2.110  14.251 -1.4043 -1.0318 -0.2252
18685TIP3   OH277545   1.985   0.347  17.110 -0.2550  0.0081  0.1810
18685TIP3    H177546   2.052   0.359  17.043 -0.5881 -1.1314 -0.3841
18685TIP3    H277547   2.033   0.311  17.185  0.3137  2.3480  1.0079
18686TIP3   OH277548   5.135   0.092   1.774  0.1849 -0.2862 -0.2735
18686TIP3    H177549   5.214   0.073   1.826  0.1280  0.1371 -0.0248
18686TIP3    H277550   5.065   0.099   1.839  0.0543 -0.0701 -0.4373
18687TIP3   OH277551   6.170   3.965   1.775  0.0894 -0.5526  0.3942
18687TIP3    H177552   6.185   3.876   1.745 -1.5498 -0.2398 -1.5373
18687TIP3    H277553   6.095   3.958   1.833  0.4323 -0.5077  0.8535
18688TIP3   OH277554   0.716   4.877  14.709 -0.3091  0.3637 -0.2940
18688TIP3    H177555   0.738   4.935  14.782  1.1613  0.8665 -1.0895
18688TIP3    H277556   0.797   4.871  14.659 -0.8959 -1.1132 -1.1113
18689TIP3   OH277557   0.676   4.577   1.078  0.0653  0.6746 -0.1248
18689TIP3    H177558   0.733   4.651   1.101 -0.8383  1.3013  0.1253
18689TIP3    H277559   0.677   4.522   1.157  0.2900  0.6995 -0.1080
18690TIP3   OH277560   4.815   5.868  11.980 -0.2592  0.3065  0.2447
18690TIP3    H177561   4.837   5.960  11.968  0.0855  0.1317 -0.5464
18690TIP3    H277562   4.899   5.824  11.993 -0.3214 -0.0498 -0.5098
18691TIP3   OH277563   2.840   1.915   5.579 -0.4238  0.5243 -0.1193
18691TIP3    H177564   2.834   1.913   5.675  0.0792  0.8086 -0.0772
18691TIP3    H277565   2.907   1.981   5.561 -0.5291  0.4844 -0.6698
18692TIP3   OH277566   6.315   4.059  13.291 -0.6994  0.2900 -0.1663
18692TIP3    H177567   6.324   3.970  13.257  0.6878  0.5811 -0.6529
18692TIP3    H277568   6.272   4.108  13.221 -1.1693  0.0856 -0.0255
18693TIP3   OH277569   4.128   5.681   6.577 -0.3917  0.2243 -0.1190
18693TIP3    H177570   4.167   5.661   6.492  0.1988 -0.7885  0.3647
18693TIP3    H277571   4.034   5.681   6.561 -0.2639  1.6441 -1.0858
18694TIP3   OH277572   5.796   5.224  16.027  0.3233  0.0673  0.3714
18694TIP3    H177573   5.815   5.149  15.971  1.9189  1.1793 -0.6529
18694TIP3    H277574   5.844   5.297  15.988  0.9638  1.0592  2.7964
18695TIP3   OH277575   4.404   3.291  15.172 -0.2025 -0.8209 -0.2638
18695TIP3    H177576   4.477   3.275  15.113  0.3009  0.3273  0.0143
18695TIP3    H277577   4.332   3.318  15.114 -0.2160 -1.3266 -0.4839
18696TIP3   OH277578   3.519   2.823  15.489 -0.4878  0.1606  0.0963
18696TIP3    H177579   3.544   2.896  15.432 -0.6648  0.2704  0.1561
18696TIP3    H277580   3.430   2.801  15.461  0.5118 -1.8419 -1.7988
18697TIP3   OH277581   2.823   5.176  16.795  0.4943 -0.4750  0.2640
18697TIP3    H177582   2.876   5.207  16.868 -0.1327 -1.6071  1.2340
18697TIP3    H277583   2.886   5.164  16.723  1.5015 -1.3234  1.2376
18698TIP3   OH277584   1.224   2.360   3.748 -0.8925  0.6153  0.1085
18698TIP3    H177585   1.275   2.366   3.829 -0.6962  0.9393 -0.0415
18698TIP3    H277586   1.134   2.347   3.779 -0.5580 -1.5890  0.3821
18699TIP3   OH277587   3.409   0.693   0.116 -0.1092  0.2089 -0.0008
18699TIP3    H177588   3.357   0.614   0.133  1.5064 -0.4844  2.1080
18699TIP3    H277589   3.492   0.659   0.081  1.1033  0.8151  2.1461
18700TIP3   OH277590   1.356   1.014   1.877  0.0062  0.0526 -0.2322
18700TIP3    H177591   1.411   1.012   1.955  2.6168 -1.7541 -1.9671
18700TIP3    H277592   1.396   1.081   1.821 -0.0450 -0.7255 -1.2116
18701TIP3   OH277593   1.280   5.460   1.027 -0.3499 -0.3846 -0.0877
18701TIP3    H177594   1.306   5.552   1.032 -0.1661 -0.4370 -0.0716
18701TIP3    H277595   1.344   5.414   1.081 -0.6726 -0.4753  0.2249
18702TIP3   OH277596   6.405   3.371  14.223  0.2359  0.3841  0.1205
18702TIP3    H177597   6.483   3.383  14.277  0.0677 -0.9981  0.7179
18702TIP3    H277598   6.413   3.282  14.188 -1.4053 -0.0738  0.8013
18703TIP3   OH277599   0.324   5.904   0.332  0.2465 -0.6173  0.5139
18703TIP3    H177600   0.319   5.886   0.426  0.9302 -1.7983  0.3466
18703TIP3    H277601   0.306   5.820   0.290  0.1435 -0.1452 -0.4139
18704TIP3   OH277602   1.259   4.658  16.221  0.0843 -0.2465 -0.0833
18704TIP3    H177603   1.240   4.752  16.221  1.3088  0.0206  0.4317
18704TIP3    H277604   1.353   4.653  16.236  0.2496 -1.5284 -1.3272
18705TIP3   OH277605   0.600   1.236   2.515  0.1079 -0.5270  0.3762
18705TIP3    H177606   0.534   1.193   2.571  0.8577 -1.4799  0.5572
18705TIP3    H277607   0.668   1.264   2.575 -0.5882  1.4483  0.3279
18706TIP3   OH277608   5.819   4.150  16.985 -0.2401 -0.0414  0.1028
18706TIP3    H177609   5.876   4.219  16.951 -0.4804  0.8683  1.4383
18706TIP3    H277610   5.811   4.170  17.078 -1.4741 -1.0620  0.2435
18707TIP3   OH277611   0.164   2.515  15.535  0.2239 -0.2961  0.4001
18707TIP3    H177612   0.217   2.440  15.507  0.2376  0.1565 -0.8212
18707TIP3    H277613   0.074   2.483  15.527  0.1850  0.1618 -1.2057
18708TIP3   OH277614   2.603   2.362   5.186  0.3062  0.0067  0.0849
18708TIP3    H177615   2.604   2.268   5.171  0.0339 -0.2926  1.7257
18708TIP3    H277616   2.579   2.371   5.278  2.4818  1.5930  0.5882
18709TIP3   OH277617   5.982   3.527  12.889 -0.9539 -0.2679  0.1986
18709TIP3    H177618   5.983   3.561  12.799  0.5111 -0.4842  0.1094
18709TIP3    H277619   5.890   3.507  12.906 -1.6388  2.0625 -0.3783
18710TIP3   OH277620   2.331   2.463  13.966  0.2561 -0.2991  0.2743
18710TIP3    H177621   2.403   2.524  13.980  1.2697 -1.7906  2.1325
18710TIP3    H277622   2.351   2.420  13.883 -0.5622  1.9076 -1.1381
18711TIP3   OH277623   6.277   4.888   1.103  0.4152 -0.0618 -0.3520
18711TIP3    H177624   6.216   4.956   1.130  0.6502 -0.0308  0.1107
18711TIP3    H277625   6.353   4.936   1.070  0.0971 -0.0978 -1.1729
18712TIP3   OH277626   3.240   4.292  12.223 -0.3992  0.0700  0.4822
18712TIP3    H177627   3.198   4.210  12.249  0.0245 -0.4373 -0.4220
18712TIP3    H277628   3.171   4.358  12.234 -0.8382 -0.4488  0.9065
18713TIP3   OH277629   5.729   5.549   1.814  0.4424  0.0510 -0.2573
18713TIP3    H177630   5.811   5.596   1.797  1.4052 -1.1776  0.7068
18713TIP3    H277631   5.701   5.579   1.900 -0.4317  0.8621 -0.8124
18714TIP3   OH277632   4.853   0.674  14.019 -0.3351 -0.2244  0.2021
18714TIP3    H177633   4.873   0.757  14.062  1.9333 -0.6120  0.0493
18714TIP3    H277634   4.800   0.626  14.082 -1.2997  1.1555  0.4763
18715TIP3   OH277635   3.108   6.630  13.795 -0.0926 -0.6233  0.1944
18715TIP3    H177636   3.089   6.561  13.859 -0.6953 -1.4925 -0.8817
18715TIP3    H277637   3.180   6.595  13.743 -1.7764 -1.4262 -1.7178
18716TIP3   OH277638   5.934   5.604  13.294  0.0797  0.1597  0.4005
18716TIP3    H177639   5.894   5.531  13.343 -2.3063  1.0826 -0.0322
18716TIP3    H277640   5.921   5.581  13.202 -0.0499  0.7698  0.2606
18717TIP3   OH277641   2.469   2.161  10.810  0.0157  0.1792 -0.2077
18717TIP3    H177642   2.448   2.247  10.774 -1.4084 -0.2848 -0.5514
18717TIP3    H277643   2.562   2.166  10.831 -0.1855  2.0456  0.4597
18718TIP3   OH277644   4.419   5.881  15.183 -0.1700 -0.9705 -0.1786
18718TIP3    H177645   4.457   5.814  15.240  0.5924 -0.6242 -0.2633
18718TIP3    H277646   4.482   5.889  15.111 -0.1107  0.0232 -0.0317
18719TIP3   OH277647   4.669   4.607  13.547  0.5892 -0.0893 -0.4422
18719TIP3    H177648   4.755   4.573  13.571  0.2281 -1.1895 -0.6286
18719TIP3    H277649   4.608   4.558  13.601  0.0699  0.6267 -0.3677
18720TIP3   OH277650   2.957   2.509   2.139 -0.1832  0.3546  0.2818
18720TIP3    H177651   2.984   2.442   2.202  2.3174  0.0535 -0.9918
18720TIP3    H277652   2.884   2.469   2.092  0.8455 -1.2646 -0.0179
18721TIP3   OH277653   6.763   6.652  11.702 -0.0374  0.1773  0.2368
18721TIP3    H177654   6.754   6.742  11.733  0.3887  0.8264 -1.4457
18721TIP3    H277655   6.845   6.651  11.654  0.4363 -1.3705  1.0324
18722TIP3   OH277656   1.548   4.762  12.808  0.1995 -0.4259  0.1452
18722TIP3    H177657   1.627   4.718  12.777  0.6972  0.3347  0.2880
18722TIP3    H277658   1.515   4.706  12.878  1.5631  0.0543  1.2239
18723TIP3   OH277659   5.131   4.554   0.190 -0.1422 -0.5074  0.0368
18723TIP3    H177660   5.138   4.603   0.108 -1.6888  0.0918  0.2431
18723TIP3    H277661   5.144   4.619   0.258 -0.9963 -0.5904  0.2921
18724TIP3   OH277662   1.327   3.476  16.048 -1.0458  0.0344 -0.1734
18724TIP3    H177663   1.309   3.400  16.104  0.9196 -0.5182 -0.2262
18724TIP3    H277664   1.325   3.440  15.959  0.2249 -0.0580 -0.1793
18725TIP3   OH277665   0.045   2.054   2.360  0.7079  0.6171  0.1457
18725TIP3    H177666   0.047   1.958   2.362 -0.2297  0.4993 -1.7367
18725TIP3    H277667   0.020   2.075   2.270  1.9704  2.6677  0.2138
18726TIP3   OH277668   5.541   1.215  14.869  0.1170 -0.3993 -0.1409
18726TIP3    H177669   5.628   1.251  14.888  0.0595 -0.5633  0.4356
18726TIP3    H277670   5.483   1.292  14.869 -0.3711 -0.6308  3.1509
18727TIP3   OH277671   6.026   6.213   0.704  0.2226 -0.4247  0.4037
18727TIP3    H177672   6.050   6.305   0.688  0.4082 -0.6730 -0.8786
18727TIP3    H277673   5.993   6.212   0.793 -0.4119  1.0220  0.2115
18728TIP3   OH277674   5.466   4.075  14.581  0.3788 -0.3085  0.0014
18728TIP3    H177675   5.395   4.078  14.646 -1.3024 -0.4971 -1.7626
18728TIP3    H277676   5.527   4.143  14.611  1.0511 -2.1095  3.2158
18729TIP3   OH277677   4.451   6.588  13.602 -0.4572  0.1288  0.0030
18729TIP3    H177678   4.476   6.678  13.622 -0.3835  0.3038 -0.8137
18729TIP3    H277679   4.357   6.585  13.616 -0.1658 -0.2633  2.1329
18730TIP3   OH277680   1.893   1.366  15.519  0.0746  0.4572  0.0529
18730TIP3    H177681   1.897   1.462  15.511  0.8796  0.3793 -0.5417
18730TIP3    H277682   1.982   1.337  15.502 -0.0873 -0.3846  0.5931
18731TIP3   OH277683   2.773   0.432  12.726 -0.0639 -0.3298 -0.0668
18731TIP3    H177684   2.808   0.430  12.815  0.6131 -2.7145 -0.3324
18731TIP3    H277685   2.678   0.437  12.738 -0.0749 -2.0050  0.8594
18732TIP3   OH277686   2.452   1.368   0.028  0.5482 -0.0856 -0.0078
18732TIP3    H177687   2.459   1.415   0.112 -1.0413 -0.3525  0.3013
18732TIP3    H277688   2.399   1.426  -0.027 -1.5617 -1.5086  0.4207
18733TIP3   OH277689   5.645   1.920   2.503  0.2839 -0.1828 -0.2773
18733TIP3    H177690   5.681   1.950   2.419  0.3834 -1.2355 -0.6188
18733TIP3    H277691   5.717   1.929   2.565  0.1504  0.7952 -0.2430
18734TIP3   OH277692   1.168   1.089   2.192 -0.2479 -0.8460  0.5286
18734TIP3    H177693   1.126   1.125   2.271  0.0346 -1.4298  0.9546
18734TIP3    H277694   1.218   1.162   2.156  0.4380 -0.8372  1.4608
18735TIP3   OH277695   6.136   6.227  11.358 -0.0086 -0.1364 -0.3361
18735TIP3    H177696   6.053   6.215  11.312 -0.5851  0.3167  0.5732
18735TIP3    H277697   6.190   6.154  11.328 -0.4371  0.0238 -1.5662
18736TIP3   OH277698   0.914   6.069  12.142  0.0739 -0.6741  0.0523
18736TIP3    H177699   0.844   6.105  12.087  1.3807 -0.0415 -1.2620
18736TIP3    H277700   0.946   6.143  12.192  1.8470 -0.1949 -1.6515
18737TIP3   OH277701   3.616   1.543  14.754 -0.3829 -0.5635  0.1608
18737TIP3    H177702   3.587   1.494  14.677  1.5137 -2.0692  0.3246
18737TIP3    H277703   3.537   1.553  14.808 -1.3166 -1.2784 -1.0334
18738TIP3   OH277704   3.855   1.198   5.063  0.0384  0.5031  0.5101
18738TIP3    H177705   3.846   1.106   5.041  1.7339  0.0755  1.4463
18738TIP3    H277706   3.813   1.244   4.991  2.7822 -0.8825 -2.2327
18739TIP3   OH277707   6.634   0.697   3.422 -0.2680 -0.2812 -0.0251
18739TIP3    H177708   6.685   0.673   3.499  0.2048 -0.3957 -0.3708
18739TIP3    H277709   6.548   0.720   3.457 -0.2088 -0.8074  0.4866
18740TIP3   OH277710   1.843   6.117  10.968 -0.5557  0.1547  0.4546
18740TIP3    H177711   1.931   6.128  11.004  0.3947 -2.4223 -0.8324
18740TIP3    H277712   1.832   6.190  10.907  0.7148  0.4539  0.5688
18741TIP3   OH277713   5.882   0.721  12.674  0.4207 -0.1144 -0.2502
18741TIP3    H177714   5.876   0.802  12.625  0.8978  0.3625  0.4600
18741TIP3    H277715   5.794   0.706  12.709 -0.0839 -0.7968 -1.7503
18742TIP3   OH277716   3.929   1.527   1.146  0.0448 -0.3246  0.4550
18742TIP3    H177717   3.903   1.582   1.073  2.0828 -0.3684 -0.3501
18742TIP3    H277718   4.010   1.565   1.179 -0.0576 -1.1489  1.7835
18743TIP3   OH277719   3.313   3.145  14.501  0.7518  0.4311  0.4866
18743TIP3    H177720   3.305   3.165  14.594  1.5494  1.1445  0.4129
18743TIP3    H277721   3.269   3.218  14.457 -1.2206 -0.7833  0.3152
18744TIP3   OH277722   4.761   2.404  16.417  0.5187  0.1219  0.4693
18744TIP3    H177723   4.761   2.454  16.498  2.4567  1.9401 -0.5599
18744TIP3    H277724   4.760   2.470  16.348 -0.5765 -1.3539 -1.0277
18745TIP3   OH277725   4.695   0.129   0.571  0.3974  0.0222  0.1101
18745TIP3    H177726   4.630   0.107   0.505 -0.0891  0.1232  0.5523
18745TIP3    H277727   4.753   0.053   0.574  0.7543  0.2423 -0.8217
18746TIP3   OH277728   0.092   1.769   2.325  0.6356  0.2318  0.6335
18746TIP3    H177729   0.130   1.701   2.269  0.5012  0.2168  0.5613
18746TIP3    H277730   0.020   1.725   2.371 -0.0213  0.5547 -0.0706
18747TIP3   OH277731   4.174   5.637   0.835  0.5219  0.0389 -0.1541
18747TIP3    H177732   4.153   5.553   0.795 -0.0839  0.7704 -1.4246
18747TIP3    H277733   4.100   5.656   0.893  0.7349 -0.3657  0.2555
18748TIP3   OH277734   3.792   0.939  13.718  0.1047  0.3383  0.4742
18748TIP3    H177735   3.763   0.984  13.798  1.7092  1.3178  0.5443
18748TIP3    H277736   3.872   0.893  13.744  0.9032  1.0520 -0.6617
18749TIP3   OH277737   1.410   0.870  15.985  0.2212  0.2846  0.2894
18749TIP3    H177738   1.380   0.925  16.058 -1.6786  0.6609 -0.7044
18749TIP3    H277739   1.408   0.927  15.909  0.6110 -0.5185 -0.3378
18750TIP3   OH277740   0.020   1.992   0.539 -0.1802  0.3110 -0.0305
18750TIP3    H177741   0.079   1.942   0.595 -0.5737 -1.0857 -0.7978
18750TIP3    H277742  -0.031   1.925   0.493  0.3003  1.3662 -2.2311
18751TIP3   OH277743   6.797   1.722  11.336  0.3818 -0.5674  0.4333
18751TIP3    H177744   6.785   1.713  11.242  1.8107 -1.3276  0.2918
18751TIP3    H277745   6.892   1.714  11.349  0.2488 -0.1272  1.9002
18752TIP3   OH277746   0.818   2.640  11.626  0.1151  0.8114  0.1042
18752TIP3    H177747   0.752   2.639  11.556  0.0565  0.5593  0.1645
18752TIP3    H277748   0.892   2.689  11.588  0.5160 -0.2533 -0.5271
18753TIP3   OH277749   0.154   4.124   0.825 -0.3983 -0.1843 -0.2990
18753TIP3    H177750   0.249   4.107   0.822 -0.7458 -2.8742  0.9512
18753TIP3    H277751   0.128   4.095   0.912 -2.3975  0.5967 -0.5968
18754TIP3   OH277752   0.591   4.135   2.625 -0.2660 -0.5377 -0.5847
18754TIP3    H177753   0.604   4.208   2.565  0.2204 -0.8118 -0.8143
18754TIP3    H277754   0.560   4.063   2.570  0.3905 -0.8552 -0.5498
18755TIP3   OH277755   0.490   6.600  12.888  0.0745  0.0737  0.2416
18755TIP3    H177756   0.404   6.584  12.849 -0.5120  2.3474  0.4701
18755TIP3    H277757   0.477   6.585  12.982  0.1904 -0.5165  0.1665
18756TIP3   OH277758   3.222   5.549  15.562  0.4245 -0.5653  0.0466
18756TIP3    H177759   3.304   5.531  15.608 -0.1725 -1.0228  0.9408
18756TIP3    H277760   3.165   5.475  15.583 -0.3527 -0.0727 -0.2758
18757TIP3   OH277761   3.907   4.309   4.536  0.0316 -0.0188  0.2554
18757TIP3    H177762   3.890   4.372   4.466  0.7187  0.1302  0.2218
18757TIP3    H277763   3.825   4.261   4.545 -0.0339 -0.0924 -0.7032
18758TIP3   OH277764   0.335   5.987   2.463  0.9068  0.1060 -0.4177
18758TIP3    H177765   0.379   6.048   2.403  0.7685  0.8813  0.2405
18758TIP3    H277766   0.245   6.019   2.467  0.8064 -0.2078 -0.1378
18759TIP3   OH277767   1.960   1.950  15.150  0.3003 -0.4815 -0.6109
18759TIP3    H177768   1.891   1.896  15.187 -0.2354  0.6842  0.1220
18759TIP3    H277769   2.040   1.922  15.195  0.2360 -1.4697 -1.0939
18760TIP3   OH277770   0.150   4.101   1.111 -0.2655 -0.1301 -0.4096
18760TIP3    H177771   0.180   4.011   1.102 -0.2494 -0.0300 -1.5308
18760TIP3    H277772   0.230   4.154   1.110  0.2139 -0.2518  4.6968
18761TIP3   OH277773   2.085   4.951  12.271 -0.4152 -0.5490  0.1412
18761TIP3    H177774   2.138   4.882  12.232  0.2967  0.0444  0.0372
18761TIP3    H277775   2.133   4.976  12.350 -0.2839  0.3143 -0.1993
18762TIP3   OH277776   5.781   4.003   4.739  0.0472  0.2844 -0.0213
18762TIP3    H177777   5.707   4.056   4.769  1.0593  1.1334  1.0975
18762TIP3    H277778   5.758   3.977   4.650 -2.0743 -0.4009  0.6668
18763TIP3   OH277779   3.470   4.024   0.743 -0.5679 -0.8454  0.4831
18763TIP3    H177780   3.552   4.047   0.699 -0.4827 -1.7349  0.1696
18763TIP3    H277781   3.411   4.097   0.722  0.2800  0.0802  1.1559
18764TIP3   OH277782   0.001   6.163   5.883 -0.6926  0.2968  0.3052
18764TIP3    H177783  -0.040   6.145   5.967  0.0174  0.0302  0.5947
18764TIP3    H277784  -0.016   6.256   5.867 -0.5657  0.4188  0.8813
18765TIP3   OH277785   1.711   6.463   3.992  0.5517 -0.1208  0.5519
18765TIP3    H177786   1.615   6.455   3.988  0.5098  0.0489  1.1081
18765TIP3    H277787   1.732   6.448   4.084  0.7770  2.6802  1.0510
18766TIP3   OH277788   3.615   0.199  13.226 -0.0502  0.4211  0.2283
18766TIP3    H177789   3.644   0.190  13.317  1.8973  0.1972 -0.3741
18766TIP3    H277790   3.617   0.293  13.209  1.0133  0.3691  0.0038
18767TIP3   OH277791   5.940   1.220  16.171 -0.0180  0.3497  0.0321
18767TIP3    H177792   5.891   1.202  16.090  0.4529  0.6620 -0.3305
18767TIP3    H277793   5.873   1.250  16.233 -0.9299 -2.8086  0.7935
18768TIP3   OH277794   6.035   0.825   2.527  0.1431  0.0538  0.5251
18768TIP3    H177795   6.094   0.814   2.601 -0.7329 -0.2286  1.1930
18768TIP3    H277796   6.033   0.738   2.485  0.6230  0.2085  0.1710
18769TIP3   OH277797   1.880   0.985   4.097 -0.0159 -0.1574  0.5329
18769TIP3    H177798   1.923   0.940   4.024  0.0772  1.3303 -0.3711
18769TIP3    H277799   1.951   1.004   4.159  0.2881  0.4759 -0.0019
18770TIP3   OH277800   4.717   6.722   4.474  0.0240  0.2394 -0.1697
18770TIP3    H177801   4.660   6.679   4.538 -1.0372 -1.5838 -2.2317
18770TIP3    H277802   4.659   6.783   4.427  0.5003  0.6267 -0.2642
18771TIP3   OH277803   4.714   0.342  15.772 -0.3503  0.3317 -0.1355
18771TIP3    H177804   4.689   0.372  15.684 -1.0774 -0.0943 -0.0714
18771TIP3    H277805   4.636   0.301  15.807  0.4377 -1.0615  0.0450
18772TIP3   OH277806   1.351   5.554  16.632 -0.2527 -0.2708  0.8135
18772TIP3    H177807   1.304   5.546  16.715  0.9751 -2.1591  1.3912
18772TIP3    H277808   1.443   5.548  16.656  0.0893 -3.7944 -0.8619
18773TIP3   OH277809   5.441   4.800   4.281  0.0875  0.1899  1.1761
18773TIP3    H177810   5.399   4.835   4.360 -3.0468 -0.9177  0.1633
18773TIP3    H277811   5.397   4.844   4.208  2.5773  0.8378 -0.0490
18774TIP3   OH277812   2.232   0.298   4.296  0.6941 -0.7797 -0.2967
18774TIP3    H177813   2.184   0.318   4.215  0.9071  3.9246  0.4585
18774TIP3    H277814   2.322   0.323   4.277  0.9118 -0.3823  1.1295
18775TIP3   OH277815   5.087   6.294  12.168  0.0616 -0.5460 -0.2721
18775TIP3    H177816   5.034   6.219  12.194  1.3503 -0.9925  1.2098
18775TIP3    H277817   5.165   6.288  12.223  0.1309  1.9696 -0.0109
18776TIP3   OH277818   5.309   2.862  11.423 -0.2501 -0.2373 -0.4493
18776TIP3    H177819   5.266   2.788  11.464 -2.4219  0.5602 -1.1513
18776TIP3    H277820   5.379   2.886  11.483 -0.9742 -1.4165  0.9094
18777TIP3   OH277821   5.482   2.579  11.674  0.1269  0.1755  0.4606
18777TIP3    H177822   5.473   2.669  11.643 -1.6174  0.4301  1.5845
18777TIP3    H277823   5.439   2.526  11.606  0.3789  0.2548  0.2343
18778TIP3   OH277824   1.462   1.494  17.166  0.5326  0.1097  0.2883
18778TIP3    H177825   1.539   1.541  17.134  0.9979 -1.1892 -0.5662
18778TIP3    H277826   1.462   1.510  17.261  0.4624  2.0996 -0.0061
18779TIP3   OH277827   3.244   5.591   2.058 -0.1804 -0.0322 -0.1958
18779TIP3    H177828   3.240   5.610   2.152  0.7021 -0.1651 -0.1228
18779TIP3    H277829   3.264   5.676   2.018 -0.2507 -0.0323 -0.2285
18780TIP3   OH277830   5.612   4.344   1.315  0.3052 -0.1819 -0.3536
18780TIP3    H177831   5.699   4.306   1.300 -0.0892 -1.3880  0.3064
18780TIP3    H277832   5.551   4.278   1.284 -0.3939  0.5599 -0.5894
18781TIP3   OH277833   4.144   2.888   1.990  0.1641 -0.2325  0.5636
18781TIP3    H177834   4.233   2.923   2.004  0.5314 -0.3581 -1.2961
18781TIP3    H277835   4.108   2.942   1.920  0.0391 -2.2919 -1.0489
18782TIP3   OH277836   6.642   2.060  14.050 -0.3317  0.0574  0.1494
18782TIP3    H177837   6.550   2.075  14.071 -0.4114 -0.2349  0.0075
18782TIP3    H277838   6.658   2.112  13.971 -0.5216 -0.3403 -0.1513
18783TIP3   OH277839   5.036   4.876   3.681  0.0269 -0.1773  0.2338
18783TIP3    H177840   5.107   4.937   3.660  0.2790 -0.3821  0.4802
18783TIP3    H277841   5.076   4.789   3.672 -0.1647 -0.2899  0.4818
18784TIP3   OH277842   4.558   1.743   4.530  0.2514  0.1753 -0.0334
18784TIP3    H177843   4.650   1.765   4.518  0.0435  1.2605  0.2975
18784TIP3    H277844   4.524   1.809   4.591 -0.1509 -1.6550  1.8883
18785TIP3   OH277845   4.527   5.482   5.968 -0.5918 -0.2229 -0.4769
18785TIP3    H177846   4.525   5.567   6.012 -0.0376 -0.2837 -0.3275
18785TIP3    H277847   4.453   5.434   6.004  0.8798 -0.9558  1.7735
18786TIP3   OH277848   1.770   1.379  12.481 -0.3436 -0.4004  0.6459
18786TIP3    H177849   1.818   1.421  12.552 -0.3566 -0.4251  0.6689
18786TIP3    H277850   1.838   1.358  12.416 -0.4587  0.5808  0.1796
18787TIP3   OH277851   6.384   3.195  16.464 -0.7658  0.2983  0.1309
18787TIP3    H177852   6.344   3.165  16.546  0.3904 -0.2487  0.5169
18787TIP3    H277853   6.465   3.144  16.457 -1.2385 -0.2430 -1.7682
18788TIP3   OH277854   6.670   1.192   2.690 -0.0092  0.4739  0.4511
18788TIP3    H177855   6.579   1.163   2.695 -0.4715  1.5810 -1.0084
18788TIP3    H277856   6.671   1.277   2.733 -0.0354  1.1846 -0.8784
18789TIP3   OH277857   4.823   3.249  16.384  0.7827 -0.2989 -0.5704
18789TIP3    H177858   4.815   3.318  16.450 -2.1888  1.3880 -2.4438
18789TIP3    H277859   4.907   3.207  16.403  1.4522  2.0055  2.3730
18790TIP3   OH277860   3.341   5.795   2.306 -0.0898 -0.0944 -0.1272
18790TIP3    H177861   3.422   5.816   2.352 -0.0541  1.3771 -0.7909
18790TIP3    H277862   3.300   5.726   2.358 -1.2042  3.0184  3.5104
18791TIP3   OH277863   2.603   2.549   4.207 -0.5378  0.3610  0.3745
18791TIP3    H177864   2.604   2.454   4.207  0.7106  0.3616 -0.1177
18791TIP3    H277865   2.574   2.574   4.295 -0.9863 -0.4588  0.4636
18792TIP3   OH277866   6.113   6.476   2.219 -0.3954  0.3113 -0.0596
18792TIP3    H177867   6.028   6.520   2.226 -0.2265  0.4685  1.3735
18792TIP3    H277868   6.176   6.539   2.255  0.1486 -0.2670  0.0209
18793TIP3   OH277869   0.583   1.750  15.543  0.0294  0.5057 -0.0426
18793TIP3    H177870   0.624   1.819  15.596  1.2046  0.1175 -0.4271
18793TIP3    H277871   0.644   1.736  15.471 -0.0665 -1.1248  0.1668
18794TIP3   OH277872   2.280   1.115  14.433 -0.3302 -0.3528  0.7402
18794TIP3    H177873   2.280   1.053  14.360 -1.9316  0.2655  0.1649
18794TIP3    H277874   2.221   1.185  14.405 -0.1878  0.4024  2.2180
18795TIP3   OH277875   6.474   2.294   4.269  0.3946  0.6599  0.1099
18795TIP3    H177876   6.421   2.219   4.241  0.2736 -0.0633  2.0977
18795TIP3    H277877   6.563   2.258   4.278  0.3617  0.7650  0.9341
18796TIP3   OH277878   2.060   1.551   3.868 -0.2946  0.2773  0.4220
18796TIP3    H177879   2.069   1.620   3.803  0.5745 -0.3908 -0.2035
18796TIP3    H277880   2.105   1.584   3.946  1.1623 -0.0050 -0.2485
18797TIP3   OH277881   3.294   1.305   2.871 -0.3664 -0.6286 -0.2418
18797TIP3    H177882   3.233   1.330   2.940 -0.4229 -1.7033  0.1228
18797TIP3    H277883   3.258   1.343   2.791  0.3136  1.6201  0.4625
18798TIP3   OH277884   0.690   0.674   3.659  0.5073  0.0049  0.1049
18798TIP3    H177885   0.687   0.709   3.569  2.0915 -0.7263 -0.2623
18798TIP3    H277886   0.759   0.607   3.657  1.7716  1.1082  2.2393
18799TIP3   OH277887   3.602   2.335   4.589 -0.2968 -0.0123  0.8388
18799TIP3    H177888   3.645   2.302   4.667  0.5240  2.0582  1.3388
18799TIP3    H277889   3.512   2.353   4.616  0.2958  1.8891  1.7591
18800TIP3   OH277890   1.747   6.156   4.555 -0.0188 -0.4487  0.0329
18800TIP3    H177891   1.790   6.110   4.627  1.5900  1.1744  0.1870
18800TIP3    H277892   1.811   6.221   4.527 -0.8222 -0.6393 -2.4956
18801TIP3   OH277893   4.961   0.609   4.743  0.5701 -0.1642  0.1320
18801TIP3    H177894   4.986   0.565   4.662  0.3802 -1.1960  0.6145
18801TIP3    H277895   4.910   0.543   4.791 -2.3935  1.5242 -0.4246
18802TIP3   OH277896   0.331   5.175  14.613  0.3026 -0.5336 -0.7542
18802TIP3    H177897   0.290   5.168  14.526 -3.3641 -0.2147  0.7386
18802TIP3    H277898   0.315   5.266  14.640  2.0875 -0.4028 -0.0024
18803TIP3   OH277899   2.761   5.934   3.461 -0.1047  0.0326 -0.7566
18803TIP3    H177900   2.703   5.858   3.465 -0.1019 -0.0283 -1.6141
18803TIP3    H277901   2.743   5.974   3.376 -0.0816  0.9833 -0.3250
18804TIP3   OH277902   2.583   0.498   0.750 -0.7784 -0.2420 -0.1666
18804TIP3    H177903   2.538   0.582   0.745 -0.4204 -0.0158  0.2779
18804TIP3    H277904   2.513   0.434   0.763 -0.8984  0.3290  2.9813
18805TIP3   OH277905   5.584   5.020  15.890  0.4878  0.0020  0.1788
18805TIP3    H177906   5.656   4.997  15.831  0.2535 -0.4966  0.0763
18805TIP3    H277907   5.561   4.937  15.933  2.1166  0.7388  2.6584
18806TIP3   OH277908   2.579   5.686   5.673 -0.5482 -0.0827 -0.2559
18806TIP3    H177909   2.558   5.703   5.765 -0.3119  2.8326 -0.6440
18806TIP3    H277910   2.577   5.591   5.665 -2.2771 -0.3689  2.3556
18807TIP3   OH277911   4.660   2.752  14.531  0.1581  0.0467  0.5054
18807TIP3    H177912   4.687   2.720  14.445 -0.1434  1.9239 -0.3439
18807TIP3    H277913   4.566   2.740  14.533 -0.1552  1.9654 -0.3695
18808TIP3   OH277914   1.264   4.291   5.511 -0.2163 -0.7178  0.2503
18808TIP3    H177915   1.292   4.362   5.454 -3.0744 -1.0721 -1.8537
18808TIP3    H277916   1.317   4.216   5.484 -0.6975 -0.5794 -1.1681
18809TIP3   OH277917   0.122   0.577   0.501 -0.3455  0.3842  0.6332
18809TIP3    H177918   0.104   0.603   0.410 -1.5583 -0.6560  0.5368
18809TIP3    H277919   0.212   0.545   0.499 -0.0835  1.1097 -0.0202
18810TIP3   OH277920   3.936   5.431   5.171 -0.1266  0.2000 -0.1614
18810TIP3    H177921   3.946   5.374   5.247  0.8555 -1.5573 -1.5346
18810TIP3    H277922   3.842   5.449   5.167 -0.6902 -2.4817 -0.4591
18811TIP3   OH277923   6.205   4.225   1.040 -0.0421  0.0405 -0.2320
18811TIP3    H177924   6.287   4.177   1.053 -0.1185 -0.6269 -1.9616
18811TIP3    H277925   6.233   4.314   1.018  0.2685 -0.3649 -1.5536
18812TIP3   OH277926   6.094   2.607  16.248  0.4039 -0.0019  0.5370
18812TIP3    H177927   6.152   2.570  16.314  2.0769  0.8453 -0.3738
18812TIP3    H277928   6.146   2.677  16.207 -1.2504  0.7530 -0.3898
18813TIP3   OH277929   0.342   4.219  11.234 -0.3873 -0.1134  0.6889
18813TIP3    H177930   0.347   4.277  11.158 -0.1818  2.8226  2.7984
18813TIP3    H277931   0.265   4.164  11.217  0.6786 -0.8937 -2.4079
18814TIP3   OH277932   3.924   4.574   0.319 -0.0535 -0.0480 -0.2071
18814TIP3    H177933   3.876   4.587   0.401 -0.6731  1.0231 -0.7148
18814TIP3    H277934   4.005   4.625   0.330 -1.0927  1.9096 -1.0210
18815TIP3   OH277935   0.996   0.627  14.349 -0.1088 -0.2264 -0.1338
18815TIP3    H177936   0.986   0.722  14.354 -1.0855 -0.1601 -2.2673
18815TIP3    H277937   1.091   0.613  14.346  0.0416  0.6817  0.0801
18816TIP3   OH277938   2.802   0.575   0.953 -0.4134 -0.7272  0.4713
18816TIP3    H177939   2.770   0.485   0.950 -1.3271 -0.3893 -0.7412
18816TIP3    H277940   2.785   0.609   0.865  0.0172  0.6026  0.8810
18817TIP3   OH277941   6.760   3.228  15.602 -0.1427  0.8634  0.8788
18817TIP3    H177942   6.790   3.302  15.549  2.1281  0.0787  0.9400
18817TIP3    H277943   6.820   3.157  15.579 -0.6446 -0.2096  2.6902
18818TIP3   OH277944   1.384   4.502  12.223  0.1043 -0.6380 -0.1272
18818TIP3    H177945   1.369   4.582  12.274 -1.5898 -1.4680  0.7446
18818TIP3    H277946   1.317   4.504  12.154 -0.7795 -1.8692  0.6475
18819TIP3   OH277947   3.143   1.833  12.429 -0.1981  0.2946 -0.3645
18819TIP3    H177948   3.049   1.847  12.420 -0.5293 -0.9372  0.8478
18819TIP3    H277949   3.158   1.747  12.391  0.5429  0.6865 -0.9981
18820TIP3   OH277950   0.283   0.669   6.250  0.5326  0.5638 -0.8036
18820TIP3    H177951   0.285   0.618   6.331 -0.5286 -2.9396 -2.7754
18820TIP3    H277952   0.375   0.684   6.228  0.9541 -1.6956 -0.7638
18821TIP3   OH277953   1.042   3.826  14.918  0.0633  0.6032  0.3675
18821TIP3    H177954   1.127   3.870  14.905  0.8920 -1.0396 -0.0189
18821TIP3    H277955   1.050   3.784  15.003  0.1132 -0.5449 -0.1882
18822TIP3   OH277956   4.741   2.594  16.596  0.1858  0.5391  0.5378
18822TIP3    H177957   4.692   2.669  16.562 -0.5467  0.3130  1.0758
18822TIP3    H277958   4.816   2.632  16.640  0.6720  0.8781 -0.5357
18823TIP3   OH277959   4.629   1.060   5.367 -0.1527  0.1853 -0.1592
18823TIP3    H177960   4.579   0.981   5.387  0.1250  0.2798  0.9966
18823TIP3    H277961   4.564   1.130   5.371 -0.0622  0.2333  0.7302
18824TIP3   OH277962   5.535   2.898  15.442  0.5175 -0.2192  0.3321
18824TIP3    H177963   5.550   2.809  15.474  0.1973 -1.1233 -1.8015
18824TIP3    H277964   5.623   2.933  15.426  0.6356 -0.4300  0.5229
18825TIP3   OH277965   0.433   6.350  14.906 -0.1206  0.3488 -0.4045
18825TIP3    H177966   0.483   6.389  14.835 -0.2033 -0.6536 -1.0266
18825TIP3    H277967   0.484   6.370  14.985  1.7676 -1.4117 -1.1099
18826TIP3   OH277968   4.600   5.194   2.594 -0.0276  0.1369  0.0823
18826TIP3    H177969   4.596   5.102   2.568 -0.2945  0.2366 -0.2445
18826TIP3    H277970   4.602   5.242   2.511 -0.6766  0.4534  0.2402
18827TIP3   OH277971   2.802   4.124   0.019 -0.1267 -0.3526  0.3890
18827TIP3    H177972   2.821   4.146   0.110 -1.1610 -1.3054  0.8610
18827TIP3    H277973   2.731   4.060   0.024  0.3161 -1.0074 -1.0547
18828TIP3   OH277974   5.027   6.113   0.844  0.5208 -0.2263  0.3622
18828TIP3    H177975   5.023   6.208   0.847 -0.0985 -0.2728  1.2663
18828TIP3    H277976   4.942   6.085   0.810  1.4941 -0.3973 -2.0996
18829TIP3   OH277977   1.694   1.058  12.643 -0.2123 -0.2105  0.7813
18829TIP3    H177978   1.682   1.140  12.595  0.2173  0.1377  1.2530
18829TIP3    H277979   1.707   0.992  12.575 -2.5384 -0.2698  0.2878
18830TIP3   OH277980   2.295   1.559  15.644 -0.2731  0.2890 -0.7601
18830TIP3    H177981   2.218   1.604  15.677 -1.2507 -0.5463 -1.8067
18830TIP3    H277982   2.311   1.489  15.707  1.2226  1.9697  0.8453
18831TIP3   OH277983   3.143   4.896  13.475  0.2149 -0.3884 -0.3014
18831TIP3    H177984   3.131   4.991  13.467  1.5832 -0.1028  0.7283
18831TIP3    H277985   3.055   4.860  13.464 -0.5256  1.0829  0.5135
18832TIP3   OH277986   2.776   1.944   0.201 -0.0321 -0.0937  0.1546
18832TIP3    H177987   2.763   1.855   0.167  1.6000 -0.6025  0.7494
18832TIP3    H277988   2.834   1.986   0.138  0.9262 -0.1913  0.9377
18833TIP3   OH277989   5.872   1.482  15.707 -0.0958  0.1950 -0.0025
18833TIP3    H177990   5.960   1.468  15.743 -0.7445 -1.0452  1.2161
18833TIP3    H277991   5.826   1.531  15.775 -0.2821  1.0949 -0.7594
18834TIP3   OH277992   2.454   3.967   3.256  0.1956  0.7851  0.2730
18834TIP3    H177993   2.448   3.907   3.330  1.4958  0.3656  0.0633
18834TIP3    H277994   2.401   3.926   3.187 -1.5624  1.5004  1.1354
18835TIP3   OH277995   3.968   6.018  14.393 -0.1560  0.0287 -0.3664
18835TIP3    H177996   4.024   6.049  14.464 -1.9469  3.7151 -0.3286
18835TIP3    H277997   4.017   6.038  14.314 -0.0412  0.1268 -0.2708
18836TIP3   OH277998   6.221   0.549  15.575 -0.4043 -0.5416  0.0455
18836TIP3    H177999   6.153   0.510  15.520 -0.1749 -0.4472 -0.3060
18836TIP3    H278000   6.173   0.611  15.632 -0.3133  1.6156 -2.0714
18837TIP3   OH278001   5.389   6.762  14.240  0.2587  0.1084  0.3763
18837TIP3    H178002   5.330   6.837  14.239 -1.1585 -0.9577  0.8493
18837TIP3    H278003   5.379   6.723  14.153  0.4791  0.0616  0.3702
18838TIP3   OH278004   2.942   1.945  11.077 -0.6829 -0.1004  0.3484
18838TIP3    H178005   2.973   1.984  10.996 -0.4325  0.3702  0.6657
18838TIP3    H278006   3.001   1.979  11.145 -0.5199 -0.9571  0.6492
18839TIP3   OH278007   0.216   0.121  12.515 -0.5568  0.5508  0.0336
18839TIP3    H178008   0.145   0.064  12.483  0.7315 -0.3965 -1.2678
18839TIP3    H278009   0.237   0.177  12.441 -0.6405  1.5760  0.7627
18840TIP3   OH278010   4.996   1.765  16.990  0.7215  0.4076  0.4273
18840TIP3    H178011   4.909   1.723  16.995  0.5477  0.7368  0.2011
18840TIP3    H278012   4.996   1.807  16.904  0.6324  1.4565  0.9357
18841TIP3   OH278013   6.343   3.644   0.772  0.0741  0.2217  0.2396
18841TIP3    H178014   6.391   3.710   0.722  1.8423  0.2259  1.8505
18841TIP3    H278015   6.268   3.623   0.717  0.8786  1.6445 -1.5069
18842TIP3   OH278016   1.298   4.142  10.429  0.2274 -0.5988 -0.4091
18842TIP3    H178017   1.268   4.150  10.520 -0.8153 -3.3069 -0.4561
18842TIP3    H278018   1.317   4.049  10.417  3.5626  0.1098 -2.0452
18843TIP3   OH278019   4.340   1.376  12.930  0.0234  0.1284  0.1479
18843TIP3    H178020   4.249   1.366  12.901 -0.4273  0.4622  1.3552
18843TIP3    H278021   4.342   1.334  13.016  1.4112 -1.2440 -0.4984
18844TIP3   OH278022   0.077   3.123  16.622  0.2827 -0.0952  0.6840
18844TIP3    H178023   0.053   3.100  16.532 -0.4880  0.7179  0.6771
18844TIP3    H278024   0.119   3.044  16.656 -0.0387 -0.6433 -0.1617
18845TIP3   OH278025   2.597   4.761  12.922 -0.1964 -0.2488  0.0523
18845TIP3    H178026   2.629   4.673  12.902 -1.6007 -0.4516 -1.5863
18845TIP3    H278027   2.577   4.799  12.836 -2.4593  0.5457  0.8536
18846TIP3   OH278028   6.398   3.689   2.362  0.4187  0.7149  0.1813
18846TIP3    H178029   6.430   3.757   2.302  0.2685  1.4533  0.9086
18846TIP3    H278030   6.468   3.680   2.427  1.3845 -1.3565 -1.0333
18847TIP3   OH278031   0.354   3.935   1.809  0.3355  0.5518 -0.1184
18847TIP3    H178032   0.367   3.914   1.901 -1.1014  0.7339  0.1440
18847TIP3    H278033   0.347   4.030   1.807  0.9799  0.5954 -0.5078
18848TIP3   OH278034   5.542   3.372  14.453 -0.0552  0.2614  0.1142
18848TIP3    H178035   5.565   3.403  14.540 -0.3705 -0.8491  0.6050
18848TIP3    H278036   5.570   3.281  14.451  1.6924  0.7757 -1.6301
18849TIP3   OH278037   0.683   0.393   4.907 -0.1377 -0.6343 -0.2080
18849TIP3    H178038   0.641   0.329   4.964  1.0591  0.1427  1.6471
18849TIP3    H278039   0.632   0.473   4.918 -0.6755 -0.8182 -1.2680
18850TIP3   OH278040   5.257   0.836  15.898 -0.2124 -0.3124  0.0584
18850TIP3    H178041   5.273   0.916  15.848 -0.8052  0.1282  0.5563
18850TIP3    H278042   5.331   0.830  15.959 -0.1328 -0.1797 -0.0247
18851TIP3   OH278043   4.379   4.348   6.329  0.1014 -0.4211 -0.3533
18851TIP3    H178044   4.435   4.294   6.274  0.2756  1.3544 -2.0214
18851TIP3    H278045   4.365   4.428   6.278  2.9887  2.8935  3.3898
18852TIP3   OH278046   1.339   3.704   4.345  0.0097  0.1842  0.4603
18852TIP3    H178047   1.244   3.703   4.352 -0.1221 -1.3240 -0.9203
18852TIP3    H278048   1.369   3.674   4.431 -0.9332 -2.8353 -0.1421
18853TIP3   OH278049   6.823   4.404   1.151  0.4584  0.7480  0.0183
18853TIP3    H178050   6.916   4.426   1.153  1.3331 -2.4367  0.7799
18853TIP3    H278051   6.822   4.309   1.139 -2.7320  0.6639  0.1806
18854TIP3   OH278052   1.520   4.330  11.857  1.0425  0.3871 -0.2950
18854TIP3    H178053   1.434   4.299  11.831  0.0428  2.5470  0.2117
18854TIP3    H278054   1.534   4.292  11.944  0.5369  0.1729 -0.3059
18855TIP3   OH278055   3.423   0.677  10.594 -0.4187  0.1011  0.2163
18855TIP3    H178056   3.518   0.685  10.588 -0.4009  0.7889  1.1916
18855TIP3    H278057   3.389   0.761  10.561 -0.5557  1.0258  2.5594
18856TIP3   OH278058   3.454   4.751  15.809 -0.2089  0.5119  0.4855
18856TIP3    H178059   3.475   4.658  15.801 -0.2438  0.4769  0.7755
18856TIP3    H278060   3.363   4.753  15.839 -1.3181  0.6855 -2.5908
18857TIP3   OH278061   2.064   2.062   4.991 -0.0573 -0.1301 -0.6885
18857TIP3    H178062   2.069   1.966   4.991 -3.3552 -0.4482  1.4830
18857TIP3    H278063   2.123   2.090   5.061 -0.7778 -0.7805  0.1931
18858TIP3   OH278064   3.806   3.601  16.191 -0.3326  0.2531 -0.7059
18858TIP3    H178065   3.759   3.681  16.216 -0.3153 -0.2597  1.0940
18858TIP3    H278066   3.897   3.618  16.215 -0.2081 -0.0663 -0.9398
18859TIP3   OH278067   4.853   3.245   2.902 -0.0483  0.2797 -0.4208
18859TIP3    H178068   4.870   3.152   2.917 -0.0706  0.0759 -1.5483
18859TIP3    H278069   4.772   3.247   2.851 -1.7876  1.0855  2.1737
18860TIP3   OH278070   6.269   2.417   6.138 -0.5567 -0.4284 -0.2748
18860TIP3    H178071   6.220   2.382   6.212 -2.2224 -0.1512 -1.2134
18860TIP3    H278072   6.347   2.362   6.133 -0.0755 -0.0790  2.0341
18861TIP3   OH278073   2.026   3.018   3.701  0.1452  0.1679  0.3534
18861TIP3    H178074   1.955   2.981   3.649  0.3311 -1.4764  1.2143
18861TIP3    H278075   2.103   3.011   3.646 -0.2107  1.3820 -0.3420
18862TIP3   OH278076   3.250   0.969  14.451 -0.0710  0.0231 -0.1690
18862TIP3    H178077   3.213   0.882  14.469 -0.7327  0.5675  1.2484
18862TIP3    H278078   3.194   1.029  14.500  1.1928  1.1337 -0.0380
18863TIP3   OH278079   4.884   0.617   4.317  0.0892 -0.0087  0.6819
18863TIP3    H178080   4.949   0.599   4.385  1.4489 -0.3224 -0.6450
18863TIP3    H278081   4.936   0.646   4.242 -1.0670 -2.5767 -1.2460
18864TIP3   OH278082   4.807   5.089   5.669 -0.5210 -0.1203  0.3061
18864TIP3    H178083   4.795   5.184   5.673  0.8117  0.0539  1.1965
18864TIP3    H278084   4.719   5.053   5.675 -0.9246  1.0297  2.4067
18865TIP3   OH278085   1.471   0.800   1.682  0.6755 -0.4792  0.0801
18865TIP3    H178086   1.481   0.891   1.708 -0.7372 -0.7734  1.8008
18865TIP3    H278087   1.441   0.804   1.591 -0.2290  0.8150  0.4171
18866TIP3   OH278088   4.204   4.533  16.740 -0.3263  0.3857 -0.2027
18866TIP3    H178089   4.286   4.491  16.714  0.4579 -0.0265  2.5467
18866TIP3    H278090   4.135   4.472  16.711  0.2570  0.7851 -2.6275
18867TIP3   OH278091   0.737   0.081   4.845  0.8444  0.5400  0.2598
18867TIP3    H178092   0.690  -0.002   4.852  0.2870  0.7520 -0.7358
18867TIP3    H278093   0.759   0.088   4.752  1.4145  1.2238  0.4359
18868TIP3   OH278094   5.282   0.653   2.138  0.3466 -0.1215 -0.3318
18868TIP3    H178095   5.201   0.611   2.168  0.4147 -0.1992 -0.2539
18868TIP3    H278096   5.263   0.681   2.049 -0.4803  1.7685  0.3961
18869TIP3   OH278097   2.669   5.726  14.706  0.2485 -0.3842  0.4624
18869TIP3    H178098   2.734   5.738  14.775  2.4768 -0.0560 -1.5900
18869TIP3    H278099   2.663   5.811  14.663 -0.8561 -0.6692  0.0195
18870TIP3   OH278100   3.459   3.907  14.107  0.3931  0.4382 -0.3024
18870TIP3    H178101   3.523   3.836  14.101  0.0776  0.0394  0.6763
18870TIP3    H278102   3.418   3.894  14.193 -1.2134  0.4896 -1.0156
18871TIP3   OH278103   5.988   1.193  15.341  0.3357 -0.4439  0.1338
18871TIP3    H178104   5.915   1.160  15.393 -0.7880  0.9158 -0.5264
18871TIP3    H278105   5.961   1.178  15.250 -0.0497  1.8351 -0.1764
18872TIP3   OH278106   4.584   5.821  13.888  0.0990 -0.1374 -0.1630
18872TIP3    H178107   4.596   5.726  13.887 -0.1111 -0.1649 -0.0394
18872TIP3    H278108   4.599   5.846  13.980  1.3089  0.0954 -0.4041
18873TIP3   OH278109   1.549   1.736   4.876 -0.2858  0.0819  0.6767
18873TIP3    H178110   1.506   1.714   4.959  0.2324  1.0275  1.2084
18873TIP3    H278111   1.536   1.830   4.866  0.0051  0.0471 -0.1246
18874TIP3   OH278112   4.336   0.542  15.880 -0.5173 -0.1899 -0.0554
18874TIP3    H178113   4.273   0.608  15.908 -1.4121  1.2599 -4.5436
18874TIP3    H278114   4.421   0.585  15.884 -0.5692 -0.1454  0.6205
18875TIP3   OH278115   3.049   2.976  14.163  0.3787 -0.6885 -0.1777
18875TIP3    H178116   2.974   2.933  14.123  0.6057 -1.7787  0.5202
18875TIP3    H278117   3.111   2.988  14.091 -0.8449  1.2139 -0.9952
18876TIP3   OH278118   2.675   6.234   0.431  0.4339 -0.0882 -0.2803
18876TIP3    H178119   2.626   6.299   0.482  1.2843 -0.0551  0.5275
18876TIP3    H278120   2.759   6.227   0.475  0.4526 -1.5845 -0.4735
18877TIP3   OH278121   0.792   0.190  14.017 -0.2093 -0.3306  0.4716
18877TIP3    H178122   0.806   0.098  13.995  1.0626 -0.1041  0.2575
18877TIP3    H278123   0.720   0.217  13.959  1.0136 -0.5735 -1.2579
18878TIP3   OH278124   3.772   5.821  14.371 -0.4393  0.2139 -0.0599
18878TIP3    H178125   3.784   5.773  14.289  1.2206 -2.3948  1.5386
18878TIP3    H278126   3.823   5.901  14.360  0.6449 -0.6025 -1.2251
18879TIP3   OH278127   3.171   0.257  14.292  0.7445  0.3882 -0.0890
18879TIP3    H178128   3.139   0.189  14.352 -0.4190  2.6886  2.0847
18879TIP3    H278129   3.117   0.245  14.213 -0.1232 -0.5756  0.6128
18880TIP3   OH278130   0.838   2.788   4.929 -1.0242 -0.5651 -0.5379
18880TIP3    H178131   0.770   2.852   4.948  0.1744  0.7463 -0.5254
18880TIP3    H278132   0.919   2.832   4.953 -0.1909 -2.2523 -0.1246
18881TIP3   OH278133   4.884   6.373   2.093  0.2821  0.6762  0.2585
18881TIP3    H178134   4.825   6.385   2.018  1.5314  0.7116 -0.7617
18881TIP3    H278135   4.891   6.460   2.132 -0.8446  0.5387  0.8013
18882TIP3   OH278136   3.812   3.019  15.434  0.5262  0.1108 -0.0611
18882TIP3    H178137   3.905   3.034  15.452  0.0678  2.4438  0.6259
18882TIP3    H278138   3.767   3.043  15.515 -0.9348  2.9989 -1.5478
18883TIP3   OH278139   6.162   1.355  16.395 -0.1712 -0.2229 -0.4202
18883TIP3    H178140   6.117   1.365  16.479 -0.9975  1.1158 -1.0032
18883TIP3    H278141   6.192   1.443  16.372 -0.7804 -0.3937 -1.9853
18884TIP3   OH278142   1.487   4.627  11.861  0.0487  0.3588 -0.2856
18884TIP3    H178143   1.411   4.621  11.919  0.6367 -1.3571  0.3602
18884TIP3    H278144   1.508   4.536  11.839  1.2001  0.8671 -1.4086
18885TIP3   OH278145   1.425   1.327   6.695  0.1000 -0.5363  0.0729
18885TIP3    H178146   1.374   1.252   6.665 -0.0206 -0.3013 -0.3271
18885TIP3    H278147   1.359   1.393   6.717  0.2056 -0.5290  0.3656
18886TIP3   OH278148   5.110   1.564   5.641  0.3060 -0.1248 -0.0451
18886TIP3    H178149   5.076   1.506   5.709  0.8135  1.0009  1.1924
18886TIP3    H278150   5.035   1.617   5.614 -0.1430 -1.2608 -1.1327
18887TIP3   OH278151   5.623   1.575  15.397  0.3437  0.5022 -0.1594
18887TIP3    H178152   5.584   1.529  15.323  0.8738 -0.2938  0.0435
18887TIP3    H278153   5.588   1.664  15.390 -1.3869 -0.1225 -0.0690
18888TIP3   OH278154   2.760   5.258   6.354  0.0665  0.1779 -0.7938
18888TIP3    H178155   2.776   5.236   6.262  2.5636 -1.8595  0.0210
18888TIP3    H278156   2.838   5.305   6.382  0.5610 -1.5532  0.9108
18889TIP3   OH278157   6.554   4.542  17.004 -0.1635  0.7452  0.6933
18889TIP3    H178158   6.551   4.466  16.945  1.0507  0.8785  0.4297
18889TIP3    H278159   6.612   4.514  17.075 -0.2655  1.1840  0.9474
18890TIP3   OH278160   2.429   3.081   4.774 -0.2398 -0.0208  0.5693
18890TIP3    H178161   2.415   3.014   4.841  3.2170  1.3069  2.9199
18890TIP3    H278162   2.345   3.125   4.767 -1.3288 -1.6233  2.4191
18891TIP3   OH278163   4.334   2.469   2.798  0.0439 -0.3985 -0.2422
18891TIP3    H178164   4.292   2.489   2.715  2.2446  2.5298 -0.8357
18891TIP3    H278165   4.267   2.487   2.864 -0.5487  1.4150 -1.2459
18892TIP3   OH278166   4.935   6.339  16.903  0.5815 -0.0430 -0.5374
18892TIP3    H178167   4.897   6.287  16.832  1.1192 -0.2587 -0.6695
18892TIP3    H278168   4.879   6.416  16.909  0.7422  0.1500 -1.4356
18893TIP3   OH278169   2.685   6.661   1.350 -0.0438 -0.3282 -0.5153
18893TIP3    H178170   2.771   6.691   1.379 -0.4889  3.0704 -2.2105
18893TIP3    H278171   2.623   6.712   1.401 -0.9966 -0.7537 -1.2046
18894TIP3   OH278172   1.919   5.752  12.836 -0.7869  0.1928  0.4950
18894TIP3    H178173   1.973   5.812  12.888 -0.2629  0.1138  0.0584
18894TIP3    H278174   1.859   5.809  12.788  0.1974  0.4461 -0.4794
18895TIP3   OH278175   5.285   1.265   3.778  0.5519 -0.1043 -0.5292
18895TIP3    H178176   5.313   1.224   3.860  0.8006  2.4821  0.7948
18895TIP3    H278177   5.300   1.199   3.711 -0.3977 -2.6261  1.5791
18896TIP3   OH278178   4.082   4.067   4.363 -0.6078  0.0167  0.3805
18896TIP3    H178179   4.046   4.104   4.444 -0.8186  2.1031 -0.5760
18896TIP3    H278180   4.008   4.021   4.323 -1.1716  0.9272  0.3201
18897TIP3   OH278181   2.735   2.576   0.592  0.0137  0.2477 -0.6017
18897TIP3    H178182   2.807   2.587   0.531 -0.6052  3.1531 -0.9332
18897TIP3    H278183   2.777   2.572   0.678  0.6265  0.7832 -0.8722
18898TIP3   OH278184   0.861   4.272  14.318  0.1516  0.1456  0.2701
18898TIP3    H178185   0.845   4.347  14.375 -1.4810  0.7051 -0.8235
18898TIP3    H278186   0.936   4.227  14.356  0.8178  2.0234  1.2677
18899TIP3   OH278187   1.750   2.944  12.402 -0.3026  0.0578  0.1793
18899TIP3    H178188   1.669   2.988  12.426 -0.3931  0.2562 -0.4762
18899TIP3    H278189   1.788   2.915  12.486 -1.0923 -0.1256  0.4795
18900TIP3   OH278190   2.215   4.007   4.857  0.0262 -0.3838  0.1448
18900TIP3    H178191   2.255   3.962   4.782 -0.1604 -1.5776  0.7484
18900TIP3    H278192   2.182   3.937   4.912 -2.7494  0.5206 -0.2140
18901TIP3   OH278193   4.949   0.788   2.819  0.6650 -0.0285 -0.0466
18901TIP3    H178194   4.855   0.777   2.802  0.8528 -1.8804 -0.0808
18901TIP3    H278195   4.982   0.836   2.743 -0.1342  0.0819 -0.3377
18902TIP3   OH278196   4.896   6.463   5.148  0.5915 -0.3011 -0.1551
18902TIP3    H178197   4.842   6.473   5.070  1.8343  1.1294 -0.8866
18902TIP3    H278198   4.845   6.503   5.218  0.6902  1.0789 -0.8424
18903TIP3   OH278199   2.974   3.006   3.621  0.3158 -0.1450 -0.3026
18903TIP3    H178200   2.916   2.955   3.677  0.4078 -0.6864 -0.6919
18903TIP3    H278201   3.062   2.989   3.654  0.4215 -0.9290 -0.9623
18904TIP3   OH278202   6.585   2.654   6.527  0.3002  0.0952 -0.3015
18904TIP3    H178203   6.596   2.729   6.585  0.0649  0.4731 -0.7376
18904TIP3    H278204   6.554   2.691   6.444  1.2320 -0.3753 -0.8766
18905TIP3   OH278205   5.959   3.526  13.365 -0.4542 -0.3447 -0.2989
18905TIP3    H178206   5.878   3.519  13.314  0.2039 -3.6073 -1.1212
18905TIP3    H278207   5.997   3.609  13.337 -1.9531 -0.2624 -2.3622
18906TIP3   OH278208   0.976   0.301  14.632 -0.1018  0.2189  0.7136
18906TIP3    H178209   1.000   0.270  14.544  1.1107  1.5815  0.5342
18906TIP3    H278210   1.025   0.244  14.691 -0.4494 -0.3097  0.5062
18907TIP3   OH278211   5.564   5.694   4.474  0.0278 -0.3087 -0.1164
18907TIP3    H178212   5.623   5.713   4.546  0.2482 -0.8937 -0.1355
18907TIP3    H278213   5.572   5.768   4.415 -0.4977  0.3950  0.6755
18908TIP3   OH278214   1.081   3.531   4.557  0.3887  0.3527 -0.0950
18908TIP3    H178215   1.021   3.456   4.552 -1.6334  1.9056 -0.2700
18908TIP3    H278216   1.163   3.498   4.521 -1.1989 -1.0412 -2.7208
18909TIP3   OH278217   0.343   2.874  12.430  0.1105 -0.0266  0.2838
18909TIP3    H178218   0.256   2.837  12.443 -0.4093  0.6971 -0.9999
18909TIP3    H278219   0.355   2.876  12.335  1.3357  0.3244  0.4231
18910TIP3   OH278220   5.417   0.033  12.574 -0.0063 -0.0769 -0.5283
18910TIP3    H178221   5.408   0.103  12.638 -2.5268 -0.1691 -0.6708
18910TIP3    H278222   5.485  -0.024  12.610  1.0043  1.6158  0.3449
18911TIP3   OH278223   2.629   4.638  13.514 -0.1692 -0.4099  0.0597
18911TIP3    H178224   2.567   4.588  13.461  0.1793 -2.5560  1.5803
18911TIP3    H278225   2.584   4.653  13.597 -0.1388  1.5954 -0.2350
18912TIP3   OH278226   4.030   0.839  13.864 -0.0410 -0.2770 -0.0658
18912TIP3    H178227   4.099   0.774  13.861 -0.5900 -0.8462 -0.6858
18912TIP3    H278228   4.030   0.871  13.954 -2.4294 -4.0529  1.5090
18913TIP3   OH278229   2.515   5.306  12.189  0.3554 -0.2566  0.0411
18913TIP3    H178230   2.463   5.326  12.112 -0.6412 -1.2413  0.4333
18913TIP3    H278231   2.518   5.389  12.238 -0.6369 -0.1202 -0.1124
18914TIP3   OH278232   4.357   3.027   3.104  0.9814  0.7407  0.0645
18914TIP3    H178233   4.280   3.064   3.148 -0.0015 -0.0173 -0.9730
18914TIP3    H278234   4.324   2.993   3.022  2.0448 -1.4173  0.4520
18915TIP3   OH278235   5.613   4.665  12.244  0.4243 -0.1650 -0.1002
18915TIP3    H178236   5.623   4.753  12.208 -2.5985  0.2386 -0.2612
18915TIP3    H278237   5.627   4.606  12.170  2.3709  0.1449 -0.0119
18916TIP3   OH278238   1.913   6.463  13.306  0.8233 -0.0587  0.2339
18916TIP3    H178239   1.845   6.493  13.245  0.7100  0.4258  0.5934
18916TIP3    H278240   1.993   6.504  13.274  0.7533  0.2429  0.4465
18917TIP3   OH278241   6.115   4.256  15.748 -0.8167  0.2711  0.3292
18917TIP3    H178242   6.092   4.220  15.834 -0.2812 -1.3549 -0.1769
18917TIP3    H278243   6.099   4.184  15.686 -0.5667  1.1996 -0.8512
18918TIP3   OH278244   4.938   4.771   6.027  0.0662 -0.3764  0.4068
18918TIP3    H178245   4.952   4.850   5.977 -0.8400 -0.3375  0.1843
18918TIP3    H278246   4.985   4.702   5.979  1.1153  0.0695  0.7739
18919TIP3   OH278247   3.022   3.044  16.030 -0.2245  0.1468 -0.6424
18919TIP3    H178248   3.008   2.997  15.948 -1.3331 -0.7774  0.0526
18919TIP3    H278249   3.055   2.978  16.091  0.2025  0.7348 -0.2157
18920TIP3   OH278250   2.703   0.701  13.517 -0.4153  0.1757  0.3382
18920TIP3    H178251   2.638   0.681  13.584  1.1453 -2.2105  1.2975
18920TIP3    H278252   2.672   0.655  13.439  0.6266 -2.0779  1.1497
18921TIP3   OH278253   4.077   5.335  14.027 -0.6669  0.1370 -0.3481
18921TIP3    H178254   4.105   5.412  14.077 -0.4907 -0.1206 -0.0462
18921TIP3    H278255   4.079   5.363  13.936 -0.0101  0.3036 -0.2874
18922TIP3   OH278256   3.349   5.521  11.859  0.2227 -0.3677  0.3080
18922TIP3    H178257   3.374   5.515  11.951  0.0911 -1.1636  0.2940
18922TIP3    H278258   3.305   5.606  11.853 -0.2102 -0.5227  1.0886
18923TIP3   OH278259   6.160   6.621  12.620 -0.0190  0.7007  0.0753
18923TIP3    H178260   6.216   6.671  12.561  1.8473 -1.2803  0.0333
18923TIP3    H278261   6.132   6.546  12.568 -0.7114  0.3965  0.8618
18924TIP3   OH278262   1.066   5.427   2.493 -0.9209  0.3511  0.5532
18924TIP3    H178263   0.971   5.431   2.493 -0.8883  2.8375  0.5896
18924TIP3    H278264   1.094   5.510   2.532  1.2445  0.9467 -1.9218
18925TIP3   OH278265   4.566   4.435  11.804 -0.2424  0.1245  0.2679
18925TIP3    H178266   4.531   4.360  11.853 -2.5713  0.9426 -0.0366
18925TIP3    H278267   4.609   4.489  11.870  0.8790 -1.0850  0.5940
18926TIP3   OH278268   0.322   1.073  13.374  0.5295 -0.2392 -0.1518
18926TIP3    H178269   0.258   1.006  13.350 -1.6294  1.3062  0.9406
18926TIP3    H278270   0.402   1.023  13.392 -0.9021 -2.5228  0.4039
18927TIP3   OH278271   5.913   5.877  13.128  0.5112  0.2989 -0.2989
18927TIP3    H178272   5.972   5.866  13.203  3.3498 -1.7443 -2.6195
18927TIP3    H278273   5.866   5.794  13.122  1.2446 -0.0463 -1.4880
18928TIP3   OH278274   2.753   6.126   3.648 -0.6278  0.5874 -0.3799
18928TIP3    H178275   2.728   6.073   3.724  0.6125  0.3395 -0.1318
18928TIP3    H278276   2.774   6.062   3.580  0.4853  0.7519 -0.2059
18929TIP3   OH278277   3.928   2.532   5.639  0.1887 -0.1961 -0.3655
18929TIP3    H178278   3.928   2.615   5.591 -0.0361 -0.4115 -0.7412
18929TIP3    H278279   3.861   2.479   5.596  0.0782 -0.4448  0.0999
18930TIP3   OH278280   4.864   3.082   4.877  0.3623  0.0487  0.2608
18930TIP3    H178281   4.866   3.060   4.970 -1.5584 -1.9824 -0.0721
18930TIP3    H278282   4.783   3.132   4.866  0.0319 -0.6230 -0.4592
18931TIP3   OH278283   2.710   5.409  11.219  0.4476  0.2936  0.0506
18931TIP3    H178284   2.644   5.356  11.264  1.3438 -0.3266  0.6729
18931TIP3    H278285   2.722   5.485  11.275 -1.0450  1.3746 -0.9811
18932TIP3   OH278286   4.814   1.912   6.209  0.0070  0.2584  0.2430
18932TIP3    H178287   4.892   1.861   6.231  0.7607  0.2672 -2.0854
18932TIP3    H278288   4.848   1.987   6.159 -1.4812  0.2870 -0.7829
18933TIP3   OH278289   6.108   5.235  11.155 -0.2363  0.4762 -0.7694
18933TIP3    H178290   6.201   5.257  11.145 -0.0001  0.1510  0.5835
18933TIP3    H278291   6.074   5.237  11.065  1.0964  0.5025 -1.3043
18934TIP3   OH278292   5.697   5.386  14.481  0.0574 -0.5538  0.4235
18934TIP3    H178293   5.744   5.423  14.556 -1.2276  3.2421 -0.3915
18934TIP3    H278294   5.606   5.415  14.494 -0.5325 -1.2866 -1.7358
18935TIP3   OH278295   4.989   1.814   5.450 -0.3645 -0.0895 -0.3541
18935TIP3    H178296   4.925   1.763   5.400 -0.2971  0.5256 -1.0965
18935TIP3    H278297   4.949   1.825   5.536 -1.5223  0.7396 -0.9651
18936TIP3   OH278298   5.163   6.237   1.872  0.0819 -0.1233  0.0837
18936TIP3    H178299   5.209   6.284   1.802  1.7804 -0.9627  0.5893
18936TIP3    H278300   5.208   6.263   1.952 -1.5275  0.4399  0.8566
18937TIP3   OH278301   2.728   2.085   6.013 -0.8605  0.1613  0.4370
18937TIP3    H178302   2.811   2.078   5.966 -0.6193  0.1712  0.8475
18937TIP3    H278303   2.752   2.069   6.105 -1.5164 -1.0805  0.4034
18938TIP3   OH278304   2.903   6.729  12.354  0.1974 -0.1982  0.3472
18938TIP3    H178305   2.872   6.737  12.264  1.4475 -0.0652 -0.0906
18938TIP3    H278306   2.961   6.652  12.353 -0.6070 -0.8515  1.2915
18939TIP3   OH278307   1.693   5.876  15.251  0.6485 -0.4257  0.3011
18939TIP3    H178308   1.781   5.841  15.252  0.7733 -0.1211  1.2780
18939TIP3    H278309   1.705   5.971  15.242  0.3980 -0.4458 -0.2505
18940TIP3   OH278310   0.321   4.185  16.656 -0.2639  0.0405 -0.4486
18940TIP3    H178311   0.302   4.095  16.630 -0.5298  0.2055 -0.8420
18940TIP3    H278312   0.379   4.218  16.587 -0.4074  0.2624 -0.4651
18941TIP3   OH278313   1.209   4.783  10.659 -0.1568  0.0764  0.3193
18941TIP3    H178314   1.176   4.702  10.696  1.0426  0.1388  1.5844
18941TIP3    H278315   1.203   4.770  10.564 -3.2496 -0.0911  0.4430
18942TIP3   OH278316   5.481   3.061  15.007  0.1888  0.1837 -0.5354
18942TIP3    H178317   5.575   3.058  14.991  0.0418 -1.5319 -1.3382
18942TIP3    H278318   5.472   3.096  15.095  1.5128  1.4281 -0.8629
18943TIP3   OH278319   1.717   1.772   0.390 -0.3002  0.0005  0.2498
18943TIP3    H178320   1.684   1.765   0.479  0.3899  0.2964  0.5359
18943TIP3    H278321   1.797   1.720   0.390  0.7875  1.6094  0.3548
18944TIP3   OH278322   3.618   2.362   2.711  0.0310  0.0087 -0.2814
18944TIP3    H178323   3.639   2.380   2.620  1.6128 -2.8378 -0.5935
18944TIP3    H278324   3.702   2.344   2.752 -0.4808  2.4554  2.1616
18945TIP3   OH278325   0.689   2.167  13.594  0.6548  0.3857  0.4015
18945TIP3    H178326   0.738   2.113  13.532 -0.3184 -1.7169  1.3343
18945TIP3    H278327   0.753   2.193  13.659  1.4612  1.7084 -0.8687
18946TIP3   OH278328   6.095   3.284   3.342  0.8189 -0.1254 -0.1248
18946TIP3    H178329   6.036   3.294   3.416 -0.2753  1.2842 -1.1346
18946TIP3    H278330   6.148   3.363   3.341 -0.3485  0.6950 -1.7922
18947TIP3   OH278331   4.400   6.430   2.628 -0.8259  0.2591  0.3421
18947TIP3    H178332   4.491   6.400   2.619 -0.9185 -0.8400  2.5270
18947TIP3    H278333   4.354   6.386   2.557  0.4304  1.3638 -1.2327
18948TIP3   OH278334   4.429   0.791  16.302  0.1006 -0.2698 -0.0867
18948TIP3    H178335   4.437   0.868  16.359  1.6142 -1.2893  1.1807
18948TIP3    H278336   4.409   0.719  16.362 -0.5586 -1.0004 -1.1562
18949TIP3   OH278337   0.910   1.337   0.986  0.2618 -0.6363 -0.1972
18949TIP3    H178338   0.982   1.316   1.045 -1.7070 -1.3185  2.1548
18949TIP3    H278339   0.889   1.428   1.005 -0.6372 -0.9746  0.5153
18950TIP3   OH278340   6.752   1.373   3.828  0.1164  0.0882 -0.1016
18950TIP3    H178341   6.677   1.421   3.863 -0.6591  0.3066 -1.9940
18950TIP3    H278342   6.728   1.352   3.738  1.6641 -1.2797 -0.2402
18951TIP3   OH278343   3.968   1.018  13.383  0.3168  0.8510  0.3656
18951TIP3    H178344   4.044   0.971  13.350  0.3633  0.8701  0.4454
18951TIP3    H278345   3.973   1.010  13.478 -1.2393 -1.4521  0.3302
18952TIP3   OH278346   6.376   0.988   2.162 -0.7815  0.3774 -0.8258
18952TIP3    H178347   6.323   1.048   2.110 -2.2463 -0.3082 -0.1713
18952TIP3    H278348   6.444   0.958   2.101  0.8064  3.5882 -0.8345
18953TIP3   OH278349   2.100   2.494   1.270 -0.0548 -0.0617  0.0674
18953TIP3    H178350   2.164   2.564   1.265  0.5567 -0.6128  0.0139
18953TIP3    H278351   2.021   2.529   1.229 -0.0884  0.9451  0.9499
18954TIP3   OH278352   0.075   4.482   3.311 -0.7661  0.2450  0.2093
18954TIP3    H178353   0.061   4.516   3.400 -0.2319 -0.7338  0.6880
18954TIP3    H278354   0.004   4.521   3.259 -1.8919 -0.1942  1.3510
18955TIP3   OH278355   6.758   6.276   1.097  0.2085  0.0142  0.5425
18955TIP3    H178356   6.800   6.212   1.154 -1.5244 -2.0229 -0.3548
18955TIP3    H278357   6.737   6.228   1.017 -0.5363  1.8845 -0.4521
18956TIP3   OH278358   2.129   2.679   1.826  0.2992  0.4157 -0.2062
18956TIP3    H178359   2.127   2.773   1.808  0.4823  0.3374 -0.6664
18956TIP3    H278360   2.222   2.656   1.822  0.2721  0.2496  0.0984
18957TIP3   OH278361   4.468   3.444   1.971  0.7900  0.6122 -0.1086
18957TIP3    H178362   4.461   3.352   1.996  3.3301  0.0231 -1.1532
18957TIP3    H278363   4.390   3.461   1.918  0.8958 -1.3654 -0.9986
18958TIP3   OH278364   2.204   1.363  12.979  0.0823  0.4009 -0.5797
18958TIP3    H178365   2.153   1.391  12.903 -1.4808 -2.1570 -0.5861
18958TIP3    H278366   2.142   1.367  13.052  1.1503  1.4019  0.2995
18959TIP3   OH278367   3.113   2.385  15.092  0.5304  0.8254 -0.2115
18959TIP3    H178368   3.097   2.306  15.144 -1.0960  0.9046 -0.5253
18959TIP3    H278369   3.056   2.451  15.131 -0.1997  1.0769 -1.6256
18960TIP3   OH278370   0.211   1.505  13.202  0.1673  0.2303 -0.2024
18960TIP3    H178371   0.188   1.418  13.233 -2.1958  1.0617  0.5771
18960TIP3    H278372   0.274   1.538  13.266 -1.7301  0.4451  1.6621
18961TIP3   OH278373   0.935   4.511  10.484 -0.2381  0.7634  0.8931
18961TIP3    H178374   1.025   4.476  10.485 -0.4526 -0.0319 -1.4011
18961TIP3    H278375   0.945   4.602  10.512  0.8999  0.0265  3.1377
18962TIP3   OH278376   2.789   1.907   3.105 -0.0394  0.4815  0.2591
18962TIP3    H178377   2.747   1.934   3.187 -2.1569 -1.0160 -0.2577
18962TIP3    H278378   2.825   1.989   3.069  0.8006  1.2011  2.5363
18963TIP3   OH278379   5.483   5.602   2.804 -0.4923 -0.1918  0.1760
18963TIP3    H178380   5.452   5.516   2.775 -0.1654 -0.5239  0.8098
18963TIP3    H278381   5.537   5.584   2.880  0.8333  0.4315 -0.5801
18964TIP3   OH278382   3.677   3.996  15.838  0.2536  0.2582 -0.0695
18964TIP3    H178383   3.593   3.951  15.836  0.9358 -1.0768 -1.9306
18964TIP3    H278384   3.667   4.070  15.779 -0.1196  1.1849  1.1093
18965TIP3   OH278385   3.841   2.381   2.863  0.2998 -0.1281 -0.1936
18965TIP3    H178386   3.840   2.352   2.955  1.9497  1.0951  0.2441
18965TIP3    H278387   3.897   2.318   2.818 -1.8520 -1.7436 -0.7926
18966TIP3   OH278388   2.612   4.884  16.509 -0.4690  0.0662 -0.3728
18966TIP3    H178389   2.575   4.796  16.512 -1.3206  0.4231  0.0004
18966TIP3    H278390   2.598   4.919  16.597 -0.0769  0.5539 -0.4989
18967TIP3   OH278391   6.028   6.487  13.099 -0.4194  0.8854  0.1226
18967TIP3    H178392   6.057   6.399  13.124 -0.3003  0.8250 -0.2216
18967TIP3    H278393   5.972   6.515  13.172  0.7513  1.1322  0.9570
18968TIP3   OH278394   4.291   0.011  12.211 -0.2294 -0.7240  0.1383
18968TIP3    H178395   4.335   0.050  12.135  1.6967 -2.8026  0.0539
18968TIP3    H278396   4.229  -0.052  12.174 -0.3832 -0.6534  0.2752
18969TIP3   OH278397   5.125   1.436   1.971  0.3276  0.1413 -0.2104
18969TIP3    H178398   5.039   1.449   2.011  1.0765  1.6860  0.9792
18969TIP3    H278399   5.121   1.484   1.888 -0.2745 -0.6809 -0.6774
18970TIP3   OH278400   1.951   5.096  12.057  0.0418  0.2360 -0.2241
18970TIP3    H178401   1.977   5.037  12.128 -0.0261 -0.9929 -1.2019
18970TIP3    H278402   2.004   5.069  11.982 -1.9933 -0.4954 -1.4858
18971TIP3   OH278403   4.676   3.161   0.327 -0.2339  0.1639  0.1710
18971TIP3    H178404   4.615   3.211   0.273 -0.0089 -1.0234 -1.2311
18971TIP3    H278405   4.699   3.221   0.398 -3.1810  0.5923  0.9062
18972TIP3   OH278406   6.624   0.286  14.856  0.2682 -0.2400  0.6438
18972TIP3    H178407   6.547   0.278  14.799  1.1994 -0.5023 -0.6055
18972TIP3    H278408   6.590   0.270  14.944 -1.0662 -0.5708  0.0923
18973TIP3   OH278409   6.175   1.495   6.396  0.1787  0.4427  0.4389
18973TIP3    H178410   6.143   1.577   6.358  1.2930  0.6125 -0.1869
18973TIP3    H278411   6.096   1.445   6.416 -0.4941  1.3223  0.0474
18974TIP3   OH278412   0.883   0.902  14.438  0.0680  0.0044  0.0448
18974TIP3    H178413   0.895   0.959  14.362  0.3739  0.5246  0.4721
18974TIP3    H278414   0.807   0.939  14.484  0.0663 -0.1305  0.1519
18975TIP3   OH278415   2.567   3.738  14.984  0.0536 -0.1445 -0.1766
18975TIP3    H178416   2.660   3.750  15.003  0.1121 -1.0272  0.1303
18975TIP3    H278417   2.564   3.660  14.928 -0.4760  0.0812 -0.4680
18976TIP3   OH278418   6.808   6.671   4.258 -0.1031 -0.1965 -0.0840
18976TIP3    H178419   6.718   6.643   4.242 -0.2914  0.1792  0.2795
18976TIP3    H278420   6.830   6.726   4.182 -0.1943 -0.2577 -0.1543
18977TIP3   OH278421   6.719   0.798   2.328  0.6602 -0.4526 -0.4834
18977TIP3    H178422   6.797   0.817   2.380 -0.2175  0.4707  0.5477
18977TIP3    H278423   6.679   0.723   2.373  0.3231 -0.1671 -0.3122
18978TIP3   OH278424   0.710   2.328  14.538  0.1020 -0.0346 -0.2125
18978TIP3    H178425   0.648   2.394  14.569 -2.6867 -1.4008 -2.3813
18978TIP3    H278426   0.699   2.254  14.598 -0.3262 -0.2390 -0.5371
18979TIP3   OH278427   2.097   0.339   4.067  0.0858  0.0318  0.0107
18979TIP3    H178428   2.056   0.268   4.018  0.5666  0.6807 -1.3844
18979TIP3    H278429   2.079   0.417   4.016  2.0245  0.5128 -0.0261
18980TIP3   OH278430   2.331   4.723  11.855 -0.3822 -0.4851  0.3768
18980TIP3    H178431   2.418   4.698  11.884 -0.4100 -0.5494  0.4054
18980TIP3    H278432   2.343   4.808  11.812  0.0253 -1.4213 -1.4474
18981TIP3   OH278433   2.818   1.936  16.994  0.2578 -1.3382  0.5331
18981TIP3    H178434   2.888   1.890  17.040  0.4330 -0.4933  1.1482
18981TIP3    H278435   2.738   1.889  17.016  0.1774 -0.3543  2.6241
18982TIP3   OH278436   3.833   3.588  11.381  0.2587  0.3309  0.2559
18982TIP3    H178437   3.874   3.544  11.306  2.0823 -0.3598  1.6026
18982TIP3    H278438   3.906   3.607  11.440 -0.9214  2.3423  1.1467
18983TIP3   OH278439   1.336   0.449  11.332 -0.1706 -0.1504  0.1371
18983TIP3    H178440   1.253   0.460  11.284 -0.4053 -1.0360  0.3186
18983TIP3    H278441   1.329   0.508  11.407 -0.6720 -0.2633  0.1838
18984TIP3   OH278442   5.695   0.807   1.321 -0.1504  0.6107  0.2336
18984TIP3    H178443   5.701   0.901   1.334  1.5658  0.5980 -0.2308
18984TIP3    H278444   5.609   0.783   1.358 -0.3080  2.2233  1.0075
18985TIP3   OH278445   1.675   4.619   3.880  0.2670 -0.0513 -0.3393
18985TIP3    H178446   1.696   4.530   3.908  0.2393  0.3488  1.0283
18985TIP3    H278447   1.667   4.613   3.785  0.6653 -1.4212 -0.3089
18986TIP3   OH278448   5.972   1.654   4.675 -0.5488  0.3962 -0.4019
18986TIP3    H178449   5.946   1.740   4.709  0.7005  0.4803  0.3893
18986TIP3    H278450   6.067   1.660   4.664 -0.5034 -0.7443 -0.7615
18987TIP3   OH278451   2.409   0.816   1.246 -0.3524 -0.5013  0.0127
18987TIP3    H178452   2.468   0.889   1.265  0.8916 -1.2472 -0.8492
18987TIP3    H278453   2.458   0.760   1.187 -0.7487 -2.7781  1.7225
18988TIP3   OH278454   0.034   0.163  13.447  0.1598 -0.3680 -0.4912
18988TIP3    H178455  -0.031   0.225  13.415 -0.1146 -0.9745 -1.1363
18988TIP3    H278456   0.086   0.213  13.510 -1.1485  0.0273  0.3111
18989TIP3   OH278457   4.155   6.754   1.946  0.3275  0.4517  0.3098
18989TIP3    H178458   4.105   6.831   1.919  0.3094  0.6296  0.8383
18989TIP3    H278459   4.239   6.789   1.977  0.9357  0.1250 -0.9094
18990TIP3   OH278460   4.954   6.197   5.235  0.4934 -0.0268  0.0813
18990TIP3    H178461   4.959   6.287   5.203 -0.7880 -0.1661 -0.5771
18990TIP3    H278462   4.863   6.171   5.221  0.2277 -0.6185  2.4841
18991TIP3   OH278463   4.158   4.924  11.596 -0.4533 -0.0982 -0.1853
18991TIP3    H178464   4.115   4.978  11.530  0.3027  1.2382  0.3888
18991TIP3    H278465   4.100   4.848  11.607 -1.7448  0.7942 -0.7047
18992TIP3   OH278466   2.139   5.210   1.476  0.1210  0.2453 -0.5139
18992TIP3    H178467   2.057   5.259   1.483  0.9471  1.5675  0.4530
18992TIP3    H278468   2.115   5.120   1.498 -1.0741  0.5801 -0.3549
18993TIP3   OH278469   3.203   4.667  12.545  0.2512 -0.0155 -0.2351
18993TIP3    H178470   3.119   4.642  12.507  0.8530 -0.7704 -1.1156
18993TIP3    H278471   3.264   4.598  12.517  0.8699 -0.2901  1.6087
18994TIP3   OH278472   6.038   3.135   0.483  0.3342  0.1830 -0.3708
18994TIP3    H178473   6.064   3.227   0.496 -1.0404  0.3548  1.5582
18994TIP3    H278474   6.115   3.084   0.510 -0.0983  0.7351  2.1657
18995TIP3   OH278475   1.709   0.267   2.049  0.0312 -0.3840 -1.0905
18995TIP3    H178476   1.670   0.180   2.036  0.4579 -1.0069  1.3285
18995TIP3    H278477   1.644   0.328   2.014 -1.5810 -1.5642 -0.2656
18996TIP3   OH278478   2.236   4.430  13.039 -0.3167 -0.1502 -0.2226
18996TIP3    H178479   2.284   4.354  13.005  1.1592 -0.4872  2.3406
18996TIP3    H278480   2.305   4.491  13.066 -1.1844 -0.5607  3.4112
18997TIP3   OH278481   2.600   6.247  13.042 -0.2257 -0.0515 -0.6594
18997TIP3    H178482   2.642   6.164  13.017 -0.1782 -0.2747  0.1259
18997TIP3    H278483   2.654   6.279  13.115 -1.1794 -0.1403  0.1012
18998TIP3   OH278484   4.156   1.739   4.910  0.3435 -0.0431 -0.4646
18998TIP3    H178485   4.168   1.659   4.858 -0.2505  0.1674 -0.9448
18998TIP3    H278486   4.116   1.801   4.849 -0.8419  0.0497  0.3668
18999TIP3   OH278487   2.800   4.807   0.235 -0.3054 -0.4520  0.0470
18999TIP3    H178488   2.873   4.760   0.196  0.2762  0.8737 -0.5362
18999TIP3    H278489   2.733   4.809   0.166  0.0475  0.3778 -0.2898
19000TIP3   OH278490   0.497   3.889   0.989  0.4102  0.2676  1.1480
19000TIP3    H178491   0.568   3.952   0.978  0.2508  0.3910  0.8197
19000TIP3    H278492   0.527   3.810   0.944  0.4838  0.2042  1.3061
19001TIP3   OH278493   1.055   3.368   5.453 -0.6966  0.2766  0.0590
19001TIP3    H178494   0.978   3.323   5.488 -0.7974 -0.1970 -0.7547
19001TIP3    H278495   1.019   3.445   5.409 -0.5839  0.7883  0.8576
19002TIP3   OH278496   0.323   4.926  16.446  0.2487  0.4955 -0.5041
19002TIP3    H178497   0.257   4.990  16.420 -1.3236 -0.7866  0.1279
19002TIP3    H278498   0.407   4.970  16.432 -0.7462  2.3659 -0.8505
19003TIP3   OH278499   0.318   5.645  11.413 -0.1288 -0.5690  0.4657
19003TIP3    H178500   0.398   5.603  11.447  0.7922  0.0380 -0.8620
19003TIP3    H278501   0.348   5.693  11.336 -2.1104 -1.8924 -1.2278
19004TIP3   OH278502   3.968   2.662  15.601 -0.6508 -0.1987 -0.3341
19004TIP3    H178503   4.039   2.630  15.655 -1.7304 -3.9518 -0.8656
19004TIP3    H278504   3.926   2.730  15.654  0.9328 -0.6738  1.6292
19005TIP3   OH278505   3.454   1.772  13.895  0.6697  0.3807 -0.4833
19005TIP3    H178506   3.528   1.832  13.909 -0.5356  1.5436  1.2458
19005TIP3    H278507   3.378   1.820  13.926 -0.7041 -1.1754 -1.2977
19006TIP3   OH278508   5.527   1.744  16.771  0.7276  0.4791 -0.0409
19006TIP3    H178509   5.455   1.772  16.828  1.1771  0.7632  0.4048
19006TIP3    H278510   5.540   1.652  16.793 -0.3586  0.0621 -1.0727
19007TIP3   OH278511   5.509   1.733   5.974  0.4244 -0.1749 -0.3128
19007TIP3    H178512   5.522   1.787   6.051  0.4842  0.9514 -1.0815
19007TIP3    H278513   5.498   1.796   5.902  0.1100 -1.1833 -1.1769
19008TIP3   OH278514   3.370   0.893   5.219 -0.0807  0.3736 -0.1308
19008TIP3    H178515   3.286   0.930   5.191  1.4530  1.7556 -3.3454
19008TIP3    H278516   3.424   0.970   5.241  1.3702 -0.2480 -1.3768
19009TIP3   OH278517   6.245   4.332  12.154 -0.2299 -0.5401 -0.2571
19009TIP3    H178518   6.216   4.419  12.178  0.6992  0.1166 -1.4010
19009TIP3    H278519   6.164   4.285  12.132 -0.8421 -0.3690  1.4960
19010TIP3   OH278520   5.417   1.080  16.623  0.2039  0.1717  0.1926
19010TIP3    H178521   5.411   1.006  16.683 -0.2628  0.6513  0.7483
19010TIP3    H278522   5.328   1.116  16.620  0.6126  1.2808  0.6663
19011TIP3   OH278523   0.529   3.019   5.554  0.0103  0.4366  0.0916
19011TIP3    H178524   0.567   2.932   5.556 -0.0744  0.3482 -1.0321
19011TIP3    H278525   0.590   3.074   5.602  1.6912  0.3209 -1.7805
19012TIP3   OH278526   3.647   6.742  11.386  0.0303 -0.0616 -0.0457
19012TIP3    H178527   3.651   6.826  11.340 -1.3568  0.7829  1.3012
19012TIP3    H278528   3.719   6.745  11.449  1.6674 -1.0467 -1.7645
19013TIP3   OH278529   2.740   3.030   3.446  0.3847 -0.5030  0.0798
19013TIP3    H178530   2.689   2.970   3.501  0.6435 -0.4851  0.3450
19013TIP3    H278531   2.831   3.004   3.462  0.6663  1.2534  1.7811
19014TIP3   OH278532   6.099   6.555   1.058  0.0893 -0.5386  0.6205
19014TIP3    H178533   6.116   6.623   1.124  2.4623 -1.9442  1.5965
19014TIP3    H278534   6.086   6.475   1.109 -0.6598 -1.1884 -0.5492
19015TIP3   OH278535   6.654   4.487   5.727 -0.1207 -0.5285  1.2649
19015TIP3    H178536   6.716   4.547   5.767  1.2600 -1.5090  0.6543
19015TIP3    H278537   6.568   4.527   5.744  0.5520  0.2168  3.2213
19016TIP3   OH278538   6.169   2.453  15.376  0.4815  0.0329  0.0221
19016TIP3    H178539   6.175   2.361  15.350 -0.9809  0.2261 -1.1521
19016TIP3    H278540   6.256   2.488  15.363  0.8535 -0.9854 -0.3245
19017TIP3   OH278541   4.927   5.596  13.219  0.0224 -0.8488 -0.0816
19017TIP3    H178542   4.986   5.669  13.201  0.6977 -1.6300 -1.0768
19017TIP3    H278543   4.930   5.586  13.315  0.7394 -0.2681 -0.0374
19018TIP3   OH278544   6.345   5.720   5.726 -0.2580 -0.3677 -0.2406
19018TIP3    H178545   6.347   5.815   5.714 -0.0643 -0.2260  0.8060
19018TIP3    H278546   6.332   5.684   5.638  1.0397  0.5787 -0.8361
19019TIP3   OH278547   4.537   3.514  16.065  0.3882  0.2033  0.1131
19019TIP3    H178548   4.502   3.573  16.131 -2.2513 -1.4987  0.3909
19019TIP3    H278549   4.606   3.465  16.110  0.7795  1.2074  0.6257
19020TIP3   OH278550   4.374   2.969  11.225 -0.2153 -0.0453 -0.3602
19020TIP3    H178551   4.457   2.922  11.229  0.6559  1.4471  0.2210
19020TIP3    H278552   4.359   2.984  11.132 -0.4904 -1.3713 -0.5542
19021TIP3   OH278553   3.552   5.310  12.008 -0.2646 -1.0005 -0.7998
19021TIP3    H178554   3.636   5.264  12.007  0.7319  0.6876 -0.3649
19021TIP3    H278555   3.515   5.293  11.921  0.5253 -1.7785 -1.0093
19022TIP3   OH278556   6.536   5.840   3.038  0.4192 -0.6524  0.1868
19022TIP3    H178557   6.612   5.782   3.046  1.7231  0.8460 -0.6533
19022TIP3    H278558   6.522   5.848   2.943 -0.9563 -1.0910  0.3361
19023TIP3   OH278559   5.909   0.756   4.664 -0.7490  0.6911  0.0791
19023TIP3    H178560   5.887   0.795   4.579 -1.3004 -1.3411 -0.7837
19023TIP3    H278561   5.979   0.694   4.643 -0.1779  0.9071  1.3076
19024TIP3   OH278562   0.296   1.403   4.419  0.3501  0.0784 -0.7106
19024TIP3    H178563   0.290   1.308   4.425 -1.7439  0.2584  4.0218
19024TIP3    H278564   0.208   1.431   4.395  0.5908  0.8606 -0.7049
19025TIP3   OH278565   0.185   3.034   2.490 -0.1822 -0.5352 -0.3984
19025TIP3    H178566   0.193   2.983   2.570  0.1275 -0.9253 -0.6716
19025TIP3    H278567   0.157   2.972   2.423 -3.0020  0.2730 -0.0789
19026TIP3   OH278568   0.834   0.476   0.049 -0.0119 -0.0233 -0.1646
19026TIP3    H178569   0.866   0.544   0.108 -0.2408 -0.8241  0.9184
19026TIP3    H278570   0.870   0.499  -0.036  0.4357  1.0938  0.3060
19027TIP3   OH278571   5.431   1.812   2.087  0.1237 -0.2827 -0.0933
19027TIP3    H178572   5.477   1.825   2.005 -1.7153 -0.0159 -1.1456
19027TIP3    H278573   5.441   1.895   2.135 -0.4419  0.2951 -0.9467
19028TIP3   OH278574   3.152   6.404  14.663 -0.2685  0.6079 -0.1205
19028TIP3    H178575   3.210   6.415  14.587 -1.0019  0.6263 -0.6937
19028TIP3    H278576   3.173   6.478  14.720  0.4420  0.4736 -0.2044
19029TIP3   OH278577   1.199   3.365  12.995  0.7797 -0.1459 -0.1516
19029TIP3    H178578   1.269   3.418  13.034  1.9689 -1.4635 -0.4221
19029TIP3    H278579   1.199   3.285  13.047 -1.6949  0.4444  0.9189
19030TIP3   OH278580   0.974   1.953  16.750  0.0770 -0.2755 -0.0575
19030TIP3    H178581   0.993   1.872  16.798 -0.6562 -0.5100 -0.1467
19030TIP3    H278582   1.057   2.000  16.748  0.5721 -1.1395 -0.2182
19031TIP3   OH278583   3.246   2.123  12.779  0.6693 -0.3163  0.1786
19031TIP3    H178584   3.268   2.126  12.872 -1.3364  0.2305  0.6721
19031TIP3    H278585   3.199   2.040  12.768 -2.8469  1.4533  0.6321
19032TIP3   OH278586   3.151   3.667   1.019 -0.0762  0.1710 -0.4601
19032TIP3    H178587   3.183   3.750   0.986  0.9383 -0.0514 -0.0549
19032TIP3    H278588   3.155   3.675   1.114  0.0931 -0.3633 -0.4162
19033TIP3   OH278589   6.613   5.606  11.198  0.1558 -0.4516  0.4539
19033TIP3    H178590   6.651   5.569  11.277  1.6249 -0.6834 -0.3247
19033TIP3    H278591   6.598   5.530  11.141  1.0309 -0.0970 -0.2683
19034TIP3   OH278592   4.679   0.587  15.347  0.3026  0.8029  0.1940
19034TIP3    H178593   4.690   0.492  15.356 -1.0815  0.5603 -0.4057
19034TIP3    H278594   4.760   0.617  15.306  0.9930 -0.0267  0.9080
19035TIP3   OH278595   6.581   4.204   2.086  0.2696  0.3848 -0.4034
19035TIP3    H178596   6.533   4.272   2.039 -0.3052  1.5889  1.7664
19035TIP3    H278597   6.543   4.205   2.174  1.4304 -1.5858  0.1756
19036TIP3   OH278598   4.998   3.859   2.911 -0.3728 -0.6047 -0.4351
19036TIP3    H178599   4.919   3.807   2.915  0.5863 -2.4281 -2.9907
19036TIP3    H278600   5.069   3.797   2.928  0.6025  0.8161  0.9901
19037TIP3   OH278601   0.271   2.940   4.930  0.2402 -0.3925  0.1818
19037TIP3    H178602   0.279   2.970   5.021 -1.0197  0.6166 -0.0109
19037TIP3    H278603   0.275   3.020   4.878  0.0382 -0.8729 -0.5844
19038TIP3   OH278604   4.347   6.794   0.560  0.3684 -0.7585  0.3156
19038TIP3    H178605   4.288   6.864   0.531  0.6694  0.5532  2.6259
19038TIP3    H278606   4.294   6.715   0.555 -0.7451 -0.0149 -0.1210
19039TIP3   OH278607   2.061   0.589  16.883  0.0270 -0.3182 -0.2783
19039TIP3    H178608   2.155   0.582  16.898  0.2062 -0.7321 -1.4847
19039TIP3    H278609   2.052   0.592  16.788 -1.1373  0.4583 -0.1637
19040TIP3   OH278610   5.875   2.009   0.154 -0.3132  0.0819  0.1505
19040TIP3    H178611   5.784   2.001   0.182 -0.7898  1.1484 -0.9599
19040TIP3    H278612   5.922   2.035   0.233 -0.8883 -0.8807  0.8290
19041TIP3   OH278613   0.575   4.212   6.051 -0.5627 -0.1398 -0.3743
19041TIP3    H178614   0.603   4.283   6.109  0.2584 -0.6506 -0.1297
19041TIP3    H278615   0.484   4.233   6.029 -1.0973 -0.2046  1.5448
19042TIP3   OH278616   3.369   3.726  13.176  0.0893  0.3095 -0.8222
19042TIP3    H178617   3.419   3.808  13.166  1.2754 -0.4779 -1.7040
19042TIP3    H278618   3.420   3.662  13.127 -1.3780 -0.7351 -1.0312
19043TIP3   OH278619   1.836   4.175   0.483 -0.3242 -0.2904 -0.1018
19043TIP3    H178620   1.783   4.255   0.475  1.7550  1.0999 -0.7340
19043TIP3    H278621   1.773   4.104   0.470 -2.1712  1.2271 -0.0379
19044TIP3   OH278622   5.616   0.034   6.400 -0.4188 -0.3903  0.4358
19044TIP3    H178623   5.643   0.087   6.474  0.9087 -0.9603  0.3808
19044TIP3    H278624   5.579  -0.045   6.439  0.0856 -0.5970  0.5039
19045TIP3   OH278625   4.151   2.215   1.857  0.2686  0.4717  0.1219
19045TIP3    H178626   4.068   2.178   1.829  0.5403  0.8058 -1.2356
19045TIP3    H278627   4.208   2.139   1.870  0.3466  0.3157 -1.0238
19046TIP3   OH278628   6.828   6.232   1.926 -0.1345 -0.7830 -0.6679
19046TIP3    H178629   6.866   6.163   1.980  0.4351  0.1342  0.1479
19046TIP3    H278630   6.736   6.235   1.952  0.2687  0.0963  0.8002
19047TIP3   OH278631   1.063   5.132   1.093  0.6312 -0.2991  0.1501
19047TIP3    H178632   1.132   5.118   1.028 -0.5994 -1.4491 -0.9846
19047TIP3    H278633   1.108   5.168   1.169  1.8776  3.6383 -2.1335
19048TIP3   OH278634   6.400   3.065  10.767 -0.2556 -0.7895 -0.0815
19048TIP3    H178635   6.363   3.152  10.785  0.1779 -0.1425 -1.9613
19048TIP3    H278636   6.339   3.026  10.703  0.1887 -1.3602 -0.1647
19049TIP3   OH278637   3.255   4.920  12.325  0.2218 -0.0580  0.0535
19049TIP3    H178638   3.280   4.897  12.235  0.9995  0.5263  0.1121
19049TIP3    H278639   3.169   4.880  12.337 -0.2844  0.5869 -1.2574
19050TIP3   OH278640   1.750   1.871   0.916 -0.3700 -0.7145  0.0615
19050TIP3    H178641   1.814   1.837   0.979  0.0638  0.1701  0.1136
19050TIP3    H278642   1.684   1.915   0.970  0.7566  1.3202 -0.1201
19051TIP3   OH278643   5.589   0.870   0.695  0.1131  0.0689  0.2115
19051TIP3    H178644   5.523   0.812   0.657  2.1433 -0.4844 -2.8084
19051TIP3    H278645   5.647   0.812   0.745  0.2686  0.0203 -0.0262
19052TIP3   OH278646   5.838   0.846   6.337 -0.0330 -0.7385  0.0881
19052TIP3    H178647   5.928   0.878   6.334 -0.6853  1.1685 -0.9714
19052TIP3    H278648   5.810   0.860   6.427  0.8419 -1.7804  0.5477
19053TIP3   OH278649   6.408   2.876   1.529 -0.2233 -0.4981  0.0622
19053TIP3    H178650   6.425   2.782   1.535  0.1205 -0.3573  2.0303
19053TIP3    H278651   6.488   2.916   1.562 -1.2716  0.3927  1.6551
19054TIP3   OH278652   3.208   0.316  11.606 -0.9091 -0.4111  0.2507
19054TIP3    H178653   3.162   0.400  11.601  2.5373  1.8271  2.2471
19054TIP3    H278654   3.221   0.290  11.514 -0.8806  1.9803 -0.4857
19055TIP3   OH278655   5.132   2.855   0.634  0.6086  0.2548  0.6303
19055TIP3    H178656   5.166   2.778   0.589  0.4517 -0.3624  1.5450
19055TIP3    H278657   5.043   2.866   0.601  0.7096  0.1785  0.3332
19056TIP3   OH278658   2.265   2.504  10.257 -0.8363 -0.7020 -0.2410
19056TIP3    H178659   2.304   2.587  10.285 -0.9783 -0.0019 -2.0310
19056TIP3    H278660   2.289   2.443  10.326  0.7704  0.4149  0.2588
19057TIP3   OH278661   3.089   4.330   6.202 -0.7820  0.0693  0.1267
19057TIP3    H178662   3.162   4.358   6.146 -0.0352 -0.4396  0.8133
19057TIP3    H278663   3.128   4.264   6.259 -1.6412  0.2311  0.9161
19058TIP3   OH278664   5.484   1.770   3.688  0.0524  0.2298  0.4622
19058TIP3    H178665   5.433   1.697   3.721  0.2886  0.0409  0.4113
19058TIP3    H278666   5.532   1.735   3.614 -1.1842  0.8837 -0.6889
19059TIP3   OH278667   0.094   1.328  12.614  0.0233 -0.6776 -0.1117
19059TIP3    H178668   0.038   1.292  12.545  0.3959 -0.6373 -0.4415
19059TIP3    H278669   0.039   1.393  12.658  0.5454  1.2108 -2.0465
19060TIP3   OH278670   6.779   5.822  11.666 -0.0973  0.0325  0.0951
19060TIP3    H178671   6.839   5.877  11.717  0.2751  0.9475 -1.2879
19060TIP3    H278672   6.791   5.734  11.703 -0.0994  0.6965  1.7909
19061TIP3   OH278673   4.200   1.327   5.419  0.1471  0.0657  0.7336
19061TIP3    H178674   4.135   1.338   5.349  0.2740  1.5976  0.8243
19061TIP3    H278675   4.153   1.278   5.487 -0.5739  0.1891  0.3433
19062TIP3   OH278676   4.510   2.239  16.046 -0.4133 -0.0715  0.2126
19062TIP3    H178677   4.462   2.168  16.088  1.0865 -0.1816  1.8506
19062TIP3    H278678   4.557   2.282  16.117  1.2916  0.5090 -1.1808
19063TIP3   OH278679   2.383   2.214   3.810  0.2292  0.0973  0.3311
19063TIP3    H178680   2.369   2.287   3.749  0.7488  1.0903  1.3606
19063TIP3    H278681   2.335   2.141   3.771  1.1929  0.4656 -1.6719
19064TIP3   OH278682   0.708   5.893  11.385  0.2235  0.5741  0.1120
19064TIP3    H178683   0.636   5.955  11.374 -0.7492 -0.2230  1.5889
19064TIP3    H278684   0.705   5.870  11.478  0.9962 -1.1350 -0.2526
19065TIP3   OH278685   2.179   6.253   6.015  0.1226  0.4234 -0.0629
19065TIP3    H178686   2.249   6.272   6.077 -1.6480  1.5471  1.6811
19065TIP3    H278687   2.220   6.196   5.950  2.8229  1.6175  0.4756
19066TIP3   OH278688   6.458   5.311  15.058 -0.0046  0.6694  0.1161
19066TIP3    H178689   6.404   5.367  15.114 -0.6964 -0.6347  0.8172
19066TIP3    H278690   6.528   5.280  15.115  0.6701  1.2163 -0.4043
19067TIP3   OH278691   3.002   1.226   3.066 -0.3640 -0.1091 -0.0697
19067TIP3    H178692   3.007   1.317   3.037 -0.4429  0.3949  1.4104
19067TIP3    H278693   2.943   1.228   3.141 -0.0510 -1.3131  0.2336
19068TIP3   OH278694   2.979   2.178  15.198  0.0847  0.7573 -0.5605
19068TIP3    H178695   2.973   2.104  15.137 -2.2995  0.8887 -0.5501
19068TIP3    H278696   2.912   2.162  15.264  0.8589  1.9547  0.5839
19069TIP3   OH278697   5.228   0.911   5.728 -0.2671  0.4264  0.4405
19069TIP3    H178698   5.246   0.962   5.807 -1.3959 -0.0593  1.0396
19069TIP3    H278699   5.305   0.856   5.717 -0.3436  0.0569  1.5784
19070TIP3   OH278700   4.221   3.719   2.592  0.2730  0.5318  0.0782
19070TIP3    H178701   4.141   3.754   2.553  0.3704  0.5415 -0.1155
19070TIP3    H278702   4.267   3.796   2.626 -0.1205  0.4578  0.7966
19071TIP3   OH278703   5.584   4.630  11.085  0.2612 -0.0421  0.2623
19071TIP3    H178704   5.644   4.613  11.013 -0.2234  1.1027 -0.4441
19071TIP3    H278705   5.640   4.639  11.162  0.8883 -0.1523 -0.1739
19072TIP3   OH278706   5.314   1.036   6.021 -0.0122 -0.4471  0.2485
19072TIP3    H178707   5.232   1.085   6.031  1.1360  2.1596 -2.0419
19072TIP3    H278708   5.381   1.093   6.058  0.9830 -1.9853  0.9340
19073TIP3   OH278709   1.973   1.756   4.224  0.2671  0.3912 -0.4288
19073TIP3    H178710   1.937   1.822   4.164 -0.5080  2.5263  2.1975
19073TIP3    H278711   1.906   1.748   4.293  1.5764 -1.1413  0.7292
19074TIP3   OH278712   0.978   0.335  11.981 -0.6481 -0.3553  0.0951
19074TIP3    H178713   1.000   0.265  12.042 -0.5636 -0.0813  0.3824
19074TIP3    H278714   0.936   0.291  11.907 -0.1782 -0.7585  0.0644
19075TIP3   OH278715   4.950   4.272  10.621 -0.8453 -0.0239  0.6686
19075TIP3    H178716   4.925   4.247  10.710  0.7251 -0.1287  1.1100
19075TIP3    H278717   4.880   4.237  10.566 -2.0647  0.4289  1.8842
19076TIP3   OH278718   3.243   0.337  16.708  0.2919  0.2335 -0.2306
19076TIP3    H178719   3.290   0.394  16.768  1.3950 -0.0767 -0.7794
19076TIP3    H278720   3.152   0.368  16.712  0.8451  2.0381 -0.5092
19077TIP3   OH278721   4.863   3.107  11.934  0.4888 -0.2494 -0.1356
19077TIP3    H178722   4.843   3.023  11.974  0.3975 -0.4159 -0.5266
19077TIP3    H278723   4.829   3.100  11.844 -0.1819  0.4718  0.0518
19078TIP3   OH278724   1.069   2.373   5.005 -0.0424  0.0677 -0.0294
19078TIP3    H178725   1.147   2.337   4.963  0.4498  0.1632  0.7721
19078TIP3    H278726   1.000   2.309   4.987  0.5099 -0.6143  0.2563
19079TIP3   OH278727   0.044   3.070   1.137  0.4521  0.2792 -0.0827
19079TIP3    H178728   0.083   3.107   1.058  0.5413 -0.1482 -0.2462
19079TIP3    H278729   0.117   3.029   1.183  0.6604  1.7314  0.9448
19080TIP3   OH278730   3.130   6.031   2.640  0.2439 -0.5865 -0.5684
19080TIP3    H178731   3.159   5.981   2.716  0.6412  3.1231  2.0094
19080TIP3    H278732   3.035   6.036   2.650  0.4016  0.8915  0.4624
19081TIP3   OH278733   0.734   2.870   3.952 -0.2709  0.4838  0.1294
19081TIP3    H178734   0.823   2.900   3.931  0.7849 -1.8527  0.9348
19081TIP3    H278735   0.724   2.889   4.045 -0.2578 -0.0198  0.2380
19082TIP3   OH278736   0.400   5.206  16.051  0.1493  1.0181 -0.0556
19082TIP3    H178737   0.377   5.123  16.093  2.2932  1.0363  1.3117
19082TIP3    H278738   0.331   5.267  16.078 -1.3298 -0.2149 -0.8966
19083TIP3   OH278739   1.468   2.605   5.797 -0.3113  0.1316  0.2787
19083TIP3    H178740   1.467   2.512   5.773  1.2410 -0.0382  0.7297
19083TIP3    H278741   1.415   2.610   5.877  1.6102 -0.8684  1.7100
19084TIP3   OH278742   1.514   5.464   6.009  0.1317 -0.0026 -0.4975
19084TIP3    H178743   1.546   5.550   6.039  1.6640 -0.8653  0.4528
19084TIP3    H278744   1.503   5.413   6.089  0.2037 -1.0175 -1.1153
19085TIP3   OH278745   1.882   5.584   4.304 -0.2315 -0.2996 -0.4287
19085TIP3    H178746   1.948   5.653   4.294 -0.8177  0.3956  0.3510
19085TIP3    H278747   1.923   5.506   4.267  0.9860  0.1432 -0.0599
19086TIP3   OH278748   0.149   3.042  16.098 -0.6997  0.2246 -0.6348
19086TIP3    H178749   0.223   3.016  16.043 -0.5860  0.9527 -0.8473
19086TIP3    H278750   0.186   3.106  16.159 -1.0493  0.2303 -0.4260
19087TIP3   OH278751   1.398   4.908   5.700 -0.5518 -0.5016  0.6132
19087TIP3    H178752   1.395   4.854   5.779  1.8497 -0.1999  0.9758
19087TIP3    H278753   1.420   4.847   5.630  3.1934  0.0032  1.1827
19088TIP3   OH278754   0.546   3.487   5.303  0.2311 -0.1343 -0.0079
19088TIP3    H178755   0.492   3.559   5.335 -0.7375 -1.3997  1.2885
19088TIP3    H278756   0.618   3.481   5.366 -0.8665 -1.6555  1.1723
19089TIP3   OH278757   3.921   2.834   2.634 -0.1187  0.5039  0.8072
19089TIP3    H178758   3.856   2.904   2.630  1.6747  2.1950 -1.2385
19089TIP3    H278759   3.935   2.809   2.543  1.3277 -0.5762  1.2890
19090TIP3   OH278760   3.973   2.411  16.401 -0.0943  0.4040  0.2422
19090TIP3    H178761   4.008   2.500  16.389 -3.0952  1.8899  1.4591
19090TIP3    H278762   3.940   2.387  16.314 -1.2482  1.4641  0.3564
19091TIP3   OH278763   1.631   1.964  13.995  0.0926  0.2037 -0.1150
19091TIP3    H178764   1.591   2.047  13.970 -0.3830  0.3321  1.0022
19091TIP3    H278765   1.615   1.957  14.090  1.4131 -0.4558  0.0830
19092TIP3   OH278766   6.073   0.609   0.313 -0.0786 -0.5196 -0.3196
19092TIP3    H178767   6.130   0.677   0.349 -0.1228 -0.3272 -0.6097
19092TIP3    H278768   6.003   0.600   0.378  0.2857 -0.7645  0.0422
19093TIP3   OH278769   0.950   4.417   3.703  0.6144 -0.3271  0.4499
19093TIP3    H178770   0.946   4.478   3.777  1.6069 -1.4080  1.4409
19093TIP3    H278771   0.978   4.334   3.742 -1.5245 -1.6891 -0.6946
19094TIP3   OH278772   3.827   4.207   5.934 -0.1335 -0.0777 -0.4864
19094TIP3    H178773   3.901   4.237   5.987  1.0709  1.4488 -2.8360
19094TIP3    H278774   3.845   4.115   5.916  0.1843 -0.2212  0.5167
19095TIP3   OH278775   4.425   4.443  14.868  0.0989  0.0296  0.2715
19095TIP3    H178776   4.518   4.436  14.889  0.1243  0.3643  0.2657
19095TIP3    H278777   4.411   4.535  14.845 -0.1059 -0.1484 -0.3414
19096TIP3   OH278778   6.095   4.080  12.554  0.2260  0.1609  0.4749
19096TIP3    H178779   6.154   4.040  12.618 -0.3031 -0.9509  0.2878
19096TIP3    H278780   6.142   4.075  12.471  0.7497  1.2463  0.6951
19097TIP3   OH278781   1.509   3.088   1.499 -0.1792  0.7174 -0.7368
19097TIP3    H178782   1.562   3.136   1.435 -0.2640 -0.3062 -1.6197
19097TIP3    H278783   1.424   3.079   1.456 -0.3153  0.2410 -0.3696
19098TIP3   OH278784   4.514   5.117   6.301 -0.4044 -0.3959 -0.1169
19098TIP3    H178785   4.516   5.135   6.206 -1.2770  2.6260  0.3186
19098TIP3    H278786   4.606   5.111   6.326 -0.0807  0.8928 -0.8740
19099TIP3   OH278787   6.039   2.535  12.717  0.5325 -0.3442 -0.4662
19099TIP3    H178788   6.055   2.510  12.626 -1.9056  1.2387 -1.4277
19099TIP3    H278789   6.107   2.599  12.737  0.5650 -0.0418 -1.4971
19100TIP3   OH278790   3.575   3.815   3.599  0.2086  0.3393  0.0776
19100TIP3    H178791   3.544   3.736   3.554 -1.5354  0.2392  1.3808
19100TIP3    H278792   3.507   3.880   3.584  0.6289  0.9620  0.7834
19101TIP3   OH278793   2.833   3.646  13.425 -0.3663 -0.6407 -0.0477
19101TIP3    H178794   2.746   3.686  13.421  0.9769  2.5014 -3.7325
19101TIP3    H278795   2.876   3.690  13.499 -0.9916 -0.1517  0.0354
19102TIP3   OH278796   4.867   4.343  15.883 -0.1730  0.1868 -0.1730
19102TIP3    H178797   4.853   4.436  15.901  1.7820  0.5676 -0.4330
19102TIP3    H278798   4.944   4.320  15.935  1.1094 -0.5302 -2.2716
19103TIP3   OH278799   1.210   0.162   5.772  0.6202  0.2793 -0.1118
19103TIP3    H178800   1.213   0.106   5.849 -0.0252  0.7723  0.2850
19103TIP3    H278801   1.258   0.241   5.798  0.3690  0.4622 -0.1982
19104TIP3   OH278802   4.557   4.644  15.479 -0.2670 -0.0192 -0.6681
19104TIP3    H178803   4.566   4.656  15.574  2.1053 -0.0181 -0.8434
19104TIP3    H278804   4.561   4.732  15.443 -2.2315  0.0801 -0.7591
19105TIP3   OH278805   5.497   4.180  15.690  0.5883 -0.3709  0.3348
19105TIP3    H178806   5.527   4.245  15.754 -2.1144  1.2114  0.1676
19105TIP3    H278807   5.527   4.214  15.606 -1.4080  1.1720  0.1711
19106TIP3   OH278808   2.001   5.229  15.880  0.2707  0.3834 -0.8883
19106TIP3    H178809   1.938   5.279  15.828  0.4103  0.1051 -1.3278
19106TIP3    H278810   2.063   5.294  15.912 -1.0317  0.8903  0.7405
19107TIP3   OH278811   1.964   3.084  12.958  0.3041  0.3275  0.3131
19107TIP3    H178812   1.914   3.164  12.969  0.8683  0.6752  0.4059
19107TIP3    H278813   1.962   3.042  13.044  1.5028  1.1376  0.7583
19108TIP3   OH278814   1.255   2.357  13.558 -0.3442  0.4589 -0.2620
19108TIP3    H178815   1.311   2.414  13.611  0.5684  1.4581 -2.1951
19108TIP3    H278816   1.300   2.273  13.558 -0.4606  0.3849  0.6825
19109TIP3   OH278817   4.420   1.750  14.973  0.1920  0.2422 -0.5000
19109TIP3    H178818   4.454   1.811  14.907 -0.3180  0.2354 -0.7692
19109TIP3    H278819   4.363   1.803  15.028 -1.0693 -0.1894 -1.3477
19110TIP3   OH278820   0.657   5.868  16.946 -0.7833 -0.1393 -0.1304
19110TIP3    H178821   0.612   5.853  16.863  0.0119  0.2930 -0.6528
19110TIP3    H278822   0.730   5.806  16.945 -0.3230  0.3956 -0.1076
19111TIP3   OH278823   3.454   5.493  15.713 -0.4619 -0.5977  0.6892
19111TIP3    H178824   3.472   5.451  15.797 -0.2976  0.4489  1.1956
19111TIP3    H278825   3.486   5.583  15.724  1.8748 -1.0925 -1.3256
19112TIP3   OH278826   3.749   6.050  16.208 -0.0633 -0.6604 -0.2186
19112TIP3    H178827   3.722   6.041  16.300 -3.4238  0.7744 -0.8991
19112TIP3    H278828   3.715   5.972  16.165 -0.4598 -0.3138 -0.5567
19113TIP3   OH278829   4.084   0.268  12.101  0.0954  0.0743  0.1399
19113TIP3    H178830   4.010   0.311  12.060  0.6916 -0.9574 -2.1848
19113TIP3    H278831   4.136   0.339  12.138 -1.3423  0.9081  0.6411
19114TIP3   OH278832   3.571   1.459   6.416  0.4322  0.0262  0.6353
19114TIP3    H178833   3.618   1.525   6.467 -1.0709 -0.4952  2.8700
19114TIP3    H278834   3.480   1.487   6.420 -0.0363 -1.4016  0.4007
19115TIP3   OH278835   5.333   3.938  11.219 -0.4551 -0.2647  0.3140
19115TIP3    H178836   5.416   3.893  11.237 -0.5358 -1.0285 -1.1130
19115TIP3    H278837   5.353   4.030  11.233 -0.0152 -0.6058  2.3028
19116TIP3   OH278838   5.567   4.203   4.873 -0.2533 -0.1155 -0.1000
19116TIP3    H178839   5.550   4.283   4.922 -0.4699  0.0989 -0.5155
19116TIP3    H278840   5.536   4.222   4.785 -3.6543 -1.7852  0.5389
19117TIP3   OH278841   5.717   2.197  14.070  0.1875 -0.2024 -0.8938
19117TIP3    H178842   5.687   2.187  13.980 -1.1314 -1.8896 -0.3138
19117TIP3    H278843   5.746   2.109  14.095  0.3101  0.1961  0.4088
19118TIP3   OH278844   5.558   5.991  13.700  1.0182 -0.4188  0.6850
19118TIP3    H178845   5.573   6.060  13.764  1.5701 -0.5098  0.6627
19118TIP3    H278846   5.638   5.990  13.647  0.7550 -0.6489  0.2835
19119TIP3   OH278847   4.333   6.348   3.639 -0.4344 -0.0851 -1.1067
19119TIP3    H178848   4.420   6.349   3.599  0.2616 -3.0696  0.0842
19119TIP3    H278849   4.274   6.320   3.569 -0.3949  1.3764 -1.7598
19120TIP3   OH278850   2.944   4.023  12.620 -0.0904 -0.3776 -0.3919
19120TIP3    H178851   2.905   3.940  12.592 -2.6431  0.4918  0.2777
19120TIP3    H278852   2.946   4.076  12.540 -0.3160 -0.4335 -0.4372
19121TIP3   OH278853   6.094   4.014  15.074 -0.1773  0.1109  0.4968
19121TIP3    H178854   6.154   4.018  14.999 -0.5770  0.2117  0.1800
19121TIP3    H278855   6.133   3.948  15.132  0.7976  0.9286  0.7908
19122TIP3   OH278856   4.646   5.883   3.033 -0.8119 -0.6236  0.4598
19122TIP3    H178857   4.641   5.862   2.940 -2.4497 -2.1852  0.8558
19122TIP3    H278858   4.560   5.862   3.067 -0.8526  1.7250  2.0109
19123TIP3   OH278859   3.875   2.986   0.375 -0.3877 -0.1613 -0.0499
19123TIP3    H178860   3.789   2.964   0.412 -0.3107 -0.1758  0.1250
19123TIP3    H278861   3.877   2.943   0.290 -1.1494  1.0707 -0.7231
19124TIP3   OH278862   4.759   5.068  11.918  0.5552  0.1559 -0.2671
19124TIP3    H178863   4.777   4.977  11.895  0.4648  0.6100 -2.2617
19124TIP3    H278864   4.664   5.077  11.909  0.0127 -0.3769  3.3023
19125TIP3   OH278865   4.955   3.882  16.265  0.3653 -0.3936 -0.1836
19125TIP3    H178866   4.922   3.971  16.280 -0.1096 -0.8176  1.4204
19125TIP3    H278867   4.880   3.835  16.226 -0.0236 -0.6010  0.7986
19126TIP3   OH278868   0.229   6.678  15.321 -0.2885  0.0495  0.2079
19126TIP3    H178869   0.210   6.642  15.408  1.7148 -0.7812  0.3577
19126TIP3    H278870   0.202   6.609  15.260  0.1842 -0.2354  0.3085
19127TIP3   OH278871   1.283   4.607   4.006  0.5757  0.2419 -0.3008
19127TIP3    H178872   1.285   4.597   3.910  1.3917 -1.0218 -0.1752
19127TIP3    H278873   1.349   4.674   4.024  0.0588  0.8599 -0.6476
19128TIP3   OH278874   2.061   2.986   5.055  0.0597  0.1177  0.0385
19128TIP3    H178875   2.022   3.070   5.029 -3.3651 -0.7692  1.6626
19128TIP3    H278876   2.085   2.944   4.972 -0.9571  1.4795 -0.9975
19129TIP3   OH278877   6.099   5.979   1.068  0.9383  0.3298  0.4679
19129TIP3    H178878   6.115   5.889   1.094  3.4035  0.5157 -0.1401
19129TIP3    H278879   6.124   6.031   1.144  0.2394  0.5330  0.5610
19130TIP3   OH278880   6.041   3.051   0.857 -0.5142 -0.2766  0.6607
19130TIP3    H178881   6.056   3.141   0.883 -0.6421  0.4066 -1.4179
19130TIP3    H278882   6.085   3.043   0.772 -0.7525 -2.0797  0.6689
19131TIP3   OH278883   4.416   2.944   2.552  0.1572 -0.9134 -0.7763
19131TIP3    H178884   4.352   2.915   2.487 -1.2424  0.2649  0.0390
19131TIP3    H278885   4.421   2.873   2.615 -0.2524 -1.0720 -0.9212
19132TIP3   OH278886   6.065   4.253   0.779  0.2193  0.5326  0.2314
19132TIP3    H178887   6.128   4.275   0.710 -0.5420 -1.3729 -1.1822
19132TIP3    H278888   6.098   4.296   0.857  1.5891  2.0940 -1.1407
19133TIP3   OH278889   0.970   4.062   5.474 -0.2050  0.1506 -0.0534
19133TIP3    H178890   0.951   4.101   5.388  0.7880  2.4254  0.6857
19133TIP3    H278891   0.990   3.970   5.455  0.0420  0.6128 -2.2684
19134TIP3   OH278892   6.571   1.145  11.578 -0.1677 -0.0128 -0.3095
19134TIP3    H178893   6.567   1.096  11.660 -0.0533 -0.0772 -0.3416
19134TIP3    H278894   6.554   1.236  11.604 -0.1392 -0.0339 -0.2154
19135TIP3   OH278895   4.189   1.687   1.823 -0.4450 -0.4460  0.1280
19135TIP3    H178896   4.284   1.675   1.828 -0.3184  0.3047 -0.3243
19135TIP3    H278897   4.155   1.640   1.899  0.2013 -1.5977 -0.2720
19136TIP3   OH278898   0.125   1.514   0.973 -0.0802 -0.5450 -0.0629
19136TIP3    H178899   0.198   1.465   1.011  1.0204 -0.2124 -1.6684
19136TIP3    H278900   0.066   1.447   0.939 -0.7503 -0.8274  1.5521
19137TIP3   OH278901   3.080   2.297  14.798 -0.4913 -0.6702 -0.4365
19137TIP3    H178902   2.985   2.292  14.805 -0.8521  2.0569 -1.7105
19137TIP3    H278903   3.109   2.332  14.882 -0.7264 -0.6778 -0.3537
19138TIP3   OH278904   1.316   5.005   4.959 -0.1943  0.3175 -0.1342
19138TIP3    H178905   1.319   5.090   4.915 -1.5290  0.0674 -0.7564
19138TIP3    H278906   1.244   5.013   5.022 -0.0583 -0.2173  0.0975
19139TIP3   OH278907   5.623   5.202   1.443 -0.2881 -0.2371 -0.2544
19139TIP3    H178908   5.677   5.260   1.496 -0.6951 -0.9990  1.0461
19139TIP3    H278909   5.536   5.242   1.445 -1.1768 -1.9960  2.6589
19140TIP3   OH278910   4.857   4.467   6.057 -0.2725 -0.6927 -0.2754
19140TIP3    H178911   4.786   4.416   6.017 -0.5467  0.3166 -1.1163
19140TIP3    H278912   4.831   4.558   6.043  0.3522 -0.3106  0.9361
19141TIP3   OH278913   1.409   2.859   3.193  0.6819  0.3875  0.1569
19141TIP3    H178914   1.319   2.832   3.214  0.2953  1.5577  0.1186
19141TIP3    H278915   1.420   2.836   3.101  0.4077  0.2472  0.1578
19142TIP3   OH278916   4.217   0.046  15.952 -0.4670 -0.8105 -0.1919
19142TIP3    H178917   4.189   0.053  16.043 -0.5597 -2.2693 -0.0982
19142TIP3    H278918   4.154   0.100  15.904 -1.7237 -1.7402  0.3612
19143TIP3   OH278919   3.633   4.459  17.045 -0.5678  0.0193  0.1492
19143TIP3    H178920   3.571   4.385  17.041 -0.0852 -0.4763  1.3263
19143TIP3    H278921   3.615   4.509  16.966 -2.5504 -0.0614  0.4789
19144TIP3   OH278922   5.063   4.286  15.333  0.2595  0.7361  0.1119
19144TIP3    H178923   5.127   4.297  15.403 -0.3742 -0.1737  0.8675
19144TIP3    H278924   5.078   4.197  15.301 -1.8632 -0.2698  1.6507
19145TIP3   OH278925   6.159   1.231  13.517  0.0055 -0.1600  0.8384
19145TIP3    H178926   6.158   1.325  13.500  0.6008  0.0713  1.9509
19145TIP3    H278927   6.069   1.202  13.501 -0.1922  0.6037  0.5514
19146TIP3   OH278928   1.840   0.600   2.821  0.0288 -0.1547 -0.2944
19146TIP3    H178929   1.868   0.509   2.814 -1.1822 -0.5096 -0.6383
19146TIP3    H278930   1.871   0.627   2.908 -0.6087 -1.2511  0.2956
19147TIP3   OH278931   3.892   4.935   4.386  0.3673  0.5659 -0.3095
19147TIP3    H178932   3.899   4.840   4.378 -0.4496  0.4935 -0.2579
19147TIP3    H278933   3.951   4.958   4.458 -2.5755 -0.4306  2.6838
19148TIP3   OH278934   3.621   3.928  12.148  0.0968 -0.0625 -0.0423
19148TIP3    H178935   3.710   3.900  12.168 -0.9866 -5.1590 -1.0277
19148TIP3    H278936   3.580   3.938  12.234  0.4834 -2.4579  0.4906
19149TIP3   OH278937   6.098   1.223   2.977 -0.0515 -0.4080 -0.6315
19149TIP3    H178938   6.151   1.180   3.044  0.3332  0.7529 -0.1719
19149TIP3    H278939   6.077   1.153   2.915  0.2988 -1.3156  0.2508
19150TIP3   OH278940   1.728   2.412   5.922  0.1496  0.4708 -0.1070
19150TIP3    H178941   1.723   2.506   5.938 -0.8772  0.5458 -0.7389
19150TIP3    H278942   1.781   2.378   5.993 -0.0640  1.4418  0.5339
19151TIP3   OH278943   0.112   5.324  11.282  0.1289 -0.2125  0.5235
19151TIP3    H178944   0.116   5.412  11.319  0.5533  0.0177 -0.0623
19151TIP3    H278945   0.020   5.300  11.290  0.1569 -0.0696  1.4765
19152TIP3   OH278946   1.447   4.380   0.539 -0.0543 -0.3526  0.5585
19152TIP3    H178947   1.380   4.422   0.485  0.6154  1.2716  0.9145
19152TIP3    H278948   1.420   4.289   0.544 -0.7400 -0.3391 -1.5984
19153TIP3   OH278949   1.093   4.903  15.655 -0.5037  0.2015 -0.2789
19153TIP3    H178950   1.094   4.916  15.750  0.2111 -2.0537  0.0866
19153TIP3    H278951   1.004   4.871  15.636 -0.2048 -0.7684 -0.1094
19154TIP3   OH278952   2.982   3.666  16.981 -0.2415  0.0887 -0.6837
19154TIP3    H178953   2.902   3.717  16.965 -0.6882 -0.5181 -0.4194
19154TIP3    H278954   2.985   3.655  17.076 -1.6882 -2.7634 -0.8765
19155TIP3   OH278955   6.487   5.195   4.251  0.2822 -0.6492  0.0501
19155TIP3    H178956   6.501   5.228   4.162 -0.4186  0.4472  0.3298
19155TIP3    H278957   6.446   5.109   4.238 -0.9672  0.0246 -0.7039
19156TIP3   OH278958   4.033   5.708  12.803 -0.0974 -0.1172 -0.0869
19156TIP3    H178959   4.096   5.686  12.733  1.0312 -0.0216  0.8646
19156TIP3    H278960   3.948   5.683  12.767  0.3925  0.4144 -1.6968
19157TIP3   OH278961   2.385   1.660   2.022  0.3352 -0.1763 -0.5135
19157TIP3    H178962   2.400   1.565   2.022 -0.4495 -0.3338  0.8973
19157TIP3    H278963   2.469   1.698   1.998  1.2879 -1.1865  1.0264
19158TIP3   OH278964   3.010   5.226  14.792 -0.0721 -0.0761 -0.0247
19158TIP3    H178965   3.059   5.187  14.864 -0.0074  0.7149  0.3765
19158TIP3    H278966   3.077   5.253  14.729 -0.0020  0.6036  0.3230
19159TIP3   OH278967   6.573   1.732  15.738 -0.3075 -0.1112 -0.4762
19159TIP3    H178968   6.642   1.797  15.747 -0.2292 -0.0348 -1.5087
19159TIP3    H278969   6.555   1.729  15.644 -2.1264  0.3192 -0.1983
19160TIP3   OH278970   6.643   6.313  12.426 -0.0240 -0.3278 -0.0942
19160TIP3    H178971   6.678   6.355  12.347  1.1434 -0.3578  0.3807
19160TIP3    H278972   6.665   6.220  12.415 -0.4148 -0.4271 -0.0195
19161TIP3   OH278973   3.941   2.569   2.681  0.0406  0.1738 -0.1022
19161TIP3    H178974   3.906   2.515   2.752  1.2561  0.1655  0.5191
19161TIP3    H278975   3.925   2.659   2.710 -0.6160  0.1627 -0.4235
19162TIP3   OH278976   3.331   6.325   4.324 -0.6594  0.2747 -0.1909
19162TIP3    H178977   3.386   6.384   4.271 -1.7275  0.9257 -0.6187
19162TIP3    H278978   3.305   6.256   4.263  0.3651 -0.5098  0.2388
19163TIP3   OH278979   3.457   3.561   5.765  0.4964  0.3997  0.4245
19163TIP3    H178980   3.439   3.649   5.732 -0.6968 -0.4158 -1.2204
19163TIP3    H278981   3.446   3.568   5.859 -1.7849  1.5449  0.1288
19164TIP3   OH278982   5.649   3.082   3.154 -0.3719 -0.1173 -0.1386
19164TIP3    H178983   5.719   3.076   3.219  0.7042  2.1513 -1.0147
19164TIP3    H278984   5.601   3.161   3.177  0.2050  0.9083 -2.1979
19165TIP3   OH278985   0.344   6.154   1.127 -0.0623 -0.2191 -0.2338
19165TIP3    H178986   0.253   6.132   1.147 -0.2574 -0.2852 -1.1335
19165TIP3    H278987   0.344   6.168   1.032  0.9364 -0.5677 -0.2889
19166TIP3   OH278988   2.349   2.400   0.032 -0.1697  0.1827  0.1688
19166TIP3    H178989   2.378   2.311   0.012  0.3814  0.4476 -0.2475
19166TIP3    H278990   2.382   2.417   0.120  1.3085  0.6057 -0.4233
19167TIP3   OH278991   5.204   0.578   2.431  0.1238  0.1552 -0.0528
19167TIP3    H178992   5.228   0.585   2.523  0.7376 -0.7309 -0.1405
19167TIP3    H278993   5.251   0.650   2.389  1.2288 -0.4786  0.0646
19168TIP3   OH278994   1.567   1.615   4.098  0.2348 -0.1472 -0.3233
19168TIP3    H178995   1.635   1.548   4.096  0.6553  0.2944 -1.0458
19168TIP3    H278996   1.588   1.667   4.176  0.0736 -0.6715  0.0766
19169TIP3   OH278997   6.259   5.704   1.950  0.0522 -0.2456  0.1142
19169TIP3    H178998   6.226   5.718   2.039  0.1192 -1.3959  0.3363
19169TIP3    H278999   6.305   5.621   1.954  0.6838  0.0409 -0.8393
19170TIP3   OH279000   5.683   3.277   0.963  0.5097 -0.6005  0.3075
19170TIP3    H179001   5.754   3.288   1.027  0.5964  0.8339 -0.0083
19170TIP3    H279002   5.723   3.226   0.892  1.2981  0.3059  0.0685
19171TIP3   OH279003   0.982   3.289   4.590  0.1267 -0.0739 -0.1903
19171TIP3    H179004   0.903   3.255   4.633  0.5393 -1.3536 -0.4034
19171TIP3    H279005   0.962   3.284   4.497  0.0170  0.7488 -0.2196
19172TIP3   OH279006   3.056   5.211  15.213  0.4865 -0.1319  0.0767
19172TIP3    H179007   2.985   5.265  15.176  1.5346  0.2896 -1.3942
19172TIP3    H279008   3.127   5.218  15.149  0.3904 -4.0111 -0.6657
19173TIP3   OH279009   6.179   1.136   0.548  0.6348  0.1754 -0.1668
19173TIP3    H179010   6.273   1.141   0.563  0.6659  0.3674 -0.4121
19173TIP3    H279011   6.167   1.164   0.457  0.4099 -0.5583 -0.3699
19174TIP3   OH279012   2.510   2.012  16.016 -0.3444  0.0819  0.5522
19174TIP3    H179013   2.484   2.090  15.968 -0.9394 -0.1300  0.5341
19174TIP3    H279014   2.488   2.032  16.107  1.7826  0.9352  0.9602
19175TIP3   OH279015   0.655   5.299   1.455 -0.8412  0.4959  0.1282
19175TIP3    H179016   0.640   5.208   1.481 -1.0190  1.0679  2.1904
19175TIP3    H279017   0.617   5.306   1.368 -0.2286 -1.5652 -0.3580
19176TIP3   OH279018   6.795   1.110   3.347  0.5158  0.0609 -0.6997
19176TIP3    H179019   6.724   1.166   3.315 -0.6691 -0.0597  1.4492
19176TIP3    H279020   6.785   1.028   3.299 -0.8136  0.0723 -0.4828
19177TIP3   OH279021   6.725   6.434  15.622 -0.9151  0.3942 -0.2678
19177TIP3    H179022   6.705   6.369  15.555  0.7497 -0.4826  0.0292
19177TIP3    H279023   6.688   6.397  15.703  0.1409 -0.2656 -0.0759
19178TIP3   OH279024   4.007   1.430  16.426  0.1498 -0.0901 -0.1289
19178TIP3    H179025   4.071   1.500  16.430  0.0827 -0.0279 -0.1535
19178TIP3    H279026   3.922   1.474  16.417  0.0293 -0.1425  0.6446
19179TIP3   OH279027   3.584   5.964  15.692 -0.8185  0.6282  0.2844
19179TIP3    H179028   3.612   5.884  15.735 -0.3873  0.9650  0.6315
19179TIP3    H279029   3.586   6.031  15.761  2.4457  1.7833 -0.7573
19180TIP3   OH279030   3.377   1.631  14.874  0.1973 -0.5582  0.0044
19180TIP3    H179031   3.324   1.552  14.883  0.2349 -0.5529  0.2913
19180TIP3    H279032   3.315   1.703  14.884  0.1237 -0.5498 -0.4978
19181TIP3   OH279033   4.399   0.337   3.049 -0.2100  0.3986  0.2404
19181TIP3    H179034   4.373   0.428   3.063  0.8865  0.5261  1.7979
19181TIP3    H279035   4.382   0.295   3.134 -0.8800 -0.9176 -0.5126
19182TIP3   OH279036   3.005   3.271   4.806  0.0815 -0.6520 -0.3609
19182TIP3    H179037   3.028   3.360   4.778  0.0409 -0.4957  0.1087
19182TIP3    H279038   3.006   3.221   4.724  0.3420 -0.2742 -0.5994
19183TIP3   OH279039   5.919   0.130  17.179 -0.1124 -0.1123 -0.2502
19183TIP3    H179040   5.832   0.121  17.140 -0.4530 -0.7440  0.6098
19183TIP3    H279041   5.909   0.198  17.244  0.3590  0.6732 -0.9813
19184TIP3   OH279042   3.525   4.106  11.788  0.3291  0.4589 -0.8367
19184TIP3    H179043   3.609   4.064  11.808 -0.4061 -0.6019  0.1979
19184TIP3    H279044   3.498   4.066  11.706  0.3191 -0.0337 -0.5984
19185TIP3   OH279045   3.028   6.756   2.354  0.2059  0.6650  0.2669
19185TIP3    H179046   3.061   6.809   2.281 -1.0922  0.9568 -0.1364
19185TIP3    H279047   3.079   6.785   2.430  2.9452 -0.9821 -0.8171
19186TIP3   OH279048   6.662   6.260   5.029  0.1049 -0.5828  0.7265
19186TIP3    H179049   6.621   6.258   4.943  1.0096  0.1971  0.2532
19186TIP3    H279050   6.599   6.219   5.088 -0.7309 -0.6715 -0.2230
19187TIP3   OH279051   2.832   4.546  15.023 -0.3939  0.0835 -0.5659
19187TIP3    H179052   2.739   4.569  15.022 -0.0438  1.5285 -1.0420
19187TIP3    H279053   2.857   4.553  15.115 -0.5508  0.5160 -0.5562
19188TIP3   OH279054   6.801   4.822  15.015  0.3180 -0.0361  0.2513
19188TIP3    H179055   6.805   4.826  15.110 -1.3682 -0.7165  0.3874
19188TIP3    H279056   6.755   4.740  14.996 -0.3760  0.6268 -1.1036
19189TIP3   OH279057   3.120   5.258   3.160 -0.2592 -0.5495  0.0924
19189TIP3    H179058   3.118   5.282   3.068  0.4601  0.8090  0.4005
19189TIP3    H279059   3.041   5.206   3.173 -1.0946  0.3854 -0.9999
19190TIP3   OH279060   4.382   4.646   5.698 -0.1339  0.2280 -0.5328
19190TIP3    H179061   4.461   4.666   5.748  0.0531  0.1613 -0.7983
19190TIP3    H279062   4.394   4.692   5.615  0.4650 -1.2743 -1.3098
19191TIP3   OH279063   3.196   6.070  11.884  0.1840 -0.1771  0.5237
19191TIP3    H179064   3.115   6.120  11.898  0.1809  0.0301 -0.1904
19191TIP3    H279065   3.202   6.012  11.960  1.7041  2.8665  2.9330
19192TIP3   OH279066   5.415   5.926   1.971  0.6814 -0.3650 -0.3342
19192TIP3    H179067   5.330   5.954   2.006  1.5205  1.7423  0.1672
19192TIP3    H279068   5.460   5.890   2.047  0.7587 -0.1440 -0.2736
19193TIP3   OH279069   0.408   1.424  11.546  0.0419  0.0150  0.4648
19193TIP3    H179070   0.501   1.444  11.542  0.5899 -2.0951  1.4602
19193TIP3    H279071   0.401   1.353  11.609 -2.1477 -0.4868 -0.2521
19194TIP3   OH279072   1.409   1.606  11.202 -0.6411 -0.3588 -0.0487
19194TIP3    H179073   1.408   1.608  11.297  2.4109  1.5049  0.0908
19194TIP3    H279074   1.459   1.527  11.180  0.2247  0.1642  0.0001
19195TIP3   OH279075   2.437   1.269   2.826  0.5095 -0.1152 -0.0271
19195TIP3    H179076   2.438   1.189   2.774  0.4670  0.5647 -1.1050
19195TIP3    H279077   2.449   1.339   2.762  1.7587  0.6744  1.0180
19196TIP3   OH279078   0.768   3.998   3.696  0.2755 -0.1828  0.3629
19196TIP3    H179079   0.797   4.060   3.763 -2.1001  1.1915  0.2168
19196TIP3    H279080   0.809   4.028   3.615 -0.6299  1.0556  0.3492
19197TIP3   OH279081   6.185   1.584  14.125  0.0471 -0.4516  1.0097
19197TIP3    H179082   6.260   1.628  14.085  0.7234 -2.8154 -0.4838
19197TIP3    H279083   6.172   1.506  14.072 -2.8713 -0.6415  1.8383
19198TIP3   OH279084   5.164   0.007   6.105 -0.2656  0.2938 -0.0849
19198TIP3    H179085   5.119  -0.075   6.087  0.3518 -0.3751  1.2694
19198TIP3    H279086   5.154   0.019   6.200  0.0800  1.5244 -0.1917
19199TIP3   OH279087   1.679   1.778   2.573 -0.5747  0.2614  0.2472
19199TIP3    H179088   1.724   1.698   2.548 -2.0896 -1.1360  1.7478
19199TIP3    H279089   1.725   1.808   2.652  1.7430  2.5140 -1.7783
19200TIP3   OH279090   1.863   2.384  16.152 -0.5903 -0.5180 -0.2227
19200TIP3    H179091   1.935   2.421  16.204 -0.0072 -1.0674 -0.6145
19200TIP3    H279092   1.785   2.427  16.185 -0.0912  0.0199  0.2903
19201TIP3   OH279093   4.326   2.034  17.087  0.0000  0.6250 -0.3794
19201TIP3    H179094   4.338   1.943  17.059  0.8349  1.4469 -3.0071
19201TIP3    H279095   4.364   2.037  17.175 -0.5823 -1.6679  0.0153
19202TIP3   OH279096   4.814   3.113   1.021  0.1399  0.2675  0.0162
19202TIP3    H179097   4.896   3.065   1.009 -0.8304 -1.4701  0.1252
19202TIP3    H279098   4.820   3.186   0.960  1.9220  0.3923  0.2993
19203TIP3   OH279099   4.973   1.057   6.050 -0.2841 -0.0219 -0.3098
19203TIP3    H179100   5.024   1.083   6.127 -0.2437  1.1879 -0.7274
19203TIP3    H279101   5.011   1.106   5.978 -1.2263 -0.0587 -0.8532
19204TIP3   OH279102   5.637   5.129  14.354  0.4670 -0.0302  0.0974
19204TIP3    H179103   5.613   5.186  14.281  0.5263  0.1188  0.1933
19204TIP3    H279104   5.724   5.158  14.379 -0.2486  1.1276  1.3898
19205TIP3   OH279105   4.179   1.798  17.185 -0.4745  0.2375 -0.1132
19205TIP3    H179106   4.181   1.830  17.275  0.3791  2.5030 -0.8571
19205TIP3    H279107   4.131   1.865  17.136 -0.9004 -0.9292 -1.3584
19206TIP3   OH279108   5.715   0.952   5.366 -0.4973  0.5900 -0.5516
19206TIP3    H179109   5.758   1.004   5.434  0.0350 -1.3095  0.6408
19206TIP3    H279110   5.770   0.965   5.288 -1.6736  3.6102 -1.0443
19207TIP3   OH279111   5.198   2.283  13.330 -0.3928  0.4934 -0.2053
19207TIP3    H179112   5.132   2.237  13.277  0.5455 -1.1324 -0.0218
19207TIP3    H279113   5.147   2.323  13.401 -1.1977 -0.8229  0.0022
19208TIP3   OH279114   5.331   4.729   5.071 -0.1156 -0.0203 -0.1641
19208TIP3    H179115   5.286   4.665   5.015 -0.2824  3.5885 -4.7413
19208TIP3    H279116   5.261   4.787   5.101  0.5238  0.7312 -0.1068
19209TIP3   OH279117   2.914   5.824   3.243 -0.1414 -0.0566  0.8428
19209TIP3    H179118   2.874   5.908   3.221  1.8141  0.8928  0.7642
19209TIP3    H279119   2.852   5.784   3.304 -0.4879  2.0402  1.9624
19210TIP3   OH279120   3.152   0.757  14.874  0.2087  0.0205  0.8297
19210TIP3    H179121   3.244   0.781  14.870  0.2239 -0.1248  0.1261
19210TIP3    H279122   3.153   0.661  14.878  0.1711  0.0395  4.1553
19211TIP3   OH279123   4.758   2.141   4.621  0.3051  0.2592 -0.2670
19211TIP3    H179124   4.771   2.056   4.663 -0.0176 -0.6677 -1.9324
19211TIP3    H279125   4.814   2.138   4.544 -0.8156  0.9406 -1.1513
19212TIP3   OH279126   5.545   0.782  13.778 -0.0827 -0.6109 -0.4473
19212TIP3    H179127   5.564   0.775  13.684 -1.6535  0.0813 -0.8436
19212TIP3    H279128   5.625   0.820  13.816 -0.4401  1.9646 -1.9971
19213TIP3   OH279129   1.636   3.598  11.412 -0.0881  0.2368 -0.3508
19213TIP3    H179130   1.596   3.685  11.412  0.2063  0.3804 -0.8680
19213TIP3    H279131   1.672   3.588  11.500  0.2264  0.8118 -0.4060
19214TIP3   OH279132   5.210   2.540   4.000  0.4001 -0.2291 -0.0752
19214TIP3    H179133   5.266   2.585   3.937  2.0849 -0.3458  1.2439
19214TIP3    H279134   5.226   2.447   3.984 -1.2065 -0.3482 -1.1844
19215TIP3   OH279135   5.259   4.366   0.917  0.9516 -0.3248  0.5333
19215TIP3    H179136   5.199   4.437   0.895  1.1383 -0.4753 -0.5241
19215TIP3    H279137   5.338   4.410   0.948  0.9462 -0.0668  0.1929
19216TIP3   OH279138   0.480   5.374  14.330  0.2581 -0.4703 -0.5477
19216TIP3    H179139   0.494   5.444  14.266  0.1111 -1.4498 -1.6755
19216TIP3    H279140   0.399   5.332  14.303  0.1187 -0.8310  0.3670
19217TIP3   OH279141   2.841   6.751   4.739  0.0583  0.5651 -0.2429
19217TIP3    H179142   2.833   6.755   4.643  1.0311  0.7259 -0.3324
19217TIP3    H279143   2.790   6.675   4.764  0.5667 -0.0492 -1.0004
19218TIP3   OH279144   5.205   6.588  13.526  0.1868 -0.0068  0.4415
19218TIP3    H179145   5.144   6.532  13.575  0.3220 -0.1884  0.4031
19218TIP3    H279146   5.272   6.612  13.589  0.8053 -0.9121  0.1381
19219TIP3   OH279147   2.753   3.424  12.007 -0.3832  0.3446 -0.4111
19219TIP3    H179148   2.676   3.405  12.061  0.5310 -0.8633  0.5190
19219TIP3    H279149   2.723   3.492  11.946 -1.8837  0.6311  0.5925
19220TIP3   OH279150   0.158   2.465  12.059  0.7250 -1.0731 -0.4217
19220TIP3    H179151   0.190   2.397  12.000  1.2904  0.8869 -2.4987
19220TIP3    H279152   0.062   2.462  12.050  0.8143 -0.6126 -1.7153
19221TIP3   OH279153   0.831   6.743  13.961  0.4020  0.0571 -0.4806
19221TIP3    H179154   0.834   6.714  13.870  1.7846 -0.0386 -0.4206
19221TIP3    H279155   0.816   6.662  14.011 -1.3812  0.2367 -0.6555
19222TIP3   OH279156   6.733   5.170   1.010  0.2411 -0.3686  0.4249
19222TIP3    H179157   6.805   5.231   1.030  0.2467 -0.9756  2.4613
19222TIP3    H279158   6.765   5.118   0.936  1.3152  0.3046  0.3992
19223TIP3   OH279159   1.877   6.660  11.499 -0.7090 -0.5557  0.1481
19223TIP3    H179160   1.833   6.742  11.477 -3.6229 -1.7934  0.9010
19223TIP3    H279161   1.912   6.674  11.587  0.5590  0.4737 -0.4866
19224TIP3   OH279162   0.367   1.441   0.489  0.2280 -0.3598  1.0782
19224TIP3    H179163   0.379   1.347   0.474  0.6544 -0.2262  0.5614
19224TIP3    H279164   0.316   1.446   0.570 -0.5706 -1.0590  0.6342
19225TIP3   OH279165   0.129   5.742   2.910  0.3579 -0.0531 -0.4618
19225TIP3    H179166   0.210   5.706   2.945  1.2597 -0.2616 -2.6312
19225TIP3    H279167   0.097   5.801   2.978  2.1152 -0.2577  0.5880
19226TIP3   OH279168   6.312   1.163   5.178  0.3177 -0.0096  0.3550
19226TIP3    H179169   6.389   1.148   5.234 -0.5713  1.0490  1.9353
19226TIP3    H279170   6.263   1.081   5.183  0.6718 -0.2173  0.4436
19227TIP3   OH279171   6.528   1.864  14.975  0.4725 -0.0436  0.4576
19227TIP3    H179172   6.536   1.832  14.885 -1.0073 -1.4489  0.7735
19227TIP3    H279173   6.613   1.903  14.994  0.6837  0.6833 -1.6798
19228TIP3   OH279174   5.274   3.785  15.708  0.0340  0.2598  0.2379
19228TIP3    H179175   5.240   3.863  15.753  2.2032  1.8801 -0.7970
19228TIP3    H279176   5.312   3.732  15.779 -1.9492 -0.2017  1.0233
19229TIP3   OH279177   2.700   3.504  10.568  0.2944 -0.5477  0.1160
19229TIP3    H179178   2.769   3.554  10.526  0.2172  0.9780  1.6839
19229TIP3    H279179   2.621   3.558  10.557  0.0427 -0.6810  1.1543
19230TIP3   OH279180   0.120   1.224   1.500  0.3997 -0.0938  0.5789
19230TIP3    H179181   0.075   1.268   1.428 -0.6741  0.7164  1.7011
19230TIP3    H279182   0.174   1.292   1.539  1.1936 -0.6010  0.3790
19231TIP3   OH279183   1.360   3.736  13.987 -0.1546  0.2088  0.1149
19231TIP3    H179184   1.452   3.741  14.012 -0.3271 -1.0156  1.0738
19231TIP3    H279185   1.314   3.717  14.069 -1.2678  0.7906 -0.3590
19232TIP3   OH279186   4.846   1.888   0.596 -0.7076  0.2880 -0.2400
19232TIP3    H179187   4.820   1.923   0.681  0.2360  0.5436 -0.0477
19232TIP3    H279188   4.893   1.960   0.553 -1.2068  0.1738 -0.9934
19233TIP3   OH279189   4.183   6.130   0.320  0.0308  0.4288  0.3949
19233TIP3    H179190   4.163   6.073   0.395 -1.0518  0.2677  0.0058
19233TIP3    H279191   4.147   6.215   0.345 -2.4259 -0.1520 -0.8068
19234TIP3   OH279192   3.371   0.950   2.553 -1.1632 -0.0627 -0.0048
19234TIP3    H179193   3.459   0.978   2.578 -0.4358 -1.0695 -1.3231
19234TIP3    H279194   3.342   0.894   2.625  0.1389 -1.4139 -0.4825
19235TIP3   OH279195   3.149   3.034   3.960  0.4011  0.0995  0.0570
19235TIP3    H179196   3.206   3.078   4.023 -0.0004 -0.4769  0.8407
19235TIP3    H279197   3.168   3.077   3.877 -0.3524  2.1684  0.8637
19236TIP3   OH279198   0.359   3.077   5.147  0.1503 -0.3397 -0.0469
19236TIP3    H179199   0.373   3.127   5.228  0.1934 -0.0313 -0.2406
19236TIP3    H279200   0.356   3.144   5.079 -1.0772 -0.4877 -0.1646
19237TIP3   OH279201   3.981   6.578  11.597 -0.1395  0.0265 -0.1217
19237TIP3    H179202   3.989   6.674  11.600  0.2129  0.0227 -0.6508
19237TIP3    H279203   4.025   6.554  11.515  1.7227 -0.7693  1.0394
19238TIP3   OH279204   0.622   3.039   1.005  0.5322  0.7414  0.3675
19238TIP3    H179205   0.713   3.012   1.013 -0.2175 -1.7088  1.9052
19238TIP3    H279206   0.612   3.064   0.913  2.1383 -1.5484 -0.5222
19239TIP3   OH279207   0.732   4.262  13.884 -0.2398  0.2848  0.1052
19239TIP3    H179208   0.760   4.184  13.836 -1.0444 -0.8667  1.4147
19239TIP3    H279209   0.757   4.335  13.828 -0.4303 -0.9521 -1.6718
19240TIP3   OH279210   1.643   4.663   4.926  0.0135  0.5735  0.5581
19240TIP3    H179211   1.609   4.739   4.879  1.6171  1.8963  1.4247
19240TIP3    H279212   1.711   4.629   4.869  0.6985  1.0603  1.0686
19241TIP3   OH279213   5.188   0.386   2.664 -0.5118 -0.3713  0.2710
19241TIP3    H179214   5.178   0.401   2.759  2.1311 -2.0050  0.9057
19241TIP3    H279215   5.240   0.306   2.658 -1.7476 -1.0863 -2.6493
19242TIP3   OH279216   3.843   5.350  16.681 -0.0331 -0.3385  0.2364
19242TIP3    H179217   3.762   5.361  16.631 -1.5436 -0.5232  2.4615
19242TIP3    H279218   3.889   5.433  16.671  0.1569 -0.6753 -2.1002
19243TIP3   OH279219   2.761   0.373  15.387  0.2966 -0.5981 -0.4360
19243TIP3    H179220   2.722   0.425  15.458 -1.1705 -0.8585 -1.0243
19243TIP3    H279221   2.844   0.417  15.368  0.2810  0.0131  0.8084
19244TIP3   OH279222   3.884   1.531   2.356 -0.3828 -0.3425 -0.2483
19244TIP3    H179223   3.944   1.456   2.357  0.4143  0.2720 -0.2848
19244TIP3    H279224   3.891   1.565   2.267 -1.5335 -0.8314 -0.5361
19245TIP3   OH279225   1.047   0.673   0.970  0.0864  0.4084 -0.0051
19245TIP3    H179226   1.023   0.660   1.061 -1.8020 -0.1961 -0.5388
19245TIP3    H279227   1.003   0.753   0.944 -0.7220 -0.2635 -0.7884
19246TIP3   OH279228   2.645   5.392  13.256 -0.0777 -0.4986 -0.3299
19246TIP3    H179229   2.602   5.411  13.172 -0.7558  2.1029  0.5115
19246TIP3    H279230   2.696   5.313  13.239 -2.1868 -1.5556 -2.4578
19247TIP3   OH279231   0.678   0.294   5.820  0.7179 -0.5456  0.1990
19247TIP3    H179232   0.737   0.233   5.775  1.4151 -0.2605  0.7214
19247TIP3    H279233   0.700   0.380   5.784 -0.7200 -0.6519 -1.0237
19248TIP3   OH279234   0.435   6.061  14.435 -0.5088  0.3056  0.1545
19248TIP3    H179235   0.470   5.972  14.431 -2.1191 -0.3419 -1.2102
19248TIP3    H279236   0.455   6.092  14.524 -0.3046 -1.5987  0.8120
19249TIP3   OH279237   4.889   4.623   4.781 -0.2998  0.4400  0.4485
19249TIP3    H179238   4.873   4.714   4.806 -0.6778  0.7486 -0.8612
19249TIP3    H279239   4.821   4.573   4.827 -2.1536  1.2073 -1.2946
19250TIP3   OH279240   0.310   1.522  16.046 -0.8528  0.1045  0.0811
19250TIP3    H179241   0.313   1.485  15.958 -2.6595 -0.3877  0.1749
19250TIP3    H279242   0.234   1.581  16.044  1.4230  3.2605  0.1971
19251TIP3   OH279243   2.018   4.678   2.441 -0.0774 -0.5582  0.6877
19251TIP3    H179244   1.954   4.726   2.388 -0.8989 -0.5741  1.6319
19251TIP3    H279245   2.097   4.732   2.437  0.2018 -1.0470 -1.3233
19252TIP3   OH279246   4.229   3.062   1.261 -0.2561  0.8693  0.2890
19252TIP3    H179247   4.271   3.146   1.281 -0.4089  1.1860 -0.6610
19252TIP3    H279248   4.136   3.083   1.254 -0.3467  0.5351  0.4754
19253TIP3   OH279249   0.584   2.841   5.990 -0.1413  0.3920 -0.6059
19253TIP3    H179250   0.674   2.866   6.010  0.8625 -1.1288 -2.7886
19253TIP3    H279251   0.566   2.768   6.050 -0.7641  2.0234  1.3000
19254TIP3   OH279252   1.246   0.312   0.545 -0.1344 -0.4264 -0.1002
19254TIP3    H179253   1.227   0.237   0.602 -1.3503  0.6272  0.9411
19254TIP3    H279254   1.177   0.375   0.565 -1.0817 -0.2640 -3.2945
19255TIP3   OH279255   3.774   4.858  16.758 -0.0060  0.2490  1.2476
19255TIP3    H179256   3.865   4.832  16.744  0.2612  0.9282  1.6959
19255TIP3    H279257   3.736   4.861  16.670  0.3515 -0.2117  1.0737
19256TIP3   OH279258   3.883   3.456   2.844 -0.0648 -0.0325 -0.0487
19256TIP3    H179259   3.916   3.544   2.863 -1.5060  0.3229  1.0422
19256TIP3    H279260   3.787   3.464   2.850 -0.2154 -2.1060  2.4611
19257TIP3   OH279261   2.982   0.065  16.410  0.1913 -0.1257 -0.0609
19257TIP3    H179262   3.061   0.101  16.369  0.4239 -0.9265 -0.3268
19257TIP3    H279263   2.910   0.110  16.365  0.3815  4.2296  3.3215
19258TIP3   OH279264   3.135   5.673  14.027  0.6581 -0.0355  0.1039
19258TIP3    H179265   3.055   5.724  14.039 -0.2957 -1.1395 -1.2249
19258TIP3    H279266   3.173   5.706  13.946  0.9611 -0.2490  0.1574
19259TIP3   OH279267   6.804   3.739  12.345 -0.0181  0.4424 -0.5369
19259TIP3    H179268   6.871   3.782  12.291  0.4150 -0.3131 -0.6154
19259TIP3    H279269   6.721   3.761  12.302  0.1968  1.1483 -0.6039
19260TIP3   OH279270   4.506   3.122  12.078  0.3368  0.1111  0.1106
19260TIP3    H179271   4.535   3.134  11.987 -1.2950  0.3784 -0.4181
19260TIP3    H279272   4.587   3.118  12.129  1.3498  3.9375 -0.8279
19261TIP3   OH279273   6.289   6.318  16.301 -0.2746 -0.1522  0.3385
19261TIP3    H179274   6.242   6.281  16.376 -0.9616  2.4053  1.2599
19261TIP3    H279275   6.355   6.375  16.339 -1.8426  2.7004 -0.8750
19262TIP3   OH279276   6.100   3.568   2.538  0.0137  0.2057 -0.0558
19262TIP3    H179277   6.030   3.512   2.571 -0.8345  1.0339 -0.4100
19262TIP3    H279278   6.116   3.630   2.610 -1.8114  1.9905 -1.0904
19263TIP3   OH279279   5.068   1.947   5.182 -0.4413  0.5318  0.0662
19263TIP3    H179280   5.019   1.998   5.246 -0.8282  0.7336 -0.3807
19263TIP3    H279281   5.094   1.867   5.228 -0.5800  0.7465  0.5149
19264TIP3   OH279282   6.753   2.554   3.754 -0.4411 -0.5018 -0.0566
19264TIP3    H179283   6.823   2.614   3.729  0.7105 -1.6855  0.1827
19264TIP3    H279284   6.766   2.539   3.848 -1.2424 -0.4415  0.0646
19265TIP3   OH279285   0.146   1.941  15.862  0.1278 -0.0112 -0.2000
19265TIP3    H179286   0.139   1.859  15.913 -0.2904  0.5627  0.6962
19265TIP3    H279287   0.227   1.931  15.811  1.5111  0.0657  1.8511
19266TIP3   OH279288   3.680   3.039  14.728  0.1037 -0.3280 -0.0742
19266TIP3    H179289   3.616   3.097  14.687  1.4838  0.4793 -1.1575
19266TIP3    H279290   3.682   2.962  14.671  1.0070  0.1973 -0.7715
19267TIP3   OH279291   1.659   0.006   1.981 -0.3731 -0.1331 -0.1224
19267TIP3    H179292   1.664  -0.088   1.960 -1.9349 -0.4656  0.8332
19267TIP3    H279293   1.592   0.040   1.921  0.7976  0.5973 -1.0727
19268TIP3   OH279294   6.004   4.583   2.610 -0.5913 -0.1829 -0.4809
19268TIP3    H179295   6.076   4.551   2.555  1.9609  0.9055  1.9638
19268TIP3    H279296   5.995   4.518   2.679 -2.1422 -0.3823 -0.8352
19269TIP3   OH279297   6.733   3.307   1.277 -0.6009 -0.3937  0.4553
19269TIP3    H179298   6.720   3.317   1.372  1.6998  0.0792  0.7726
19269TIP3    H279299   6.757   3.395   1.247 -0.9102 -0.6332 -0.5122
19270TIP3   OH279300   6.688   3.504   4.310 -0.3745 -0.3672  0.0118
19270TIP3    H179301   6.766   3.512   4.366  1.4334 -2.0044 -2.0833
19270TIP3    H279302   6.718   3.535   4.224 -2.6867  0.8809 -0.4111
19271TIP3   OH279303   5.570   1.715   4.395 -0.5622  0.0267  0.4734
19271TIP3    H179304   5.613   1.796   4.366  0.5347 -0.6972  0.0489
19271TIP3    H279305   5.642   1.657   4.419 -1.2272 -1.5540 -1.1506
19272TIP3   OH279306   0.946   1.886  12.740 -0.0865  0.4370 -0.0989
19272TIP3    H179307   1.032   1.926  12.728  0.6160 -0.8860  0.2469
19272TIP3    H279308   0.924   1.903  12.831  0.8375 -1.0320  0.4479
19273TIP3   OH279309   0.931   4.567   1.575  0.0761 -0.0568 -0.4100
19273TIP3    H179310   0.882   4.619   1.639 -2.6502 -0.3602 -2.0703
19273TIP3    H279311   1.020   4.604   1.577 -0.7727  2.1405  1.1230
19274TIP3   OH279312   1.881   0.508   4.202  0.3133 -0.2857 -0.1226
19274TIP3    H179313   1.954   0.533   4.144  1.3277  0.5893  1.4328
19274TIP3    H279314   1.851   0.591   4.239 -1.0795 -0.7102 -0.2657
19275TIP3   OH279315   0.180   1.442  12.932 -0.0011 -0.3048 -0.0027
19275TIP3    H179316   0.158   1.458  13.024  1.0158  0.0109  0.1984
19275TIP3    H279317   0.213   1.525  12.900  0.0565 -0.5279 -0.5395
19276TIP3   OH279318   1.451   3.940  10.669 -0.2361  0.3999  0.6179
19276TIP3    H179319   1.528   3.997  10.668  0.3729 -0.2389  3.0853
19276TIP3    H279320   1.377   3.999  10.683  0.0262  0.8569  0.0979
19277TIP3   OH279321   5.107   4.118  11.510  0.4417 -0.3657 -0.4124
19277TIP3    H179322   5.084   4.203  11.548  2.8106  0.0599  0.2490
19277TIP3    H279323   5.124   4.137  11.418  0.5188 -0.2082 -0.3656
19278TIP3   OH279324   6.442   0.278  12.386 -0.1883 -0.0605  0.3665
19278TIP3    H179325   6.518   0.290  12.330  1.7284  0.1766  2.8580
19278TIP3    H279326   6.457   0.195  12.430  0.4757  1.5228  3.3923
19279TIP3   OH279327   2.240   3.973  16.313  0.3440  0.0106  0.0409
19279TIP3    H179328   2.209   4.055  16.351  1.0208 -0.1658  0.9899
19279TIP3    H279329   2.289   3.999  16.235 -2.5941  0.2836 -1.9004
19280TIP3   OH279330   4.323   1.038   2.845  0.1573  0.7384  0.4287
19280TIP3    H179331   4.245   1.012   2.894  0.1069 -1.5104 -0.7154
19280TIP3    H279332   4.289   1.072   2.762  0.2747 -3.3043 -1.4990
19281TIP3   OH279333   6.771   0.183   3.823 -0.0176 -0.1151 -0.7480
19281TIP3    H179334   6.856   0.152   3.790  0.3603 -0.0787  0.1708
19281TIP3    H279335   6.710   0.163   3.752  0.6129 -0.8628 -1.1051
19282TIP3   OH279336   5.804   1.871  12.935  0.3165  0.2703 -0.3521
19282TIP3    H179337   5.865   1.930  12.980  0.0514 -1.3074  2.2717
19282TIP3    H279338   5.718   1.898  12.965 -0.0092  0.0368 -1.0429
19283TIP3   OH279339   3.218   1.448  10.598  0.0454  0.1645 -0.4932
19283TIP3    H179340   3.239   1.505  10.524  0.5135 -0.9013 -1.2075
19283TIP3    H279341   3.206   1.508  10.671 -1.3822  1.3308 -1.6188
19284TIP3   OH279342   0.588   2.210  15.150 -0.1092  0.2174  0.1910
19284TIP3    H179343   0.654   2.200  15.218 -0.1220  0.8077  0.2970
19284TIP3    H279344   0.626   2.274  15.089 -0.4015  0.2358  0.0249
19285TIP3   OH279345   3.087   3.885   3.986  0.1993  0.1466  0.2054
19285TIP3    H179346   3.019   3.821   4.005 -0.3572  0.1989 -1.4914
19285TIP3    H279347   3.045   3.970   4.002 -0.3294  0.1975 -1.3270
19286TIP3   OH279348   2.058   2.964   1.797  0.3603  0.1029  0.2640
19286TIP3    H179349   1.976   3.014   1.792  0.4893  0.4299  1.1858
19286TIP3    H279350   2.124   3.022   1.760  0.1738 -0.1829 -0.5324
19287TIP3   OH279351   0.774   6.478   1.201  0.4129  0.2834  0.2705
19287TIP3    H179352   0.806   6.447   1.285  1.0145  1.4963  0.5155
19287TIP3    H279353   0.687   6.511   1.219 -0.3275 -1.3979 -0.0390
19288TIP3   OH279354   3.839   6.183  10.844 -0.4658 -0.1484 -0.1473
19288TIP3    H179355   3.817   6.096  10.810  0.5301 -0.8562  0.9364
19288TIP3    H279356   3.779   6.242  10.799 -1.0917 -1.3799 -0.9930
19289TIP3   OH279357   1.240   5.082   0.879  0.3997  0.0418 -0.0420
19289TIP3    H179358   1.307   5.072   0.948  1.2169 -1.2883 -0.9801
19289TIP3    H279359   1.211   4.993   0.861 -1.6148  0.5885  0.2834
19290TIP3   OH279360   2.088   3.856  16.777 -0.9256  0.0981  0.1245
19290TIP3    H179361   2.034   3.823  16.705 -1.4665 -0.0120  0.5669
19290TIP3    H279362   2.107   3.778  16.830 -0.6322  0.1967  0.1647
19291TIP3   OH279363   3.843   6.620   2.900 -0.5212  0.1727 -0.2740
19291TIP3    H179364   3.758   6.618   2.943 -0.0606  2.4887  0.9043
19291TIP3    H279365   3.854   6.531   2.865 -3.5277 -0.1123 -0.7903
19292TIP3   OH279366   5.902   6.718  12.334 -0.1781 -0.0628 -0.1379
19292TIP3    H179367   5.889   6.711  12.429  1.4551 -2.0509 -0.0039
19292TIP3    H279368   5.842   6.653  12.297  0.0906 -0.1903 -0.3573
19293TIP3   OH279369   0.228   4.767  12.856 -0.1800 -0.0301  0.0584
19293TIP3    H179370   0.193   4.722  12.932 -1.7650  2.2478  0.7511
19293TIP3    H279371   0.179   4.731  12.782 -1.6891  0.7709  0.6405
19294TIP3   OH279372   4.368   6.431  12.564  0.1559 -0.0389  0.5170
19294TIP3    H179373   4.331   6.443  12.477 -1.5824  1.6314  1.3965
19294TIP3    H279374   4.374   6.520  12.599  2.7862 -0.4803  1.3707
19295TIP3   OH279375   4.510   4.005   3.309  0.4749  0.0910  0.1656
19295TIP3    H179376   4.601   4.023   3.333  1.4083 -1.4714 -1.8758
19295TIP3    H279377   4.515   3.929   3.251 -2.2730 -0.7741  0.9007
19296TIP3   OH279378   3.935   5.410  14.437  0.0033  0.1905  0.0324
19296TIP3    H179379   3.887   5.471  14.492  0.2544  0.5998 -0.1948
19296TIP3    H279380   4.010   5.461  14.404  1.3945 -0.8026  1.5008
19297TIP3   OH279381   4.090   2.927  14.002 -0.9073 -0.2874  0.3068
19297TIP3    H179382   4.115   2.834  13.999 -1.2545 -0.4313  1.3220
19297TIP3    H279383   4.008   2.928  14.050 -1.8575  0.3889 -1.2672
19298TIP3   OH279384   3.856   2.398  12.980  0.1094  0.2341  0.0612
19298TIP3    H179385   3.783   2.377  12.922 -0.0533 -1.4658  0.8218
19298TIP3    H279386   3.929   2.418  12.921 -0.2405 -0.7664 -0.7423
19299TIP3   OH279387   4.315   5.984  10.737  0.2421  0.1364 -0.0642
19299TIP3    H179388   4.230   6.026  10.746  0.1799  0.0813 -0.3747
19299TIP3    H279389   4.374   6.038  10.790 -0.2892 -0.7644  1.4863
19300TIP3   OH279390   3.571   1.856   3.426 -0.0998  0.1344  0.0049
19300TIP3    H179391   3.659   1.887   3.404 -0.6068  2.5702  1.0466
19300TIP3    H279392   3.581   1.762   3.437  2.4256  0.3498  0.2328
19301TIP3   OH279393   6.021   5.414  16.971  0.1649  0.8346  0.2303
19301TIP3    H179394   6.006   5.398  16.877  0.0876  1.4782  0.1264
19301TIP3    H279395   6.064   5.334  17.002 -2.2117 -0.5286  0.2401
19302TIP3   OH279396   0.507   1.389   3.205  0.0426 -0.2571 -0.0492
19302TIP3    H179397   0.490   1.421   3.294 -0.1743 -0.5422  0.0130
19302TIP3    H279398   0.482   1.462   3.149 -0.0736 -0.1724  0.1106
19303TIP3   OH279399   3.040   2.894  10.151 -0.1967  0.2378  0.2859
19303TIP3    H179400   3.123   2.941  10.144  0.3161 -0.5794  0.6649
19303TIP3    H279401   2.979   2.958  10.188  0.1390  0.9865 -0.4385
19304TIP3   OH279402   5.467   3.977  16.291 -0.0177  0.7021  0.3746
19304TIP3    H179403   5.486   3.909  16.226  0.5293  0.1595  1.0972
19304TIP3    H279404   5.372   3.991  16.283  0.1541  1.2625 -1.1214
19305TIP3   OH279405   4.291   0.224   5.442 -0.3125  0.1139 -0.4400
19305TIP3    H179406   4.282   0.164   5.516 -3.6572  0.1864 -0.6449
19305TIP3    H279407   4.291   0.311   5.482  2.5050  0.1661 -0.3079
19306TIP3   OH279408   0.172   1.518   0.679  0.2213 -0.2669 -0.3753
19306TIP3    H179409   0.217   1.600   0.661 -0.3552  0.1642  0.1038
19306TIP3    H279410   0.087   1.544   0.713  0.6597 -1.0225  1.4434
19307TIP3   OH279411   2.975   4.524   2.391  0.2738 -0.0451  0.4290
19307TIP3    H179412   2.990   4.512   2.297 -0.3859  1.3818  0.1184
19307TIP3    H279413   3.051   4.484   2.433  0.4469 -0.9480 -0.6934
19308TIP3   OH279414   5.676   0.146  13.886  0.0730  0.0816 -0.0294
19308TIP3    H179415   5.709   0.231  13.857 -0.7291  0.0025 -1.2747
19308TIP3    H279416   5.594   0.166  13.930  0.5165  0.0528  0.8309
19309TIP3   OH279417   3.997   3.831   1.392 -0.1601 -0.8009  0.1222
19309TIP3    H179418   3.964   3.765   1.453 -0.5430 -1.8622 -1.1634
19309TIP3    H279419   4.000   3.912   1.443 -1.3896 -1.4299  1.2738
19310TIP3   OH279420   3.264   3.018   1.480 -0.2343  0.4116  0.4592
19310TIP3    H179421   3.360   3.011   1.478 -0.3301 -1.7566  0.5544
19310TIP3    H279422   3.236   2.951   1.543 -1.8633  0.0152 -0.6147
19311TIP3   OH279423   3.066   4.853  16.078  0.2278  0.0372 -0.1366
19311TIP3    H179424   3.099   4.770  16.112  0.6684  1.1375  2.3135
19311TIP3    H279425   3.105   4.860  15.991  2.0680 -1.2574  0.5260
19312TIP3   OH279426   3.381   4.313   2.425 -0.1340  0.3431 -1.2370
19312TIP3    H179427   3.437   4.383   2.460  0.4553 -0.4018 -0.6482
19312TIP3    H279428   3.432   4.276   2.352 -0.0197 -0.0866 -0.9438
19313TIP3   OH279429   0.303   2.774   3.302 -0.2335 -0.2152  0.2928
19313TIP3    H179430   0.273   2.705   3.361 -1.9533  0.6726  0.5409
19313TIP3    H279431   0.249   2.763   3.223  1.2479 -0.6884 -0.6868
19314TIP3   OH279432   6.030   5.363   1.551 -0.2037 -0.5736 -0.3007
19314TIP3    H179433   6.084   5.399   1.621 -0.7713  0.7928 -0.5283
19314TIP3    H279434   5.952   5.331   1.596 -0.0009 -0.8910 -0.1706
19315TIP3   OH279435   3.303   5.894   4.777 -0.0498  0.0573 -0.2870
19315TIP3    H179436   3.271   5.829   4.840  1.1686 -0.6309 -0.3465
19315TIP3    H279437   3.260   5.871   4.695  1.1118 -1.3251 -0.5446
19316TIP3   OH279438   4.335   2.382  15.347  0.0653  0.2238 -0.2147
19316TIP3    H179439   4.326   2.352  15.437  3.0504  0.2389  0.1868
19316TIP3    H279440   4.246   2.403  15.319 -1.0509 -0.7577  2.3666
19317TIP3   OH279441   3.939   4.164   5.453 -0.0093 -0.3175 -0.5749
19317TIP3    H179442   3.980   4.197   5.534 -0.4229 -2.7013  0.6931
19317TIP3    H279443   3.881   4.094   5.483  0.2896 -1.6847 -3.0096
19318TIP3   OH279444   4.373   5.243  13.410  0.0695 -0.2594  0.2295
19318TIP3    H179445   4.378   5.214  13.319  1.9688  0.4870  0.0538
19318TIP3    H279446   4.463   5.262  13.435 -0.5724  1.0185  1.7948
19319TIP3   OH279447   0.282   1.391  15.802 -0.3581  0.5216 -0.0701
19319TIP3    H179448   0.357   1.424  15.751  0.0528  0.7926  0.6813
19319TIP3    H279449   0.274   1.300  15.777  0.0458  0.5680 -0.3859
19320TIP3   OH279450   1.612   5.912  14.113  0.3344 -0.0145 -0.0161
19320TIP3    H179451   1.561   5.889  14.035  1.4766 -0.6642 -0.6088
19320TIP3    H279452   1.598   5.839  14.173 -0.2239  0.2918  0.2314
19321TIP3   OH279453   1.287   5.869  11.339  0.2113  0.0600  0.4775
19321TIP3    H179454   1.248   5.848  11.424 -0.3835 -2.2448 -0.3166
19321TIP3    H279455   1.349   5.798  11.322 -0.2599  0.0371 -1.3817
19322TIP3   OH279456   1.274   2.468   6.364  0.0598  0.2150 -0.5175
19322TIP3    H179457   1.343   2.509   6.417  0.6994 -0.8472 -0.4818
19322TIP3    H279458   1.207   2.535   6.355  0.1725  0.6176  1.1932
19323TIP3   OH279459   0.841   4.258  12.520 -0.3611  0.3972  0.0694
19323TIP3    H179460   0.853   4.168  12.489  1.5906  0.3696  0.7659
19323TIP3    H279461   0.833   4.249  12.615 -1.6849  0.8731  0.0294
19324TIP3   OH279462   2.442   1.555   0.241  0.3862 -0.2303  0.5485
19324TIP3    H179463   2.428   1.571   0.334 -2.0669  0.8596  0.0938
19324TIP3    H279464   2.451   1.643   0.203 -1.1805 -0.4795 -0.5074
19325TIP3   OH279465   2.106   4.276   5.266  0.2137 -0.3055 -0.1880
19325TIP3    H179466   2.194   4.238   5.268 -0.0557 -0.9497 -0.4743
19325TIP3    H279467   2.056   4.223   5.328  0.2089  0.5354  0.5492
19326TIP3   OH279468   1.998   6.337  13.800 -0.7171 -0.4213 -0.6187
19326TIP3    H179469   1.904   6.326  13.791 -1.0947  1.3752  0.6830
19326TIP3    H279470   2.024   6.269  13.862 -0.6089 -2.7377 -3.0046
19327TIP3   OH279471   4.336   3.170  12.472  1.0994  0.1806  0.2465
19327TIP3    H179472   4.314   3.098  12.413 -0.0232 -0.9292  1.9400
19327TIP3    H279473   4.362   3.242  12.414  1.9215 -1.4617 -1.4897
19328TIP3   OH279474   6.699   4.938  17.072 -0.5366 -0.2857 -0.4359
19328TIP3    H179475   6.619   4.913  17.026  0.2159 -0.6448 -1.5759
19328TIP3    H279476   6.693   4.893  17.157 -0.7736 -1.6563 -1.1535
19329TIP3   OH279477   3.937   5.962  12.003  0.4028  0.5131 -0.1722
19329TIP3    H179478   3.925   5.940  11.910  0.4547  0.5802 -0.1947
19329TIP3    H279479   3.906   5.884  12.049  0.6462  0.3647 -0.2549
19330TIP3   OH279480   2.298   5.720  15.819  0.4414 -0.3530 -0.2937
19330TIP3    H179481   2.219   5.714  15.764  0.0271  0.7066  0.1671
19330TIP3    H279482   2.280   5.660  15.892  2.0303 -3.7560 -2.4426
19331TIP3   OH279483   2.342   3.514  15.076 -0.0349 -0.3885  0.0464
19331TIP3    H179484   2.428   3.488  15.043  0.5197  0.3860  0.8328
19331TIP3    H279485   2.299   3.555  15.000  1.1438  1.1837  0.1752
19332TIP3   OH279486   2.682   0.731   3.411  0.2343  0.3672 -0.5775
19332TIP3    H179487   2.741   0.661   3.438  0.9572  0.9662 -0.5859
19332TIP3    H279488   2.603   0.685   3.381  0.5145 -0.4193 -0.1505
19333TIP3   OH279489   0.868   2.648  13.622 -0.3463 -0.2903 -0.1342
19333TIP3    H179490   0.857   2.728  13.674 -0.6242  0.0774 -0.7492
19333TIP3    H279491   0.792   2.594  13.645 -1.3569  0.5583 -1.3611
19334TIP3   OH279492   3.504   0.638  13.389  0.2336 -0.0225  0.2629
19334TIP3    H179493   3.574   0.698  13.364  1.5764 -1.7319 -0.3458
19334TIP3    H279494   3.499   0.645  13.485 -1.7062  3.1409  0.0621
19335TIP3   OH279495   6.275   5.808   5.223 -0.3980 -0.2638  0.1435
19335TIP3    H179496   6.229   5.736   5.181 -0.7832  0.1013 -0.0681
19335TIP3    H279497   6.366   5.799   5.194 -0.6906  0.0763 -0.9122
19336TIP3   OH279498   5.741   6.808   3.885  0.5517 -0.3511 -0.5224
19336TIP3    H179499   5.682   6.824   3.959  2.1091  1.2280  0.4931
19336TIP3    H279500   5.696   6.845   3.809 -0.4208 -0.5833 -0.0680
19337TIP3   OH279501   3.088   1.859  16.593 -0.0547 -0.3573 -0.0840
19337TIP3    H179502   3.078   1.779  16.541 -1.3914 -0.4003  0.2149
19337TIP3    H279503   3.175   1.850  16.634  0.3125 -1.0862 -0.9935
19338TIP3   OH279504   2.072   6.369   5.483  0.0888  0.0868 -0.2098
19338TIP3    H179505   2.116   6.452   5.464  0.0277  0.7701  2.2578
19338TIP3    H279506   1.982   6.393   5.503  0.0600 -0.5494  0.5076
19339TIP3   OH279507   5.682   5.638   1.245  0.4386  0.0748 -0.1532
19339TIP3    H179508   5.754   5.596   1.293 -0.7552 -1.1386  0.6611
19339TIP3    H279509   5.606   5.584   1.265 -0.7780  1.5239 -0.7235
19340TIP3   OH279510   5.190   1.295   4.806  0.1048 -0.0569  0.3884
19340TIP3    H179511   5.127   1.242   4.756 -0.9774  1.0881  0.4649
19340TIP3    H279512   5.263   1.236   4.824 -0.8853 -1.4025  0.1615
19341TIP3   OH279513   0.341   1.766   5.059 -0.0892  0.0773 -0.1180
19341TIP3    H179514   0.385   1.682   5.053  1.8864  1.0638 -0.0151
19341TIP3    H279515   0.411   1.830   5.066 -1.4559  1.9351 -2.1939
19342TIP3   OH279516   1.264   0.932   5.458 -0.0277  0.1540 -0.2734
19342TIP3    H179517   1.196   0.864   5.461  1.5117 -1.4938 -0.8718
19342TIP3    H279518   1.344   0.887   5.486  1.2107  1.5178 -1.4642
19343TIP3   OH279519   0.598   4.887   1.304 -0.2019  0.4029 -0.0529
19343TIP3    H179520   0.678   4.932   1.278 -0.4919  1.1895  0.3910
19343TIP3    H279521   0.529   4.932   1.256 -0.4628  0.2000  0.1346
19344TIP3   OH279522   1.645   1.729  14.947  0.2509  0.3099 -0.5523
19344TIP3    H179523   1.560   1.693  14.973  0.1714  1.1479  0.4097
19344TIP3    H279524   1.690   1.656  14.905 -0.6038 -0.3906 -0.2857
19345TIP3   OH279525   3.511   0.506   2.806 -0.0352  0.1642  0.7855
19345TIP3    H179526   3.514   0.495   2.902  0.2323 -0.6324  0.6990
19345TIP3    H279527   3.446   0.442   2.777  1.2912 -1.0231  0.2761
19346TIP3   OH279528   1.106   5.708   2.520  0.0959  0.5393  0.2707
19346TIP3    H179529   1.111   5.793   2.475  1.4320  0.1257 -0.3991
19346TIP3    H279530   1.019   5.708   2.561  0.3248  2.4967  0.8426
19347TIP3   OH279531   0.736   3.622   3.689  0.7105 -0.3588 -0.4185
19347TIP3    H179532   0.697   3.708   3.705  3.2105  0.7485  0.2624
19347TIP3    H279533   0.721   3.607   3.595 -2.1192 -0.5149 -0.0214
19348TIP3   OH279534   3.142   0.499   1.417  0.0616  0.1898  0.3482
19348TIP3    H179535   3.213   0.437   1.431 -0.8509 -0.7629  0.8755
19348TIP3    H279536   3.165   0.544   1.335 -0.0018 -1.8987 -0.8710
19349TIP3   OH279537   6.531   5.103  11.657 -0.0346 -0.3993  0.3589
19349TIP3    H179538   6.567   5.022  11.620  1.4537  0.0761  0.6892
19349TIP3    H279539   6.441   5.106  11.624 -0.0518 -2.0600  0.1520
19350TIP3   OH279540   0.805   1.061   4.235  0.2116 -0.0663  0.0566
19350TIP3    H179541   0.814   1.046   4.329  0.1223 -0.8867 -0.0598
19350TIP3    H279542   0.715   1.091   4.224 -0.5163 -2.1384 -0.0099
19351TIP3   OH279543   4.096   0.877   0.314  0.8414 -0.7655  0.2436
19351TIP3    H179544   4.062   0.932   0.244  1.2861 -0.1520  0.5079
19351TIP3    H279545   4.158   0.818   0.271  2.3037  0.6474  0.3326
19352TIP3   OH279546   0.299   3.663  15.664  0.4298  0.1714  0.2597
19352TIP3    H179547   0.209   3.638  15.687  1.0394 -1.3179  1.0835
19352TIP3    H279548   0.348   3.654  15.745  1.1734  1.8632  0.0312
19353TIP3   OH279549   6.818   2.690   5.993 -0.0968 -0.2080  0.2655
19353TIP3    H179550   6.897   2.638   5.985 -0.7097 -0.9686 -1.3951
19353TIP3    H279551   6.811   2.735   5.909 -0.9717  0.5163  0.7090
19354TIP3   OH279552   6.013   1.078  11.640 -0.0955 -0.0915  0.3294
19354TIP3    H179553   6.071   1.140  11.597 -0.3198 -0.1259 -0.0292
19354TIP3    H279554   6.071   1.020  11.689  0.4154 -1.6382 -1.9473
19355TIP3   OH279555   5.418   3.593  13.642 -0.0269 -0.4161 -0.1956
19355TIP3    H179556   5.486   3.639  13.592  0.3529 -0.8008 -0.0337
19355TIP3    H279557   5.465   3.547  13.711 -0.5407 -0.0087  0.4312
19356TIP3   OH279558   4.684   5.701   3.570 -0.1544 -0.1716  0.1101
19356TIP3    H179559   4.642   5.773   3.522 -0.1898 -0.3422 -0.1186
19356TIP3    H279560   4.776   5.706   3.545 -0.3758 -1.0250 -0.9722
19357TIP3   OH279561   1.024   5.809  11.758  0.4676 -0.0600  0.1341
19357TIP3    H179562   1.039   5.738  11.696  0.2498 -1.9220  2.1043
19357TIP3    H279563   1.075   5.883  11.723  0.9234 -1.2290 -1.8270
19358TIP3   OH279564   0.585   3.627  10.495  0.0537  0.4885 -0.3060
19358TIP3    H179565   0.504   3.588  10.463  0.2545  0.1999 -0.4683
19358TIP3    H279566   0.648   3.555  10.495  0.8722  1.1482 -2.1778
19359TIP3   OH279567   0.859   3.010  13.153 -0.0688 -0.0303  0.0547
19359TIP3    H179568   0.815   2.937  13.197  0.5390 -0.4140  0.0387
19359TIP3    H279569   0.887   2.974  13.069 -1.5235  0.7911 -0.8192
19360TIP3   OH279570   2.010   3.687   3.668 -0.0115  0.2895 -0.3483
19360TIP3    H179571   2.060   3.674   3.588  0.7251  0.3811  0.0850
19360TIP3    H279572   2.070   3.732   3.727 -0.4646  0.0269  0.3327
19361TIP3   OH279573   0.779   3.475  15.464  0.3633  0.3550  0.1512
19361TIP3    H179574   0.868   3.471  15.427  0.4347 -0.7584  0.4280
19361TIP3    H279575   0.773   3.398  15.520 -0.4686  0.9173  0.8534
19362TIP3   OH279576   3.228   6.742  13.284 -0.2094  0.0041  0.0113
19362TIP3    H179577   3.158   6.773  13.342  0.4491 -3.1310  2.7563
19362TIP3    H279578   3.183   6.685  13.221 -0.2960 -1.2442  1.1709
19363TIP3   OH279579   0.852   6.091   0.845 -0.1475 -0.0726 -0.2508
19363TIP3    H179580   0.762   6.105   0.875 -0.1798  1.2718 -0.8922
19363TIP3    H279581   0.906   6.119   0.918 -0.2463  1.9835 -0.8849
19364TIP3   OH279582   1.345   2.915  14.038 -0.2783 -0.1416 -0.6096
19364TIP3    H179583   1.271   2.859  14.063 -1.0871  0.5840 -1.3386
19364TIP3    H279584   1.324   3.001  14.074  0.1746  0.0868 -0.8840
19365TIP3   OH279585   0.648   3.274  12.478 -0.5281 -0.5221  0.0555
19365TIP3    H179586   0.558   3.293  12.503 -0.8676 -1.2961 -0.5538
19365TIP3    H279587   0.642   3.196  12.423  0.4458 -0.2146 -0.5064
19366TIP3   OH279588   6.611   1.649  13.583 -0.1433  0.0700 -0.0426
19366TIP3    H179589   6.701   1.672  13.608 -0.1964 -1.9532  2.4516
19366TIP3    H279590   6.560   1.727  13.602  0.9439  0.9600 -0.6582
19367TIP3   OH279591   2.398   6.001   3.615 -0.3268 -0.3163 -0.2174
19367TIP3    H179592   2.451   6.018   3.692  0.9444 -1.5461 -0.7783
19367TIP3    H279593   2.308   5.998   3.647  0.2114 -1.1148  1.2733
19368TIP3   OH279594   6.620   1.046  16.625  0.3409  0.5080  0.0183
19368TIP3    H179595   6.531   1.044  16.589 -0.0559 -0.4775  0.9842
19368TIP3    H279596   6.617   0.985  16.699  1.9694  0.0393 -0.2608
19369TIP3   OH279597   2.347   3.693   5.323 -0.0557  0.4825  0.0590
19369TIP3    H179598   2.294   3.746   5.264 -0.0236  0.6288  0.1623
19369TIP3    H279599   2.284   3.652   5.383 -0.1488 -0.1469 -0.4544
19370TIP3   OH279600   3.608   0.060   3.708  0.7171 -0.3620 -0.1992
19370TIP3    H179601   3.527   0.047   3.658  1.4108  0.6852 -1.6494
19370TIP3    H279602   3.643   0.143   3.676  2.7863 -1.1828 -0.1971
19371TIP3   OH279603   2.919   3.759   2.006 -0.2879  1.0153 -0.4434
19371TIP3    H179604   2.902   3.672   2.041  1.3646  1.1001  0.6550
19371TIP3    H279605   2.936   3.744   1.913 -0.8949  0.2946 -0.4495
19372TIP3   OH279606   4.984   5.216  11.912  0.2638 -0.7874 -0.5715
19372TIP3    H179607   4.967   5.254  11.826 -0.7232 -1.2529 -0.5959
19372TIP3    H279608   4.907   5.162  11.930  0.5553 -0.8686  0.5100
19373TIP3   OH279609   0.770   3.217   2.473 -0.2925  0.0467 -0.3856
19373TIP3    H179610   0.752   3.184   2.561  0.9277 -0.6073 -0.3585
19373TIP3    H279611   0.822   3.296   2.488 -0.0266 -0.1030 -0.5105
19374TIP3   OH279612   1.911   6.274   0.158  0.3056  0.1889 -0.0407
19374TIP3    H179613   1.876   6.259   0.245  1.4317 -2.5601  0.0107
19374TIP3    H279614   1.913   6.370   0.149  0.7496  0.5630  3.1509
19375TIP3   OH279615   3.117   4.069  12.299 -0.3869  0.0039 -0.0869
19375TIP3    H179616   3.146   4.006  12.364  1.2341 -0.2557 -1.0017
19375TIP3    H279617   3.090   4.015  12.224 -0.0802  0.3463 -0.4518
19376TIP3   OH279618   4.755   2.657  11.564  0.1537 -0.0667  0.0387
19376TIP3    H179619   4.835   2.706  11.543  0.7070 -1.1334 -0.4417
19376TIP3    H279620   4.750   2.660  11.660 -0.2700  1.5725  0.0063
19377TIP3   OH279621   3.221   5.868   0.441  0.1779 -0.1061  0.3089
19377TIP3    H179622   3.220   5.963   0.445 -0.0346 -0.1091  0.3214
19377TIP3    H279623   3.129   5.843   0.432  0.3240 -0.2457 -1.0368
19378TIP3   OH279624   5.367   5.146   3.340  0.8638 -0.0774  0.1545
19378TIP3    H179625   5.446   5.193   3.313  1.4176 -1.6689 -1.1201
19378TIP3    H279626   5.372   5.062   3.294 -0.9067 -0.7432  1.0986
19379TIP3   OH279627   0.684   1.235  11.498 -0.4841  0.0772 -0.0594
19379TIP3    H179628   0.688   1.326  11.528  0.2326  0.3090 -0.8548
19379TIP3    H279629   0.614   1.234  11.433 -1.4936 -0.2617  0.9952
19380TIP3   OH279630   2.855   2.892   3.840 -0.3358  0.4970 -0.1087
19380TIP3    H179631   2.770   2.919   3.875  0.7243  1.7372  1.6247
19380TIP3    H279632   2.911   2.882   3.916  1.2410  0.2460 -1.2464
19381TIP3   OH279633   1.227   0.178  16.958  0.3684 -0.1542 -0.1957
19381TIP3    H179634   1.303   0.121  16.968  0.2552 -0.7282 -2.1734
19381TIP3    H279635   1.161   0.124  16.914 -0.9943  0.5088  0.9362
19382TIP3   OH279636   5.106   3.691   0.963  0.3383 -0.5285 -1.1850
19382TIP3    H179637   5.135   3.714   1.051  1.1941  0.0463 -1.6065
19382TIP3    H279638   5.185   3.692   0.910 -0.2478 -0.3376 -2.0784
19383TIP3   OH279639   3.672   2.729  13.495 -0.5651  0.0794  0.2130
19383TIP3    H179640   3.659   2.737  13.589 -1.2609 -1.0476  0.2372
19383TIP3    H279641   3.645   2.639  13.475  1.7240 -0.4680 -0.7129
19384TIP3   OH279642   5.273   2.434   4.541  0.0236 -0.0126 -0.1128
19384TIP3    H179643   5.302   2.462   4.454 -2.1160  0.4758 -0.7243
19384TIP3    H279644   5.199   2.376   4.524  0.2337 -0.7682  1.3871
19385TIP3   OH279645   6.559   4.735  13.648 -0.1375 -0.0796 -0.1119
19385TIP3    H179646   6.609   4.660  13.617 -0.5795 -0.1800 -0.5967
19385TIP3    H279647   6.619   4.781  13.707 -0.8919 -2.5011  2.7956
19386TIP3   OH279648   3.251   6.147   5.342  0.0207  0.0340 -0.2413
19386TIP3    H179649   3.231   6.100   5.261 -0.7390  1.0283 -0.6507
19386TIP3    H279650   3.171   6.139   5.394  0.8206 -1.4115  0.8500
19387TIP3   OH279651   4.512   5.584   2.453 -0.0893 -0.1175 -0.5106
19387TIP3    H179652   4.496   5.529   2.376 -0.9603 -0.1801 -0.2961
19387TIP3    H279653   4.437   5.569   2.509 -0.1715  1.0396 -0.2843
19388TIP3   OH279654   5.716   2.027   5.769  0.0317 -0.2953 -0.1513
19388TIP3    H179655   5.622   2.010   5.780  0.3779 -1.5033  1.0963
19388TIP3    H279656   5.759   1.951   5.806  1.5702  1.4375  1.8854
19389TIP3   OH279657   2.870   4.623  16.898 -0.4579 -0.1719 -0.0353
19389TIP3    H179658   2.821   4.548  16.933 -0.6756  0.9593  2.3018
19389TIP3    H279659   2.805   4.692  16.889 -0.4928 -0.4704 -3.2762
19390TIP3   OH279660   5.784   5.363   1.192  0.1375  0.3929 -0.1426
19390TIP3    H179661   5.705   5.340   1.240  0.1483  0.1010 -0.2669
19390TIP3    H279662   5.774   5.320   1.107  0.0081  1.0938 -0.4913
19391TIP3   OH279663   5.823   6.631   6.247  0.2596  0.3387 -0.3265
19391TIP3    H179664   5.914   6.604   6.234 -0.7079 -2.6102 -1.8610
19391TIP3    H279665   5.789   6.572   6.314 -0.7781  0.7337 -0.4798
19392TIP3   OH279666   5.069   3.481   5.667  0.5667  0.2874  1.0884
19392TIP3    H179667   4.999   3.434   5.713  0.2165  0.1584  0.4428
19392TIP3    H279668   5.027   3.561   5.636  0.2536 -0.5016 -0.6413
19393TIP3   OH279669   3.260   1.372   1.444 -0.1010  0.0450 -0.0365
19393TIP3    H179670   3.213   1.289   1.443 -1.6618  0.9001 -0.0169
19393TIP3    H279671   3.207   1.430   1.389  1.7411  0.6321 -1.2970
19394TIP3   OH279672   2.263   2.934  11.405  0.0188  0.0917 -0.5873
19394TIP3    H179673   2.170   2.949  11.393 -0.0412 -1.0826 -1.8124
19394TIP3    H279674   2.268   2.883  11.486 -0.2391  1.4940  0.3462
19395TIP3   OH279675   0.369   3.741   5.009 -0.2198 -0.6124 -0.9850
19395TIP3    H179676   0.447   3.780   5.049 -0.1996  0.8244 -2.3138
19395TIP3    H279677   0.328   3.691   5.080 -0.4371  2.1515  1.0198
19396TIP3   OH279678   5.290   3.694   5.394 -0.3299 -0.1932 -0.2929
19396TIP3    H179679   5.258   3.729   5.477 -0.6232  0.6446 -0.7448
19396TIP3    H279680   5.213   3.652   5.354  0.0129 -1.3494  0.2321
19397TIP3   OH279681   4.843   4.279   2.238 -0.1892 -0.2678 -0.4740
19397TIP3    H179682   4.876   4.211   2.179  0.8749  0.5060 -0.8206
19397TIP3    H279683   4.894   4.357   2.215  3.0545 -0.6966  3.8312
19398TIP3   OH279684   6.212   3.426  13.440  0.0402 -0.4346 -0.1169
19398TIP3    H179685   6.269   3.476  13.382 -1.1026  0.3441 -0.6136
19398TIP3    H279686   6.124   3.457  13.419 -0.8370 -3.2864 -1.0925
19399TIP3   OH279687   5.550   6.031   2.611 -0.3458 -0.1034 -0.0920
19399TIP3    H179688   5.470   6.057   2.566  0.2782 -1.1763 -1.9036
19399TIP3    H279689   5.557   5.937   2.594  1.8664  0.1698 -0.9105
19400TIP3   OH279690   5.410   6.681  11.437  0.1548 -0.1356 -0.1460
19400TIP3    H179691   5.422   6.776  11.433 -0.5921 -0.0702 -1.1850
19400TIP3    H279692   5.474   6.651  11.501  0.0312  1.1312  0.5914
19401TIP3   OH279693   5.647   5.073   1.820  0.4677 -1.0463  0.2826
19401TIP3    H179694   5.602   5.156   1.839  0.0723 -0.4623 -2.7148
19401TIP3    H279695   5.611   5.011   1.883 -0.2318  0.7254  1.7195
19402TIP3   OH279696   2.573   0.042  16.259  0.1352  0.9016  0.2842
19402TIP3    H179697   2.614  -0.045  16.263 -0.1959  0.6886 -0.6205
19402TIP3    H279698   2.647   0.103  16.261  0.3413  0.6382  1.5592
19403TIP3   OH279699   4.507   0.652  13.131  0.2470  0.1054 -0.5978
19403TIP3    H179700   4.463   0.584  13.181  0.9069 -0.5992 -0.9699
19403TIP3    H279701   4.446   0.673  13.060 -0.1291  0.1917 -0.2514
19404TIP3   OH279702   3.481   1.870   0.792  0.6845 -0.3802  0.1356
19404TIP3    H179703   3.484   1.878   0.696 -1.6723  2.8877  0.1466
19404TIP3    H279704   3.552   1.926   0.823  0.2599  0.0889  0.2733
19405TIP3   OH279705   4.821   5.095  13.320 -0.2639  0.2833 -0.2720
19405TIP3    H179706   4.793   5.021  13.374  0.6036 -0.3623 -0.6884
19405TIP3    H279707   4.741   5.123  13.275 -0.7478  0.0729  0.4326
19406TIP3   OH279708   0.102   1.173   3.885  0.1077 -0.1125  0.1799
19406TIP3    H179709   0.056   1.256   3.872 -1.1546 -0.7572  0.2973
19406TIP3    H279710   0.193   1.192   3.864 -0.2393  1.1857 -0.2441
19407TIP3   OH279711   4.095   6.692  13.293 -0.4229  0.1302  0.3358
19407TIP3    H179712   4.015   6.707  13.343 -0.4680 -1.1584  0.6923
19407TIP3    H279713   4.152   6.765  13.316 -0.3881 -0.4828  2.4326
19408TIP3   OH279714   5.430   6.777   5.297  0.0319 -0.0596  0.3357
19408TIP3    H179715   5.416   6.728   5.378  0.2828 -1.2564 -0.3224
19408TIP3    H279716   5.356   6.838   5.293 -0.4952 -0.6304  1.0006
19409TIP3   OH279717   4.572   6.347   1.072 -0.1264  0.7678 -0.3499
19409TIP3    H179718   4.656   6.311   1.042  0.6236  1.6760  0.5992
19409TIP3    H279719   4.595   6.429   1.115 -1.3905  0.5202  0.8625
19410TIP3   OH279720   2.708   4.511   5.126 -0.3445  0.2078  0.4641
19410TIP3    H179721   2.781   4.449   5.130 -1.1083 -0.9786 -2.2142
19410TIP3    H279722   2.631   4.457   5.113 -1.5469  1.5560  1.6221
19411TIP3   OH279723   0.738   0.636  15.892 -0.0918 -0.2915  0.3016
19411TIP3    H179724   0.662   0.581  15.877  1.1418 -1.3894 -2.7545
19411TIP3    H279725   0.776   0.604  15.974 -0.3369 -2.9552 -0.5273
19412TIP3   OH279726   0.295   0.964   4.632  0.1603 -0.4739 -0.6677
19412TIP3    H179727   0.378   0.995   4.668 -1.0205  1.3174  0.7254
19412TIP3    H279728   0.274   1.027   4.563 -0.8431  0.1861  0.1971
19413TIP3   OH279729   0.209   0.769   3.436  0.0633  0.1472 -0.1541
19413TIP3    H179730   0.260   0.848   3.451  0.8996 -0.5831  1.0335
19413TIP3    H279731   0.273   0.705   3.406 -0.4797 -0.2840 -0.4112
19414TIP3   OH279732   1.785   2.436  15.306 -0.1552 -0.2095 -0.1624
19414TIP3    H179733   1.764   2.346  15.283 -0.8304 -0.6419  1.9988
19414TIP3    H279734   1.876   2.447  15.279  0.0833 -1.6828 -0.0080
19415TIP3   OH279735   0.645   6.020   3.681 -0.4439 -0.2092 -0.6384
19415TIP3    H179736   0.637   6.075   3.759 -0.3258 -0.5150 -0.4129
19415TIP3    H279737   0.707   5.952   3.705  1.0902  0.7711 -1.6035
19416TIP3   OH279738   6.179   6.822  11.766  0.1960  0.4082 -0.4817
19416TIP3    H179739   6.244   6.771  11.718 -1.0692  0.3860 -2.2805
19416TIP3    H279740   6.133   6.872  11.698  0.0365  2.3975  1.0135
19417TIP3   OH279741   3.394   0.259   6.085 -0.0375 -0.4226  0.0631
19417TIP3    H179742   3.411   0.168   6.111 -1.4196 -0.2065  1.9231
19417TIP3    H279743   3.350   0.298   6.160  0.0373  1.6605 -0.9019
19418TIP3   OH279744   5.689   0.098  13.207  0.0982  0.6677 -0.3064
19418TIP3    H179745   5.639   0.070  13.283 -0.3520  1.3572 -0.3429
19418TIP3    H279746   5.717   0.016  13.165  0.7585  0.2763  0.8559
19419TIP3   OH279747   0.192   4.061   4.189  1.0367  0.3946  0.1005
19419TIP3    H179748   0.219   4.151   4.172 -3.1803  1.3707 -3.5462
19419TIP3    H279749   0.105   4.069   4.228  0.3703 -2.0240 -0.6893
19420TIP3   OH279750   4.601   1.648  14.180  0.5210  0.6568 -0.0340
19420TIP3    H179751   4.568   1.624  14.094  0.9207  0.1158 -0.0380
19420TIP3    H279752   4.666   1.716  14.163  1.7405 -0.5409 -0.3057
19421TIP3   OH279753   0.297   5.857  12.815  0.2673  0.1612 -0.0600
19421TIP3    H179754   0.365   5.832  12.751  0.5815 -0.5649  0.5383
19421TIP3    H279755   0.265   5.941  12.784  0.8742  0.1287 -0.8153
19422TIP3   OH279756   6.660   6.762  15.215 -0.2238 -0.2301 -0.2390
19422TIP3    H179757   6.716   6.838  15.230 -0.2078 -0.3991  0.5857
19422TIP3    H279758   6.694   6.723  15.134 -0.8536  1.1799 -1.2206
19423TIP3   OH279759   5.939   6.734   0.730 -0.1847  0.9104 -0.0120
19423TIP3    H179760   5.947   6.824   0.762  1.3927  0.7486  0.1557
19423TIP3    H279761   5.848   6.711   0.745 -0.0479  1.5976  2.3408
19424TIP3   OH279762   2.193   4.044   6.653  0.0443 -0.2644 -0.4179
19424TIP3    H179763   2.126   3.983   6.685  0.6566 -1.0711 -0.6501
19424TIP3    H279764   2.144   4.112   6.607 -0.5715 -1.2738 -1.2945
19425TIP3   OH279765   5.249   1.792  11.456 -0.5798  0.2392  0.4709
19425TIP3    H179766   5.175   1.732  11.465 -0.1956 -0.2197  0.6163
19425TIP3    H279767   5.325   1.740  11.482 -0.3305  1.0139  1.3528
19426TIP3   OH279768   2.528   3.447  11.273 -0.5929 -0.5151  0.3726
19426TIP3    H179769   2.448   3.412  11.312 -2.4094  0.6952 -1.9907
19426TIP3    H279770   2.538   3.534  11.311 -1.5665  0.1072 -0.7308
19427TIP3   OH279771   1.381   3.084  12.489 -0.5056 -0.2059  0.5653
19427TIP3    H179772   1.414   3.089  12.399  0.1175 -1.3918  0.7039
19427TIP3    H279773   1.337   3.168  12.503 -0.6320 -0.0083 -0.8463
19428TIP3   OH279774   5.223   6.286   2.748 -0.1905  0.7351 -0.1615
19428TIP3    H179775   5.308   6.304   2.707  1.0904 -0.2762  1.8981
19428TIP3    H279776   5.177   6.371   2.747  2.2902  2.2442  1.8271
19429TIP3   OH279777   2.798   6.356  16.188 -0.7391  0.2556  0.0023
19429TIP3    H179778   2.853   6.355  16.267 -0.5122 -2.8947 -0.0699
19429TIP3    H279779   2.730   6.421  16.208 -0.3573 -0.0120  2.5635
19430TIP3   OH279780   0.911   5.080   2.469 -0.0527 -0.4469 -0.2893
19430TIP3    H179781   0.829   5.051   2.429 -0.9348  1.3215  0.1556
19430TIP3    H279782   0.884   5.131   2.545  1.3873  1.2288 -0.8443
19431TIP3   OH279783   5.493   6.625  15.985 -0.3872  0.5473  0.2496
19431TIP3    H179784   5.547   6.621  16.064  1.1451  0.5863 -0.7627
19431TIP3    H279785   5.555   6.640  15.914 -1.6366 -0.3582 -1.0873
19432TIP3   OH279786   6.061   2.599  14.266 -0.9690  0.1655  0.4215
19432TIP3    H179787   5.996   2.566  14.204 -0.7166 -0.5222  0.5148
19432TIP3    H279788   6.142   2.556  14.240 -0.4529  1.3051  0.0631
19433TIP3   OH279789   1.907   4.761   3.935 -0.3546 -0.1644 -0.1279
19433TIP3    H179790   1.827   4.721   3.901 -1.6866  1.6670  0.7054
19433TIP3    H279791   1.893   4.764   4.030  1.2054 -0.7918  0.1487
19434TIP3   OH279792   4.130   1.081  11.304  0.2461 -0.4144 -0.3713
19434TIP3    H179793   4.218   1.110  11.328 -0.2670  1.7742 -0.9580
19434TIP3    H279794   4.122   0.994  11.344  2.6609 -0.6858 -0.3360
19435TIP3   OH279795   0.557   6.712  16.239  0.0693  0.1399  0.0730
19435TIP3    H179796   0.538   6.620  16.224  2.2798 -0.5087  0.9011
19435TIP3    H279797   0.490   6.741  16.302 -1.0673 -0.6687 -0.7272
19436TIP3   OH279798   6.054   3.919  16.742 -0.1184 -0.1946 -0.2966
19436TIP3    H179799   6.039   4.007  16.707  0.7670  0.4361  0.8462
19436TIP3    H279800   6.124   3.884  16.688 -0.4228 -0.1838 -0.7087
19437TIP3   OH279801   2.148   6.807   1.325 -0.1467  0.2052  0.4992
19437TIP3    H179802   2.069   6.754   1.336 -0.3530  0.4574  0.2448
19437TIP3    H279803   2.128   6.866   1.252  0.8097 -0.6914 -0.5104
19438TIP3   OH279804   0.062   2.202  15.559  0.0521  0.1358  0.3533
19438TIP3    H179805   0.155   2.223  15.551 -0.0501  0.7323  0.6863
19438TIP3    H279806   0.048   2.131  15.496  0.5506  0.6183 -0.3106
19439TIP3   OH279807   5.098   5.543   0.951 -0.2777 -0.2270 -0.6403
19439TIP3    H179808   5.083   5.637   0.943  1.8985  0.3269  0.8133
19439TIP3    H279809   5.172   5.525   0.893 -0.7246 -1.0648 -0.9667
19440TIP3   OH279810   3.613   4.739   1.171 -0.1162 -0.2414  0.0532
19440TIP3    H179811   3.706   4.743   1.150 -0.5697 -1.3258 -2.6600
19440TIP3    H279812   3.592   4.826   1.204  1.3258  1.0062 -2.0421
19441TIP3   OH279813   1.084   2.683  15.152  0.4625 -0.1624 -0.4096
19441TIP3    H179814   1.119   2.605  15.195  1.0329  0.8234  1.0286
19441TIP3    H279815   1.071   2.746  15.224 -0.8410  0.7646 -1.3908
19442TIP3   OH279816   4.747   5.814  13.633  0.5798  0.1373 -0.2406
19442TIP3    H179817   4.783   5.867  13.704 -1.5523  0.3680  0.7299
19442TIP3    H279818   4.667   5.859  13.608 -0.0053 -1.3161 -1.0798
19443TIP3   OH279819   0.473   4.924   5.603 -0.0906  0.0832  0.1729
19443TIP3    H179820   0.504   4.843   5.644 -0.7080 -0.5519 -0.5883
19443TIP3    H279821   0.378   4.916   5.604 -0.1795  1.0859  0.6408
19444TIP3   OH279822   0.065   2.784  12.417  0.1178 -0.0553 -0.1031
19444TIP3    H179823   0.040   2.693  12.401 -0.2477 -0.4660  2.3901
19444TIP3    H279824  -0.018   2.831  12.424  0.2387  0.0274  0.8206
19445TIP3   OH279825   3.143   3.790  15.309 -0.6093  0.2877 -0.4180
19445TIP3    H179826   3.091   3.840  15.372 -0.2010 -0.4310  0.5278
19445TIP3    H279827   3.088   3.716  15.285 -0.2903 -0.1213  0.0822
19446TIP3   OH279828   2.283   0.164   2.708 -0.6087 -0.0684 -0.0788
19446TIP3    H179829   2.337   0.155   2.630 -0.0882 -1.8091  0.4373
19446TIP3    H279830   2.242   0.250   2.700 -0.9489 -0.4049 -2.5004
19447TIP3   OH279831   6.681   6.526   5.117  0.0914  0.1603 -0.1621
19447TIP3    H179832   6.590   6.551   5.134  0.3753  1.0177  0.1904
19447TIP3    H279833   6.676   6.435   5.089 -0.8944  0.2528 -0.3442
19448TIP3   OH279834   3.151   5.209  11.881  0.0421  0.0507 -0.0986
19448TIP3    H179835   3.125   5.295  11.915 -0.0808 -0.0565  0.0849
19448TIP3    H279836   3.089   5.191  11.810  1.0274  0.7948 -1.1759
19449TIP3   OH279837   2.047   3.757  12.201  0.5495 -0.8730  0.1134
19449TIP3    H179838   1.992   3.835  12.194  0.1800 -1.1038  0.4095
19449TIP3    H279839   2.133   3.786  12.171  0.7885  0.0354  1.6179
19450TIP3   OH279840   2.082   3.018   0.793 -0.0402  0.2765 -0.4794
19450TIP3    H179841   2.070   3.084   0.862  2.2788  1.5409 -1.1796
19450TIP3    H279842   2.174   2.993   0.800 -0.6545 -2.3763 -0.7657
19451TIP3   OH279843   0.346   5.025   5.107  0.2479 -0.4208 -0.2380
19451TIP3    H179844   0.255   5.034   5.079 -0.0023  0.5103  0.7912
19451TIP3    H279845   0.396   5.079   5.046 -0.1565  0.7206  0.4151
19452TIP3   OH279846   5.494   6.414   3.545 -0.3506  0.7464  0.4118
19452TIP3    H179847   5.583   6.411   3.512 -0.0099  1.0513  1.2721
19452TIP3    H279848   5.479   6.327   3.582  0.1015  1.1359  1.5384
19453TIP3   OH279849   1.284   0.176   1.094  0.6766  0.3747  0.1910
19453TIP3    H179850   1.191   0.195   1.099  0.2675 -1.3383 -0.3497
19453TIP3    H279851   1.291   0.102   1.034  2.4728  0.9830 -0.4234
19454TIP3   OH279852   6.423   5.911  17.140  0.0417 -0.3161  0.0289
19454TIP3    H179853   6.473   5.863  17.206 -0.7995  0.8529  1.5963
19454TIP3    H279854   6.486   5.973  17.102  0.6384 -1.2905 -0.6054
19455TIP3   OH279855   0.265   2.011   0.156 -0.0155 -0.3679 -0.3504
19455TIP3    H179856   0.179   1.989   0.120  0.6630 -2.1086 -0.9608
19455TIP3    H279857   0.311   2.054   0.084 -0.0175 -0.3259 -0.3272
19456TIP3   OH279858   0.255   0.056  13.303  0.0403  0.4891  0.4546
19456TIP3    H179859   0.194   0.123  13.333 -1.6391 -0.8090  0.1087
19456TIP3    H279860   0.223   0.033  13.215  2.0693  0.9621 -0.4557
19457TIP3   OH279861   6.815   0.098  11.802  0.2939  0.0164 -0.3169
19457TIP3    H179862   6.838   0.133  11.888 -1.4287  0.9559 -0.1834
19457TIP3    H279863   6.879   0.136  11.742  0.6161  0.5360  0.3490
19458TIP3   OH279864   1.665   4.903  14.803  0.4989 -0.0501  0.0861
19458TIP3    H179865   1.654   4.892  14.709  2.2715 -0.9886 -0.0550
19458TIP3    H279866   1.577   4.891  14.839  0.0226 -1.1008 -1.3304
19459TIP3   OH279867   0.272   1.836  16.140  0.1714 -0.1905  0.5540
19459TIP3    H179868   0.361   1.809  16.118 -0.1940 -1.0325  0.0545
19459TIP3    H279869   0.283   1.915  16.193  1.1516  1.4029 -1.8400
19460TIP3   OH279870   2.891   3.458  16.276  0.2131  0.2186  0.4596
19460TIP3    H179871   2.899   3.541  16.325  0.1859 -0.0817  0.9844
19460TIP3    H279872   2.910   3.390  16.341  2.2614 -0.1362 -0.4034
19461TIP3   OH279873   3.060   0.759   2.880  0.0833 -0.0772  0.1743
19461TIP3    H179874   3.034   0.851   2.882 -1.1242 -0.3892 -0.3416
19461TIP3    H279875   2.979   0.710   2.896  0.8635 -1.0480  1.3840
19462TIP3   OH279876   6.645   6.694  13.581 -0.1856 -0.2833 -0.4939
19462TIP3    H179877   6.677   6.674  13.493  0.0679 -0.1329 -0.4366
19462TIP3    H279878   6.598   6.777  13.571 -0.3497 -0.3815 -0.5320
19463TIP3   OH279879   6.299   0.401  13.515 -0.0925 -0.2795  0.0408
19463TIP3    H179880   6.243   0.472  13.545 -2.0047 -1.3382 -0.8607
19463TIP3    H279881   6.329   0.428  13.429 -0.7008 -0.4934 -0.2397
19464TIP3   OH279882   4.830   5.394   1.071  0.4550 -0.5762  0.0343
19464TIP3    H179883   4.833   5.412   0.977 -3.0046 -0.2925 -0.1539
19464TIP3    H279884   4.852   5.478   1.112  0.1725 -0.2011 -0.5659
19465TIP3   OH279885   6.342   5.576  11.193 -0.1828 -0.1818  0.4310
19465TIP3    H179886   6.354   5.482  11.201  0.0897 -0.4861 -2.3556
19465TIP3    H279887   6.431   5.610  11.178 -0.4201  0.3141  0.0998
19466TIP3   OH279888   1.853   2.391   0.424 -0.0422  0.2278  0.1842
19466TIP3    H179889   1.932   2.446   0.427 -0.2639  0.6177 -0.7647
19466TIP3    H279890   1.838   2.376   0.331 -0.0707 -1.3500  0.4306
19467TIP3   OH279891   2.116   1.945   2.901  0.4512  0.2171 -0.2396
19467TIP3    H179892   2.046   2.003   2.930  1.7515  1.6123  0.2167
19467TIP3    H279893   2.128   1.884   2.973  0.1570  0.3911 -0.0401
19468TIP3   OH279894   6.200   2.690   6.352 -0.0386  0.1801 -0.5170
19468TIP3    H179895   6.137   2.738   6.298 -0.5194  1.4756  1.0863
19468TIP3    H279896   6.276   2.678   6.296 -1.1029  0.0323 -1.9755
19469TIP3   OH279897   5.601   5.301  13.740 -0.4047  0.0332  0.7981
19469TIP3    H179898   5.669   5.292  13.807 -0.5978 -0.8382  0.8874
19469TIP3    H279899   5.571   5.211  13.724 -0.5430  0.2575 -0.2684
19470TIP3   OH279900   1.949   5.705   5.444  0.5628  0.6113  0.2975
19470TIP3    H179901   1.853   5.708   5.454  0.2897 -1.3827 -1.2922
19470TIP3    H279902   1.980   5.673   5.529 -0.3609 -0.6984  0.1678
19471TIP3   OH279903   2.548   2.888  13.094 -0.4935 -0.5113 -0.2883
19471TIP3    H179904   2.464   2.860  13.131 -1.6222  0.7546 -1.7380
19471TIP3    H279905   2.530   2.898  13.000  0.9972  0.8192 -0.4713
19472TIP3   OH279906   5.299   4.588   3.464 -0.3131 -0.2197  0.0800
19472TIP3    H179907   5.359   4.642   3.413 -0.4733  0.0172  0.1412
19472TIP3    H279908   5.353   4.553   3.535  0.3221 -1.8542 -1.1265
19473TIP3   OH279909   5.836   4.480  10.976 -0.6975  0.0038 -0.1681
19473TIP3    H179910   5.793   4.527  10.904  0.2953  1.3384  0.0563
19473TIP3    H279911   5.881   4.549  11.025  0.6856 -1.1775  0.2955
19474TIP3   OH279912   2.136   2.198   5.604 -0.6805 -0.2953 -0.4592
19474TIP3    H179913   2.066   2.201   5.668  0.4927 -0.5337  0.8963
19474TIP3    H279914   2.099   2.237   5.524 -1.6720  1.6378  0.8653
19475TIP3   OH279915   5.806   5.174   3.323  0.0243  0.0027  0.0262
19475TIP3    H179916   5.787   5.083   3.346  1.3869 -0.5054 -0.7555
19475TIP3    H279917   5.871   5.202   3.386  1.5755 -0.4498 -1.3064
19476TIP3   OH279918   0.714   4.810   2.143 -0.1246  0.3350  0.0614
19476TIP3    H179919   0.622   4.789   2.161 -0.5606 -0.1161 -2.2946
19476TIP3    H279920   0.762   4.732   2.168 -0.5237  0.1833  0.3584
19477TIP3   OH279921   3.193   0.003   4.289 -0.5908 -0.0542  0.3150
19477TIP3    H179922   3.262  -0.050   4.329 -0.1233  0.0815 -0.2861
19477TIP3    H279923   3.232   0.033   4.206 -1.5929 -0.4707 -0.3209
19478TIP3   OH279924   1.579   0.033  15.846 -0.2925  0.2186 -0.6783
19478TIP3    H179925   1.535   0.020  15.762 -1.7990 -0.0122  0.1083
19478TIP3    H279926   1.566  -0.050  15.893 -0.0008  0.5527  0.0068
19479TIP3   OH279927   6.495   0.207  11.622 -0.2697  0.3437  0.1192
19479TIP3    H179928   6.584   0.237  11.608 -0.1648  0.2761  0.6014
19479TIP3    H279929   6.445   0.288  11.639 -0.1116  0.3126  0.7808
19480TIP3   OH279930   0.689   6.545   0.071  0.1447  0.3156 -0.2914
19480TIP3    H179931   0.610   6.492   0.081 -0.0411  0.5960 -0.2642
19480TIP3    H279932   0.657   6.632   0.050  0.3766  0.8277  1.3236
19481TIP3   OH279933   5.832   4.245   0.062 -0.0454  0.1373 -0.0918
19481TIP3    H179934   5.837   4.340   0.047  0.9220  0.1694  0.4049
19481TIP3    H279935   5.917   4.222   0.098 -0.0401 -1.0367 -0.8097
19482TIP3   OH279936   3.665   0.405   1.661  0.4129  0.5583  0.7884
19482TIP3    H179937   3.587   0.431   1.613  1.2391  1.8474  0.0785
19482TIP3    H279938   3.732   0.394   1.593  1.0125  0.1019  1.4409
19483TIP3   OH279939   4.723   1.143   1.414 -0.1875 -0.1666 -0.3816
19483TIP3    H179940   4.768   1.218   1.375 -0.5611 -0.2321 -0.9543
19483TIP3    H279941   4.632   1.171   1.420  0.2301  0.8911  2.9864
19484TIP3   OH279942   3.339   6.310  11.100 -0.3987 -0.0694 -0.2568
19484TIP3    H179943   3.431   6.331  11.119 -0.3814  0.7791 -1.1842
19484TIP3    H279944   3.343   6.241  11.034 -0.4431 -1.0139  0.7155
19485TIP3   OH279945   3.123   2.438   3.126  0.4508  0.0713 -0.3475
19485TIP3    H179946   3.157   2.356   3.090  2.0503 -0.1472  1.4589
19485TIP3    H279947   3.057   2.412   3.189  1.3425  0.0966  0.6266
19486TIP3   OH279948   5.292   4.537   4.337 -0.1051  0.5845 -0.4571
19486TIP3    H179949   5.323   4.627   4.341  0.5814  0.3536 -0.3842
19486TIP3    H279950   5.225   4.532   4.405 -1.3262  1.4670 -1.5618
19487TIP3   OH279951   2.846   5.731  12.148  0.2252 -0.1098  0.8339
19487TIP3    H179952   2.891   5.653  12.181  1.5099  0.9256  1.6151
19487TIP3    H279953   2.838   5.788  12.224 -2.4600 -0.2170  0.7211
19488TIP3   OH279954   1.148   6.100   4.502  0.0180  0.1690  0.6974
19488TIP3    H179955   1.175   6.030   4.561  0.1513 -0.1788  0.2326
19488TIP3    H279956   1.182   6.180   4.542  1.3202 -0.2056  0.3906
19489TIP3   OH279957   4.210   4.346   4.348 -0.0218  0.3151 -0.4530
19489TIP3    H179958   4.123   4.344   4.309  0.7367  3.2644 -2.6842
19489TIP3    H279959   4.238   4.255   4.349 -2.1924 -0.4476 -1.9694
19490TIP3   OH279960   0.806   3.419  16.958  0.6261  0.4024 -0.8509
19490TIP3    H179961   0.837   3.509  16.955  1.3090  0.2531 -5.3050
19490TIP3    H279962   0.722   3.420  16.911 -0.1856 -1.0834  0.4519
19491TIP3   OH279963   5.710   6.476   1.959  0.3337  0.7622 -0.3551
19491TIP3    H179964   5.631   6.443   2.002 -0.9709  2.0953 -1.5905
19491TIP3    H279965   5.693   6.460   1.865 -0.1148  4.2008 -0.9757
19492TIP3   OH279966   5.860   6.580   2.157  0.4214  0.2972  0.2228
19492TIP3    H179967   5.811   6.545   2.083  2.0319 -1.9397  0.1292
19492TIP3    H279968   5.793   6.596   2.224 -0.8695  1.0464 -1.1778
19493TIP3   OH279969   3.145   3.765  13.817  0.5119  0.2521  0.1503
19493TIP3    H179970   3.136   3.685  13.869  1.3642 -0.1419 -0.2818
19493TIP3    H279971   3.170   3.832  13.880  1.8429 -0.2875  0.2459
19494TIP3   OH279972   0.565   1.922   5.082  0.3398  0.7079  0.2472
19494TIP3    H179973   0.642   1.945   5.133 -0.2995  0.3934  1.3856
19494TIP3    H279974   0.505   1.996   5.094 -0.5706 -0.2032  1.5473
19495TIP3   OH279975   2.597   5.416   5.298 -0.3161  0.1599 -0.0812
19495TIP3    H179976   2.562   5.355   5.232  0.8437 -0.5448 -0.0616
19495TIP3    H279977   2.628   5.491   5.246  0.8037 -0.4913 -0.3910
19496TIP3   OH279978   6.252   4.478   5.414 -0.3775 -0.1752  0.2535
19496TIP3    H179979   6.208   4.561   5.434 -0.7646  0.5195 -2.9338
19496TIP3    H279980   6.181   4.414   5.411 -0.2582 -0.3826  1.3377
19497TIP3   OH279981   1.719   5.395   1.991  0.3226  0.4154 -0.2721
19497TIP3    H179982   1.698   5.409   1.898  0.0142  1.0921 -0.1054
19497TIP3    H279983   1.672   5.464   2.037  1.4168  0.8104  0.2922
19498TIP3   OH279984   2.726   2.232   5.629  0.1432 -0.0785  0.5357
19498TIP3    H179985   2.736   2.300   5.696 -1.4466 -0.7316  1.4896
19498TIP3    H279986   2.811   2.189   5.625  0.3885  0.2466  1.8665
19499TIP3   OH279987   0.639   1.590   2.836  0.7505  1.1178  0.7736
19499TIP3    H179988   0.734   1.604   2.826  0.8215  1.5544  1.8687
19499TIP3    H279989   0.602   1.620   2.753  1.5902  0.6522  0.2073
19500TIP3   OH279990   1.058   2.628   4.856 -0.0747  0.4402  1.0229
19500TIP3    H179991   0.977   2.678   4.859 -0.4691 -0.1770  0.7059
19500TIP3    H279992   1.053   2.569   4.932 -0.2866 -0.1515  0.5541
19501TIP3   OH279993   6.098   5.025   5.576  0.4502 -0.0569  0.4322
19501TIP3    H179994   6.135   5.080   5.508  0.2241  0.0374  0.3838
19501TIP3    H279995   6.039   5.083   5.624  0.4513 -0.1756  0.5778
19502TIP3   OH279996   6.486   4.459   1.600  0.2712 -0.1394 -0.6043
19502TIP3    H179997   6.538   4.465   1.520  0.6729  1.2021 -0.2651
19502TIP3    H279998   6.396   4.469   1.571  0.1264 -2.5672 -1.2104
19503TIP3   OH279999   3.754   4.108  13.661 -0.6013 -0.1051  0.2806
19503TIP3    H180000   3.746   4.075  13.751 -1.0219  1.2170  0.7543
19503TIP3    H280001   3.664   4.128  13.634 -0.4494 -0.2079 -0.3188
19504TIP3   OH280002   3.402   2.302  16.246  0.3481  0.0658 -0.4502
19504TIP3    H180003   3.447   2.381  16.214 -0.9106  0.3975 -1.4712
19504TIP3    H280004   3.473   2.243  16.270  1.3336  1.4168  0.1358
19505TIP3   OH280005   4.410   4.134  11.614  0.0092  0.4732 -0.1256
19505TIP3    H180006   4.367   4.144  11.529  1.0501  0.9848 -0.6075
19505TIP3    H280007   4.357   4.186  11.674 -2.5930 -2.3421  0.2720
19506TIP3   OH280008   5.062   4.432  11.319  0.1973  0.0920  0.0911
19506TIP3    H180009   5.053   4.480  11.401  2.1849 -0.2037  0.5520
19506TIP3    H280010   5.073   4.501  11.252 -2.8297  0.3857 -0.2318
19507TIP3   OH280011   3.539   2.911   1.478  0.1096  0.6274  0.5284
19507TIP3    H180012   3.569   2.864   1.555  0.8737  0.6241  0.2370
19507TIP3    H280013   3.610   2.901   1.414  0.3600  2.2829  0.5108
19508TIP3   OH280014   4.478   5.502   3.561  0.7516 -0.5500 -0.4291
19508TIP3    H180015   4.531   5.423   3.575 -0.4906 -1.3640 -0.1872
19508TIP3    H280016   4.538   5.574   3.579  1.1843 -1.4626  2.2372
19509TIP3   OH280017   0.041   5.525   0.441 -0.1798 -0.4400  0.1684
19509TIP3    H180018   0.122   5.576   0.434  0.8086 -2.0414 -0.7764
19509TIP3    H280019   0.054   5.469   0.517 -0.9429  0.1807  0.7634
19510TIP3   OH280020   4.297   6.126   0.060  0.3724  0.2276 -0.2457
19510TIP3    H180021   4.242   6.143   0.137 -0.1525  0.0596 -0.5739
19510TIP3    H280022   4.345   6.208   0.047  0.1217  0.4165 -0.0130
19511TIP3   OH280023   5.756   1.223   0.988 -0.5150 -0.7327 -0.5089
19511TIP3    H180024   5.813   1.290   1.025  0.2628 -0.1147 -2.6457
19511TIP3    H280025   5.784   1.141   1.029 -0.8440  0.1002  1.4451
19512TIP3   OH280026   2.225   5.103  10.508 -0.5504  0.2631 -0.2332
19512TIP3    H180027   2.175   5.050  10.445  0.4952  1.0549 -1.7902
19512TIP3    H280028   2.222   5.192  10.473 -0.2933  0.8117  1.0791
19513TIP3   OH280029   4.864   1.443   0.532  0.2352  0.2620 -0.8991
19513TIP3    H180030   4.932   1.509   0.520 -0.4876  1.2813  0.3396
19513TIP3    H280031   4.784   1.494   0.545 -0.2049 -0.8111  0.9568
19514TIP3   OH280032   3.801   5.044  15.440  0.0633  0.1109 -0.1022
19514TIP3    H180033   3.895   5.056  15.422  0.1579 -1.1027 -0.5022
19514TIP3    H280034   3.795   5.044  15.536  0.2296  1.7829 -0.0624
19515TIP3   OH280035   2.785   3.173  11.628 -0.2496  0.1073  0.6675
19515TIP3    H180036   2.750   3.174  11.539  2.8492 -1.8042 -0.7346
19515TIP3    H280037   2.780   3.264  11.657 -2.3786  0.5889 -0.9685
19516TIP3   OH280038   6.111   2.628   5.508  0.1220 -0.2697 -0.5269
19516TIP3    H180039   6.116   2.533   5.502  0.3994 -0.3337  0.5145
19516TIP3    H280040   6.021   2.646   5.537  0.6173 -0.3474  1.1588
19517TIP3   OH280041   1.580   3.287   3.356  0.2846  0.1421 -0.0085
19517TIP3    H180042   1.665   3.328   3.370  1.4161 -2.5193  1.6380
19517TIP3    H280043   1.523   3.328   3.422  1.1369 -0.2421  0.9890
19518TIP3   OH280044   1.263   1.530  15.557  0.3114  0.4332 -0.4247
19518TIP3    H180045   1.307   1.457  15.514  0.4526  0.7876 -0.8944
19518TIP3    H280046   1.333   1.579  15.600 -0.0252 -0.9760  1.8844
19519TIP3   OH280047   5.987   6.050   2.864  0.1422 -0.4841  1.0154
19519TIP3    H180048   5.984   5.957   2.886  0.5137 -1.2550 -1.7699
19519TIP3    H280049   6.080   6.070   2.857  0.0943 -0.7358 -1.1634
19520TIP3   OH280050   6.449   0.352   2.324  0.3399 -0.0451 -0.4531
19520TIP3    H180051   6.398   0.271   2.329 -2.2870  1.3537 -2.1779
19520TIP3    H280052   6.537   0.327   2.353 -0.3721 -3.4638 -0.8208
19521TIP3   OH280053   3.592   5.731  15.429 -0.3109  0.3568  0.1646
19521TIP3    H180054   3.534   5.796  15.389 -2.1700 -0.8702  0.7636
19521TIP3    H280055   3.573   5.650  15.382 -0.4452 -0.4765  1.6185
19522TIP3   OH280056   5.932   4.508   1.123 -0.6276  0.0764  0.3826
19522TIP3    H180057   5.964   4.421   1.099 -1.7578 -0.4787  0.7866
19522TIP3    H280058   6.010   4.562   1.129  0.3007 -1.3542  1.9007
19523TIP3   OH280059   6.195   0.754  12.732  0.2052 -0.2814 -0.2734
19523TIP3    H180060   6.146   0.698  12.671 -0.1265  0.5526 -0.7961
19523TIP3    H280061   6.285   0.752  12.700  0.2411 -0.7057 -0.1474
19524TIP3   OH280062   2.247   6.244   4.257 -0.3870 -0.4768 -0.3320
19524TIP3    H180063   2.299   6.244   4.177  1.5535  1.3099  0.8312
19524TIP3    H280064   2.195   6.324   4.252  0.4978  0.1785  0.6073
19525TIP3   OH280065   6.829   5.001  14.172  0.1605  0.0147 -0.6043
19525TIP3    H180066   6.751   5.051  14.196  0.6375  0.3303  0.3455
19525TIP3    H280067   6.854   4.955  14.253 -1.1929 -3.1161 -1.7964
19526TIP3   OH280068   0.312   2.054  11.648 -0.1901 -0.2291 -0.4047
19526TIP3    H180069   0.331   2.082  11.558  0.4712 -0.3404 -0.3049
19526TIP3    H280070   0.354   2.120  11.703 -1.1665  0.2089 -0.1694
19527TIP3   OH280071   0.203   0.077   2.180  0.6115  0.0627 -0.1042
19527TIP3    H180072   0.226   0.168   2.199 -1.1621  0.5064  0.1245
19527TIP3    H280073   0.165   0.081   2.092  0.4914 -0.4492 -0.0770
19528TIP3   OH280074   4.536   1.524   5.412 -0.4713  0.0186 -0.4635
19528TIP3    H180075   4.525   1.433   5.438 -0.4544  0.2186  0.2539
19528TIP3    H280076   4.629   1.530   5.387 -0.3479 -0.0457 -0.0339
19529TIP3   OH280077   0.438   2.615  15.117 -0.0858  0.6939  0.3634
19529TIP3    H180078   0.505   2.619  15.049 -2.6788 -0.6355 -2.5027
19529TIP3    H280079   0.371   2.677  15.089 -1.9962 -1.0896  0.7324
19530TIP3   OH280080   4.763   3.936  13.077 -0.8195  1.3243 -0.2072
19530TIP3    H180081   4.736   3.855  13.121 -1.6112  1.2027 -0.8868
19530TIP3    H280082   4.729   4.006  13.134  1.9338  1.2722  1.6763
19531TIP3   OH280083   0.742   3.073  16.314  0.2217 -0.2313 -0.4703
19531TIP3    H180084   0.688   3.071  16.235  1.0521 -0.8946 -1.0366
19531TIP3    H280085   0.778   3.162  16.316 -0.4306  0.0362 -0.3935
19532TIP3   OH280086   0.279   1.643  11.429 -0.5422  0.2859 -0.1438
19532TIP3    H180087   0.342   1.601  11.489 -0.7872  0.0455 -0.0576
19532TIP3    H280088   0.269   1.582  11.357 -0.7543  0.2812 -0.1103
19533TIP3   OH280089   3.500   1.036   1.666  0.1291 -0.0265  0.0098
19533TIP3    H180090   3.516   0.950   1.703  0.0194 -0.2383 -0.4297
19533TIP3    H280091   3.554   1.095   1.719 -0.5314 -0.2251  0.9280
19534TIP3   OH280092   6.650   5.029   2.992  0.2491 -0.0477 -0.2904
19534TIP3    H180093   6.743   5.045   3.010  0.8973 -0.9666 -2.5049
19534TIP3    H280094   6.611   5.116   2.992  1.2250  0.4139  0.0513
19535TIP3   OH280095   0.504   1.428  13.288 -0.3625 -0.7170  0.1618
19535TIP3    H180096   0.475   1.468  13.206  0.3628 -1.4612 -0.4691
19535TIP3    H280097   0.447   1.467  13.354  1.3485  2.6818 -0.1322
19536TIP3   OH280098   2.624   2.807   2.037 -1.0825  0.1963  0.3515
19536TIP3    H180099   2.685   2.804   1.963 -0.7397 -0.2283  0.6422
19536TIP3    H280100   2.538   2.796   1.998 -0.9331  0.3025 -0.0157
19537TIP3   OH280101   3.791   5.034  15.733 -0.0000  0.7990  0.5331
19537TIP3    H180102   3.702   5.005  15.713 -0.0246  0.9607  0.4015
19537TIP3    H280103   3.830   4.962  15.781 -0.2433  0.7764  0.6959
19538TIP3   OH280104   4.790   3.977   3.981  0.3013 -0.5210  0.5547
19538TIP3    H180105   4.805   3.957   4.073  0.9608 -0.7547  0.4012
19538TIP3    H280106   4.870   3.949   3.936  0.7618  1.2730  0.1584
19539TIP3   OH280107   1.990   6.431  15.158  0.2512  0.1404  0.2418
19539TIP3    H180108   1.939   6.443  15.078 -1.6381 -0.9646  1.2211
19539TIP3    H280109   1.931   6.458  15.229  0.5096 -2.3825  1.5119
19540TIP3   OH280110   5.321   6.236  11.591  0.8562  0.1626 -0.2334
19540TIP3    H180111   5.267   6.262  11.666  2.4723 -0.7207  1.3442
19540TIP3    H280112   5.404   6.282  11.605  1.3422 -0.3855 -1.2249
19541TIP3   OH280113   0.354   5.505   4.994  0.3278 -0.1745  0.2229
19541TIP3    H180114   0.292   5.477   5.061 -1.9721  1.0304 -1.2964
19541TIP3    H280115   0.367   5.428   4.939 -1.4799  0.1010 -0.6363
19542TIP3   OH280116   4.745   0.619   5.852  0.6789  0.0757 -0.1610
19542TIP3    H180117   4.679   0.672   5.895 -0.8734 -0.7039 -1.4907
19542TIP3    H280118   4.810   0.682   5.821 -0.5774  1.1195 -0.7739
19543TIP3   OH280119   4.224   3.674   5.876  0.7610 -0.1907 -0.3016
19543TIP3    H180120   4.179   3.590   5.871 -1.2432  0.8856 -2.1045
19543TIP3    H280121   4.297   3.666   5.815 -0.7837  0.0526 -2.2797
19544TIP3   OH280122   1.084   2.757  16.642 -0.2817 -0.4762 -0.1552
19544TIP3    H180123   1.149   2.756  16.571 -0.1729 -0.8188 -0.0544
19544TIP3    H280124   1.104   2.836  16.692 -0.6729  0.0308 -0.7874
19545TIP3   OH280125   6.230   0.921   1.919 -0.2440  0.3083  0.5315
19545TIP3    H180126   6.219   0.953   1.829 -0.7798  0.9962  0.8309
19545TIP3    H280127   6.284   0.843   1.910  1.0936  1.2663 -0.2387
19546TIP3   OH280128   5.591   6.045  14.582  0.0894 -0.1851  0.0669
19546TIP3    H180129   5.614   6.073  14.670 -0.6274 -1.0481  0.5373
19546TIP3    H280130   5.502   6.078  14.568  0.0545 -0.3846 -0.1893
19547TIP3   OH280131   6.508   1.596   5.965  0.3537 -0.9526  0.0365
19547TIP3    H180132   6.477   1.590   6.055 -0.0441 -1.2837 -0.1178
19547TIP3    H280133   6.599   1.566   5.969  0.9799  0.8515  0.6417
19548TIP3   OH280134   2.944   4.175  15.417  0.9616 -0.1257  0.1992
19548TIP3    H180135   2.940   4.096  15.362  1.7687 -0.7539  1.0273
19548TIP3    H280136   2.869   4.167  15.476 -0.2163  0.8070 -1.1057
19549TIP3   OH280137   0.318   0.589  14.590 -0.2097 -0.0634 -0.1837
19549TIP3    H180138   0.339   0.504  14.551  0.5559  1.1002 -2.4956
19549TIP3    H280139   0.254   0.628  14.530 -1.8868  0.3529  1.7549
19550TIP3   OH280140   3.917   5.153  16.083 -0.5825 -0.1703 -0.3319
19550TIP3    H180141   3.869   5.206  16.020  2.4787  1.0491 -1.8564
19550TIP3    H280142   3.912   5.202  16.165  0.8722  1.8262 -1.3329
19551TIP3   OH280143   4.287   3.441   4.710  0.8878  0.0058 -0.3424
19551TIP3    H180144   4.330   3.422   4.793  1.3852  2.2125 -0.0356
19551TIP3    H280145   4.194   3.449   4.732  0.5964 -2.1908 -0.5495
19552TIP3   OH280146   1.472   6.752  13.376 -0.3281  0.4231  0.1185
19552TIP3    H180147   1.517   6.835  13.387 -1.5411  0.9901  1.1033
19552TIP3    H280148   1.393   6.760  13.431 -1.0324 -0.9439 -0.6381
19553TIP3   OH280149   0.286   3.344  14.961  0.0757  0.0026 -0.1799
19553TIP3    H180150   0.271   3.438  14.970  1.0717  0.1228  0.4060
19553TIP3    H280151   0.284   3.329  14.866 -0.8270  0.4709 -0.2482
19554TIP3   OH280152   5.725   6.488   1.663  0.0258 -0.2170  0.5525
19554TIP3    H180153   5.669   6.554   1.624  1.0620  1.2603  1.4794
19554TIP3    H280154   5.796   6.537   1.705  1.6437 -1.9759  0.0483
19555TIP3   OH280155   3.822   0.935  11.601  0.0245  0.0560  0.0697
19555TIP3    H180156   3.847   1.008  11.657  0.8385  0.8386 -1.2394
19555TIP3    H280157   3.770   0.975  11.531  1.9181 -0.2531 -1.6369
19556TIP3   OH280158   6.722   4.198  13.777 -0.0241  0.1886 -0.0783
19556TIP3    H180159   6.713   4.103  13.778 -1.4166  0.2148 -2.4803
19556TIP3    H280160   6.813   4.214  13.804 -0.0514 -1.7195  1.3386
19557TIP3   OH280161   2.492   1.570   5.704  0.2231 -0.0099 -0.0212
19557TIP3    H180162   2.574   1.591   5.659 -0.0954  2.3212  0.3650
19557TIP3    H280163   2.423   1.603   5.645 -0.5010 -2.3122 -0.5440
19558TIP3   OH280164   3.568   6.295   2.592 -0.1388  0.1756  0.1772
19558TIP3    H180165   3.548   6.361   2.526 -1.3085  0.1516  0.4832
19558TIP3    H280166   3.503   6.227   2.579  1.2896 -1.1454 -0.3890
19559TIP3   OH280167   1.056   2.990  14.354 -0.0793  0.9681 -0.9904
19559TIP3    H180168   1.143   3.028  14.340  0.3869  0.7738  1.0785
19559TIP3    H280169   0.996   3.056  14.320  0.7746  2.8930  0.9831
19560TIP3   OH280170   1.038   5.989  10.453 -0.4982  0.5743 -0.4682
19560TIP3    H180171   0.992   5.910  10.425  0.3492 -0.0583 -0.1090
19560TIP3    H280172   1.002   6.009  10.539 -1.1401  0.9358 -0.8124
19561TIP3   OH280173   6.045   3.767  14.534  0.3538  1.0196  0.3994
19561TIP3    H180174   6.077   3.786  14.622 -1.3524 -0.1509  1.3371
19561TIP3    H280175   6.072   3.676  14.518 -2.0688  0.0850  1.1158
19562TIP3   OH280176   4.321   2.517   3.157  0.5145 -0.3093  0.3677
19562TIP3    H180177   4.258   2.515   3.229 -1.1372  1.7602 -0.8949
19562TIP3    H280178   4.271   2.487   3.081  1.0814  1.1292 -0.6094
19563TIP3   OH280179   4.966   4.143  15.660  0.4344  0.1833 -0.6080
19563TIP3    H180180   4.970   4.071  15.597  0.2217 -0.5365  0.1838
19563TIP3    H280181   5.013   4.215  15.617  1.3069 -0.6544 -1.1025
19564TIP3   OH280182   4.238   5.056   1.490  0.2983  0.8694 -0.2991
19564TIP3    H180183   4.256   5.129   1.549  2.9593  0.6324 -0.6695
19564TIP3    H280184   4.217   5.097   1.406 -0.7561  1.1904  0.1140
19565TIP3   OH280185   1.431   4.830   5.434  0.9040 -0.5714 -0.1304
19565TIP3    H180186   1.383   4.762   5.388  1.2656 -2.3411  1.9221
19565TIP3    H280187   1.523   4.806   5.423  1.0583 -0.1822  0.2768
19566TIP3   OH280188   4.258   3.004  12.059  0.3679  0.2311 -0.3333
19566TIP3    H180189   4.340   3.053  12.063  0.5283 -0.1059  1.0932
19566TIP3    H280190   4.228   2.999  12.150 -1.0512  0.0316 -0.7814
19567TIP3   OH280191   4.159   1.383  13.496 -0.5242 -0.3352  0.3088
19567TIP3    H180192   4.231   1.319  13.502  0.2326  0.5320  0.6621
19567TIP3    H280193   4.150   1.399  13.403 -1.3474 -1.6329  0.1333
19568TIP3   OH280194   0.197   0.719  11.294  0.1771 -0.4809  0.1797
19568TIP3    H180195   0.141   0.674  11.231  0.8744 -0.7715 -0.2446
19568TIP3    H280196   0.207   0.807  11.258 -1.3933  0.1368  1.1395
19569TIP3   OH280197   4.231   1.670   4.127  0.5536  0.0390 -0.0359
19569TIP3    H180198   4.293   1.647   4.196 -1.7442 -2.0340  1.5098
19569TIP3    H280199   4.222   1.590   4.076  0.1344  0.7216 -1.0628
19570TIP3   OH280200   3.455   5.628  14.977 -0.2013  0.4059  0.3060
19570TIP3    H180201   3.376   5.579  14.954  1.1162 -2.0741  0.6516
19570TIP3    H280202   3.526   5.581  14.932  1.2637  1.5151  1.3587
19571TIP3   OH280203   0.981   1.693   5.074  0.3309  0.3403  0.3434
19571TIP3    H180204   1.011   1.605   5.049 -1.0172  0.3171 -1.4453
19571TIP3    H280205   1.052   1.751   5.046  0.9538 -0.1193  0.9487
19572TIP3   OH280206   2.379   4.150  12.560  0.4912  0.0881  0.2994
19572TIP3    H180207   2.322   4.174  12.487 -0.0804  0.7375  0.9450
19572TIP3    H280208   2.321   4.144  12.636  1.1310 -0.2108  0.7838
19573TIP3   OH280209   5.125   3.965   1.711  0.3948 -0.4330  0.3362
19573TIP3    H180210   5.129   4.029   1.782 -0.3298 -1.1924  1.0737
19573TIP3    H280211   5.159   4.013   1.635 -4.2557  2.4675 -0.3293
19574TIP3   OH280212   4.548   2.209  16.470  0.2749  0.1223 -0.3826
19574TIP3    H180213   4.628   2.256  16.447  0.4279  0.6259  1.0989
19574TIP3    H280214   4.480   2.252  16.420  0.7731  0.3505 -0.8797
19575TIP3   OH280215   1.801   2.589   1.396 -0.4482 -0.2195 -0.1742
19575TIP3    H180216   1.864   2.624   1.459 -1.0930 -2.0269  1.5961
19575TIP3    H280217   1.846   2.594   1.312  1.6476 -0.4700  0.8635
19576TIP3   OH280218   1.299   3.563   5.273  0.4769 -0.1706  0.2817
19576TIP3    H180219   1.343   3.583   5.355  2.0336 -1.3989 -0.2095
19576TIP3    H280220   1.340   3.482   5.242 -1.4893 -0.8778 -0.6911
19577TIP3   OH280221   2.175   2.785   3.228  0.1821  0.0697  0.0157
19577TIP3    H180222   2.178   2.748   3.316  2.3361  0.1951  0.0680
19577TIP3    H280223   2.254   2.840   3.223 -0.6723  1.2306 -1.5010
19578TIP3   OH280224   0.074   2.701   4.178  0.1861  0.0272 -0.1457
19578TIP3    H180225   0.130   2.699   4.256  0.6831  0.5936 -0.4769
19578TIP3    H280226  -0.005   2.653   4.203 -0.9332  2.5995  1.7095
19579TIP3   OH280227   1.674   4.136  16.694  0.0189 -0.5986 -0.3963
19579TIP3    H180228   1.706   4.222  16.721  1.0816 -1.2304  0.4713
19579TIP3    H280229   1.644   4.148  16.604 -0.2360  0.7615 -0.1478
19580TIP3   OH280230   1.514   1.618  15.668 -0.0638 -0.3252 -0.3113
19580TIP3    H180231   1.497   1.689  15.606 -0.0076 -0.3247 -0.3274
19580TIP3    H280232   1.584   1.567  15.627  1.8275  1.1368  0.8778
19581TIP3   OH280233   3.986   1.626  16.644  0.4364  0.1462 -0.0636
19581TIP3    H180234   4.071   1.584  16.658  0.6531 -0.3439 -2.4020
19581TIP3    H280235   4.002   1.719  16.663  1.4872  0.0509 -0.3989
19582TIP3   OH280236   3.565   5.693  11.388 -0.3799 -0.0230  0.4832
19582TIP3    H180237   3.655   5.671  11.411 -0.5209 -0.1256  0.9417
19582TIP3    H280238   3.512   5.658  11.460 -0.8486 -0.5966 -0.1303
19583TIP3   OH280239   3.626   3.785   0.729  0.1360  0.4428  0.1919
19583TIP3    H180240   3.558   3.743   0.677  0.7439  0.8730 -0.9898
19583TIP3    H280241   3.579   3.847   0.785 -0.5695 -0.3461  0.4859
19584TIP3   OH280242   1.495   0.207   1.496  0.0455 -0.0487 -0.3540
19584TIP3    H180243   1.543   0.190   1.416  1.4539  0.6220  0.3135
19584TIP3    H280244   1.504   0.127   1.547  0.0242 -0.1021 -0.4336
19585TIP3   OH280245   2.786   5.893   5.159  0.3376 -0.2024 -0.2395
19585TIP3    H180246   2.746   5.936   5.234 -0.8113 -0.7867 -0.5071
19585TIP3    H280247   2.878   5.882   5.184 -0.0073 -0.2991  1.0375
19586TIP3   OH280248   3.571   1.615   1.758  0.4204  0.0482 -0.2468
19586TIP3    H180249   3.554   1.614   1.664  2.1299 -1.5810 -0.5952
19586TIP3    H280250   3.515   1.546   1.794  1.4256 -0.8770 -0.4266
19587TIP3   OH280251   4.361   2.343   0.795  0.2926  0.0215 -0.4179
19587TIP3    H180252   4.403   2.428   0.803 -2.1629  1.2135  0.6868
19587TIP3    H280253   4.350   2.330   0.701  1.3798  0.5140 -0.6332
19588TIP3   OH280254   5.787   2.006  12.331  0.3209  0.2747  0.0594
19588TIP3    H180255   5.777   1.959  12.414  0.3936 -0.5222 -0.3688
19588TIP3    H280256   5.729   2.082  12.339 -2.3634 -1.5738 -0.4363
19589TIP3   OH280257   4.818   6.516  11.411 -0.2735  0.0298 -0.1479
19589TIP3    H180258   4.873   6.479  11.342 -0.6211 -0.4456 -0.1764
19589TIP3    H280259   4.869   6.505  11.491 -0.7712 -1.4375 -0.0015
19590TIP3   OH280260   0.507   2.885   1.839 -0.4525 -0.6144 -0.6581
19590TIP3    H180261   0.466   2.900   1.924  0.1311  1.5753 -0.7286
19590TIP3    H280262   0.495   2.791   1.824 -0.2560 -1.1371  1.9763
19591TIP3   OH280263   4.281   0.927  14.922  0.1324 -0.0238 -0.2762
19591TIP3    H180264   4.360   0.965  14.884 -1.5378  1.3245 -2.6808
19591TIP3    H280265   4.222   0.913  14.848 -1.8738 -1.0545  1.3863
19592TIP3   OH280266   1.880   6.028   4.301 -0.1951  0.2451  0.3309
19592TIP3    H180267   1.874   6.098   4.366  0.9785  0.4037  0.2937
19592TIP3    H280268   1.918   5.954   4.348  1.7479  0.7202 -0.4145
19593TIP3   OH280269   2.305   5.668  11.046  0.1545  0.5658 -0.6048
19593TIP3    H180270   2.321   5.651  10.953 -0.0366 -1.6020 -0.2844
19593TIP3    H280271   2.368   5.737  11.069  0.1620  1.1758 -2.3311
19594TIP3   OH280272   1.539   5.725  14.309  0.0306 -0.3717  0.0086
19594TIP3    H180273   1.585   5.691  14.385 -0.9374 -0.3234  0.6324
19594TIP3    H280274   1.474   5.785  14.345  1.0822  1.4959 -0.9938
19595TIP3   OH280275   3.790   1.907  11.986 -0.5490 -0.2526 -0.3194
19595TIP3    H180276   3.701   1.912  11.952  0.5754 -0.3210 -3.5677
19595TIP3    H280277   3.837   1.975  11.939  1.2007 -0.3230  1.2198
19596TIP3   OH280278   2.077   2.972  13.765  0.0534  0.1373  0.1069
19596TIP3    H180279   2.020   3.039  13.804 -0.9625 -0.9416  0.5611
19596TIP3    H280280   2.142   2.955  13.833 -1.2221 -1.1425  1.0858
19597TIP3   OH280281   5.467   3.869   3.147 -0.5718  0.3107  0.1323
19597TIP3    H180282   5.521   3.925   3.202  1.4174 -2.7272  1.5844
19597TIP3    H280283   5.385   3.861   3.194  0.2440 -0.3466  1.5169
19598TIP3   OH280284   1.114   2.304  13.822  0.2620 -0.0557 -0.4074
19598TIP3    H180285   1.118   2.361  13.899 -1.1689  0.8527 -0.9568
19598TIP3    H280286   1.200   2.311  13.782  0.8826 -0.1911  0.8613
19599TIP3   OH280287   1.677   4.891   3.346  0.0103  0.6245  0.3350
19599TIP3    H180288   1.740   4.833   3.388  2.3012  1.2394 -1.9600
19599TIP3    H280289   1.602   4.835   3.327  1.7756 -1.4883 -1.0000
19600TIP3   OH280290   5.524   1.948   4.932 -0.1994 -0.4059  0.1615
19600TIP3    H180291   5.468   1.882   4.974 -0.1580 -1.0518 -0.7610
19600TIP3    H280292   5.571   1.899   4.864  0.9444  0.2807  0.4493
19601TIP3   OH280293   6.595   0.640  11.938  0.0290 -0.5636  0.1744
19601TIP3    H180294   6.573   0.606  12.025 -1.3011 -1.3370 -0.4452
19601TIP3    H280295   6.640   0.723  11.956 -1.4530 -0.0134  1.5915
19602TIP3   OH280296   4.208   2.703  12.215 -0.3763  0.0810 -0.6215
19602TIP3    H180297   4.138   2.652  12.256  0.8860 -1.5828 -0.4493
19602TIP3    H280298   4.190   2.698  12.122  2.1375 -4.7642 -1.1472
19603TIP3   OH280299   5.014   1.675  12.480  0.0256 -0.1264  0.5815
19603TIP3    H180300   4.929   1.696  12.441  0.0993  0.2983  0.6446
19603TIP3    H280301   5.002   1.689  12.574  0.0797 -0.3643  0.6257
19604TIP3   OH280302   6.212   1.590   1.299 -0.1186 -0.1509  0.2977
19604TIP3    H180303   6.296   1.563   1.335 -0.0932  0.6583  0.8821
19604TIP3    H280304   6.208   1.685   1.315 -1.0064 -0.1262  0.0132
19605TIP3   OH280305   5.178   6.431   1.131 -0.4689  0.2361 -0.0734
19605TIP3    H180306   5.145   6.365   1.192 -0.6468 -0.1263 -0.5572
19605TIP3    H280307   5.273   6.433   1.147 -0.5072  0.1052  0.1719
19606TIP3   OH280308   1.284   0.235  13.243  0.5424  0.2340  0.2934
19606TIP3    H180309   1.235   0.223  13.161  1.7692 -1.4667 -0.2276
19606TIP3    H280310   1.283   0.330  13.257 -0.0609  0.5258 -1.4588
19607TIP3   OH280311   2.359   3.901   1.463  0.3513 -0.4659  0.0211
19607TIP3    H180312   2.276   3.900   1.512 -0.2777  0.0174 -1.0087
19607TIP3    H280313   2.335   3.927   1.375  1.6856  0.1909 -0.1736
19608TIP3   OH280314   0.818   1.926  12.991 -0.1212 -0.0974  0.0830
19608TIP3    H180315   0.859   1.992  13.047  0.4320 -0.4034  0.0502
19608TIP3    H280316   0.813   1.848  13.047  0.3220 -0.3701 -0.2478
19609TIP3   OH280317   3.312   5.639   3.609  0.2750 -0.1194 -0.4951
19609TIP3    H180318   3.241   5.616   3.549 -2.3373 -0.6581  2.4735
19609TIP3    H280319   3.342   5.725   3.580 -1.9749  0.3632 -1.6173
19610TIP3   OH280320   6.419   6.231  12.173  0.5220  0.2018  0.0930
19610TIP3    H180321   6.409   6.233  12.268  0.8490 -1.2206  0.1654
19610TIP3    H280322   6.506   6.194  12.158  0.6756  0.8635 -0.7619
19611TIP3   OH280323   3.603   6.272  16.151  0.5958  0.1968  0.1324
19611TIP3    H180324   3.562   6.311  16.228 -0.3900  1.7547 -1.1226
19611TIP3    H280325   3.651   6.196  16.185 -0.0441  0.6674  2.2155
19612TIP3   OH280326   0.552   4.272  16.128 -0.2205  0.4138  0.0785
19612TIP3    H180327   0.616   4.201  16.124 -0.0513  0.5560  0.2472
19612TIP3    H280328   0.600   4.349  16.099 -0.7235  0.2420 -1.2674
19613TIP3   OH280329   5.610   4.877   2.710 -0.2081 -0.1702 -0.7707
19613TIP3    H180330   5.697   4.853   2.678  0.1440 -0.9053  0.6531
19613TIP3    H280331   5.617   4.873   2.805 -1.2808  1.6805 -0.5573
19614TIP3   OH280332   1.932   3.618  11.374  0.0788 -0.2959  0.4890
19614TIP3    H180333   1.893   3.693  11.418  1.0372 -0.3467  1.4515
19614TIP3    H280334   1.970   3.566  11.444  2.3233  0.0049 -0.4340
19615TIP3   OH280335   2.763   6.576   5.599 -0.2640  1.0749 -0.1920
19615TIP3    H180336   2.703   6.591   5.526 -1.8640  2.4667  1.3334
19615TIP3    H280337   2.849   6.597   5.564 -0.9418  1.4039 -1.7545
19616TIP3   OH280338   1.961   2.873  15.759 -0.2966  0.7074 -0.2599
19616TIP3    H180339   1.888   2.811  15.755  1.6166 -1.6693 -0.8450
19616TIP3    H280340   1.956   2.922  15.677  0.6146 -1.7898 -1.9284
19617TIP3   OH280341   6.673   3.098   3.658 -0.7338 -0.2696 -0.0432
19617TIP3    H180342   6.766   3.094   3.636 -0.6374  0.3535  0.2244
19617TIP3    H280343   6.665   3.050   3.740 -0.8510 -1.3345 -0.6583
19618TIP3   OH280344   1.750   4.543  14.509 -0.1088 -0.0224  0.4621
19618TIP3    H180345   1.733   4.500  14.425  0.1109 -0.9922  0.9025
19618TIP3    H280346   1.832   4.504  14.540 -0.3617  0.0766  1.2860
19619TIP3   OH280347   1.661   2.714  16.080 -0.6380  0.0034 -0.1540
19619TIP3    H180348   1.737   2.665  16.113 -1.6430 -1.3246  0.2844
19619TIP3    H280349   1.696   2.766  16.007  0.9659  0.5269  0.9356
19620TIP3   OH280350   2.797   2.707   3.210 -0.0894  0.2063  0.1767
19620TIP3    H180351   2.802   2.671   3.121  3.0564  0.2146  0.2337
19620TIP3    H280352   2.774   2.799   3.197 -1.0655 -0.1050 -0.4797
19621TIP3   OH280353   6.008   6.079   5.536 -0.2775  0.0513  0.1242
19621TIP3    H180354   6.013   6.017   5.464 -0.9956  0.1025  0.0274
19621TIP3    H280355   5.921   6.117   5.530 -0.1351  0.4874  0.6669
19622TIP3   OH280356   4.754   3.061  16.902  0.2572 -0.1718  0.6110
19622TIP3    H180357   4.759   3.081  16.996  0.5381  0.2659  0.5039
19622TIP3    H280358   4.677   3.005  16.894  0.7665 -0.9791  1.2367
19623TIP3   OH280359   2.522   1.248   6.579 -0.0145 -0.7509 -0.2018
19623TIP3    H180360   2.617   1.237   6.580  0.2432  1.0159  1.2386
19623TIP3    H280361   2.489   1.167   6.619  0.8910 -1.2763 -0.4715
19624TIP3   OH280362   1.666   4.994   0.485  0.6456  0.1399  0.0807
19624TIP3    H180363   1.747   5.019   0.530  0.5738 -1.6584  1.2896
19624TIP3    H280364   1.638   4.914   0.529 -3.2421  2.0483  1.5041
19625TIP3   OH280365   0.894   0.752   4.708  0.1484 -0.6365  0.0759
19625TIP3    H180366   0.965   0.794   4.756 -0.8772 -0.0605  1.1407
19625TIP3    H280367   0.861   0.685   4.768 -0.9471 -0.1169  0.0762
19626TIP3   OH280368   2.917   0.864  11.971 -0.2373 -0.2836 -0.6605
19626TIP3    H180369   2.991   0.807  11.988 -0.2427 -0.2571 -0.5423
19626TIP3    H280370   2.943   0.915  11.895  0.3336  0.5162  0.0449
19627TIP3   OH280371   0.209   4.015  15.252 -0.1390  0.2251 -0.0664
19627TIP3    H180372   0.296   4.036  15.220  0.1641  0.9632  1.1788
19627TIP3    H280373   0.153   4.018  15.174  0.8244  0.4086 -0.7612
19628TIP3   OH280374   4.773   5.116  15.682 -0.0016  0.1022 -0.3596
19628TIP3    H180375   4.785   5.026  15.711 -1.3005 -0.4945 -1.6135
19628TIP3    H280376   4.722   5.157  15.752  2.8953  0.7379  1.5992
19629TIP3   OH280377   5.421   0.620   0.700 -0.3267 -0.1235 -0.1538
19629TIP3    H180378   5.341   0.672   0.690 -0.2260 -0.0775 -0.8170
19629TIP3    H280379   5.400   0.536   0.660  0.5130  0.5050 -2.0835
19630TIP3   OH280380   4.934   2.274  13.788 -1.0461  0.3563 -0.8271
19630TIP3    H180381   4.891   2.250  13.871 -0.6636  0.9566 -0.4503
19630TIP3    H280382   4.934   2.369  13.787  0.7871  0.3943 -0.5374
19631TIP3   OH280383   6.610   0.557  17.107  0.1373 -0.3915 -0.4141
19631TIP3    H180384   6.546   0.627  17.096  1.1417  0.4068 -1.4593
19631TIP3    H280385   6.693   0.596  17.081  1.4157 -0.8591  2.6150
19632TIP3   OH280386   3.305   2.907  10.421  0.6960 -0.3038  0.2574
19632TIP3    H180387   3.296   2.997  10.454 -0.0600 -0.5515  0.7685
19632TIP3    H280388   3.330   2.856  10.498  1.9198 -0.4185 -0.1962
19633TIP3   OH280389   4.920   5.340  15.843 -0.2140  0.0862 -0.1513
19633TIP3    H180390   4.879   5.256  15.826  0.2660 -0.1052 -0.3773
19633TIP3    H280391   4.929   5.344  15.938  1.6780 -1.0508 -0.2477
19634TIP3   OH280392   2.310   1.928   3.915  0.7299  0.5681  0.1414
19634TIP3    H180393   2.269   1.954   3.833  1.1152 -0.0924 -0.2661
19634TIP3    H280394   2.399   1.902   3.891  0.4087 -0.9979  0.5303
19635TIP3   OH280395   0.363   6.031   5.177  0.9918  1.1510 -0.5238
19635TIP3    H180396   0.301   6.104   5.176  0.6989  1.0111  1.7068
19635TIP3    H280397   0.436   6.062   5.231  0.5835 -0.3674  0.9947
19636TIP3   OH280398   4.231   0.403  17.165 -0.0866  0.3728 -0.1477
19636TIP3    H180399   4.180   0.406  17.084 -3.4213 -1.6608  1.6717
19636TIP3    H280400   4.204   0.480  17.214  0.6325  0.6920 -0.2456
19637TIP3   OH280401   2.564   1.557  11.543  0.1824  0.2423 -0.1088
19637TIP3    H180402   2.471   1.576  11.555  0.0912 -0.1138 -0.2398
19637TIP3    H280403   2.587   1.603  11.462 -0.5472 -1.8707 -1.5999
19638TIP3   OH280404   1.159   0.697   4.395  0.0979  0.2670 -0.7236
19638TIP3    H180405   1.092   0.681   4.463 -0.0294 -1.1211 -1.1551
19638TIP3    H280406   1.114   0.680   4.313  0.3458  1.6409 -1.1646
19639TIP3   OH280407   4.646   2.127   3.216 -0.0336  0.1402 -0.2373
19639TIP3    H180408   4.653   2.221   3.200  2.2879 -0.0262 -0.4773
19639TIP3    H280409   4.641   2.120   3.311  0.0883  0.4880 -0.2016
19640TIP3   OH280410   2.716   4.508   3.832  0.3797  0.3694  0.1754
19640TIP3    H180411   2.669   4.489   3.751  1.5862  2.4271 -1.0846
19640TIP3    H280412   2.654   4.560   3.884  0.0788  0.1897  0.0022
19641TIP3   OH280413   1.817   4.424  15.950 -0.1717 -0.1461 -0.5196
19641TIP3    H180414   1.747   4.359  15.947 -1.3298  1.0828 -1.4545
19641TIP3    H280415   1.779   4.501  15.908  1.2132  1.0805  0.4059
19642TIP3   OH280416   0.107   0.841   0.592  0.3011  0.2750  0.2319
19642TIP3    H180417   0.201   0.849   0.610  0.3248 -0.3673  0.4030
19642TIP3    H280418   0.093   0.747   0.579 -0.0986  0.4853 -1.0368
19643TIP3   OH280419   4.530   1.119  16.610  0.0091  0.2652  0.1185
19643TIP3    H180420   4.582   1.039  16.623 -1.2741 -0.5648  0.2694
19643TIP3    H280421   4.595   1.185  16.582  1.2178 -0.5934  0.8000
19644TIP3   OH280422   1.908   6.088  14.403  0.2946  0.3022  0.2509
19644TIP3    H180423   1.838   6.152  14.417  0.4308  0.3829  0.5777
19644TIP3    H280424   1.868   6.004  14.423  0.0386  0.2531 -0.4439
19645TIP3   OH280425   2.099   0.147  12.363  0.4172  0.0795  0.3685
19645TIP3    H180426   2.192   0.167  12.374 -0.0714  2.4950  0.5410
19645TIP3    H280427   2.058   0.231  12.345 -1.8380 -0.8522  0.8045
19646TIP3   OH280428   1.950   3.112   4.704  0.1962  0.6388  0.3082
19646TIP3    H180429   1.995   3.035   4.739 -0.5415  1.0127  2.2124
19646TIP3    H280430   2.015   3.155   4.648  0.6561 -1.2815 -0.7556
19647TIP3   OH280431   1.656   4.494  12.073 -0.4132  0.1885  0.0958
19647TIP3    H180432   1.625   4.496  11.983  0.7407 -0.2171 -0.3305
19647TIP3    H280433   1.582   4.524  12.125 -0.6821  1.6816 -1.0938
19648TIP3   OH280434   1.499   6.724   5.940  0.1482  1.2198 -0.2094
19648TIP3    H180435   1.530   6.782   6.010  0.3177  0.3848  0.4125
19648TIP3    H280436   1.571   6.663   5.926 -0.7053  0.0516  0.3647
19649TIP3   OH280437   2.558   6.597  15.966  0.3336  0.6632 -0.4085
19649TIP3    H180438   2.484   6.622  15.911 -1.6913 -3.2404  0.2337
19649TIP3    H280439   2.524   6.595  16.055  1.1198 -1.2383 -0.0949
19650TIP3   OH280440   0.038   1.017  12.179  0.0859  0.2683  0.0352
19650TIP3    H180441   0.028   1.112  12.172  1.4228  0.3374 -1.7208
19650TIP3    H280442  -0.008   0.983  12.102  1.2691 -0.3319 -0.4292
19651TIP3   OH280443   1.815   2.690   1.811  0.2768 -0.2541 -0.1296
19651TIP3    H180444   1.905   2.703   1.781  0.2155 -1.3114 -0.8157
19651TIP3    H280445   1.816   2.604   1.852 -0.7181 -0.9110 -1.4134
19652TIP3   OH280446   4.628   3.428  14.730 -0.2096 -0.4734 -0.6843
19652TIP3    H180447   4.709   3.458  14.689  0.7206 -0.0034  1.3555
19652TIP3    H280448   4.582   3.509  14.751 -0.8161 -0.7163 -1.0703
19653TIP3   OH280449   0.259   0.889  12.522  0.2490  0.4240  0.0903
19653TIP3    H180450   0.253   0.801  12.560  1.9251  0.0157 -0.5049
19653TIP3    H280451   0.326   0.933  12.575  0.4583  0.8467 -0.5173
19654TIP3   OH280452   4.183   3.281  16.872  0.0915  0.1433  0.1902
19654TIP3    H180453   4.111   3.219  16.858 -0.2947  0.7020 -0.3455
19654TIP3    H280454   4.180   3.301  16.965 -3.1947  3.3710 -0.3478
19655TIP3   OH280455   2.682   2.161   0.334  0.1026 -0.6436 -0.9992
19655TIP3    H180456   2.711   2.089   0.277 -1.7382 -1.6350 -0.7468
19655TIP3    H280457   2.698   2.129   0.422  1.2944  0.1761 -0.8946
19656TIP3   OH280458   2.734   6.636  16.332  0.2121  0.2491 -0.6631
19656TIP3    H180459   2.779   6.641  16.416  1.5424 -2.3052 -1.1016
19656TIP3    H280460   2.684   6.554  16.336 -0.4098  0.5226 -2.0386
19657TIP3   OH280461   2.931   5.098  14.380 -0.0498  0.1043  0.0183
19657TIP3    H180462   2.975   5.178  14.349  0.8559 -0.6317 -0.6557
19657TIP3    H280463   2.839   5.112  14.360 -0.2109  1.7615  1.5948
19658TIP3   OH280464   0.886   5.937   5.774 -0.0729  0.0244  0.5503
19658TIP3    H180465   0.836   5.902   5.848 -2.8245  0.1075 -1.1290
19658TIP3    H280466   0.948   5.868   5.752  0.4038 -0.2381  2.5301
19659TIP3   OH280467   5.275   4.482  10.859  0.1102 -0.0440 -0.7451
19659TIP3    H180468   5.365   4.465  10.831  0.1261 -0.6121 -0.3597
19659TIP3    H280469   5.222   4.464  10.782  0.1648 -1.5000 -0.4796
19660TIP3   OH280470   5.539   4.103  12.530  0.2206 -0.3410 -0.0482
19660TIP3    H180471   5.563   4.017  12.495 -0.8612 -0.4672 -0.5217
19660TIP3    H280472   5.619   4.135  12.571  0.8272 -1.2836 -0.4524
19661TIP3   OH280473   1.769   6.090   0.766  0.7509  0.8350  0.3412
19661TIP3    H180474   1.756   6.181   0.738 -2.6979  0.0946 -0.9272
19661TIP3    H280475   1.807   6.047   0.690 -0.5351  0.6107 -0.1926
19662TIP3   OH280476   0.355   1.123   1.140 -0.9544  0.1198 -0.1980
19662TIP3    H180477   0.414   1.123   1.216 -1.1552  0.4877 -0.0358
19662TIP3    H280478   0.334   1.216   1.127 -0.8899  0.0620 -0.7309
19663TIP3   OH280479   4.916   3.055   1.310  0.0431  0.0122  0.0456
19663TIP3    H180480   4.981   3.071   1.378 -0.6558 -0.5625  0.8580
19663TIP3    H280481   4.950   2.980   1.261  0.3587  0.1892 -0.0114
19664TIP3   OH280482   2.955   0.592  16.216 -0.0348 -0.4242  0.1335
19664TIP3    H180483   2.984   0.652  16.285  0.5493 -1.9560  1.2690
19664TIP3    H280484   2.864   0.573  16.236 -0.3359  0.3593 -0.4510
19665TIP3   OH280485   3.906   1.096   5.347  0.8788  0.0305  0.2426
19665TIP3    H180486   3.873   1.063   5.264  0.0033  2.0929 -0.2902
19665TIP3    H280487   3.994   1.060   5.354  1.6359  1.1175 -2.4330
19666TIP3   OH280488   4.786   1.656  15.181 -0.5043 -0.3086  0.0148
19666TIP3    H180489   4.708   1.628  15.132 -0.6450 -0.4758  0.3331
19666TIP3    H280490   4.775   1.618  15.268 -0.0036 -0.4381  0.0279
19667TIP3   OH280491   1.656   2.177   3.913  0.4628 -0.3227  0.0787
19667TIP3    H180492   1.725   2.165   3.848  1.4277  0.6729  0.8718
19667TIP3    H280493   1.600   2.245   3.876 -0.5124 -1.6153 -0.8760
19668TIP3   OH280494   0.823   5.309  15.835 -0.1431  0.9449  0.1094
19668TIP3    H180495   0.805   5.219  15.810  1.2870  0.7694 -0.3506
19668TIP3    H280496   0.887   5.340  15.770  0.4171  1.8518  1.0643
19669TIP3   OH280497   3.339   2.546  16.968 -0.1394 -0.0720  0.0173
19669TIP3    H180498   3.374   2.635  16.965 -1.4222  0.4852  0.7790
19669TIP3    H280499   3.413   2.491  16.943  0.2085  1.3056 -2.2927
19670TIP3   OH280500   1.025   1.871   2.451  0.1682  0.7235  0.0243
19670TIP3    H180501   1.009   1.965   2.440  1.6077  1.0057  0.0616
19670TIP3    H280502   1.070   1.865   2.536  0.8942  0.1210 -0.3856
19671TIP3   OH280503   2.566   6.161  12.133  0.0301  0.0173 -0.2475
19671TIP3    H180504   2.475   6.176  12.110  0.2558  0.1594 -1.0771
19671TIP3    H280505   2.616   6.216  12.073  0.6272  1.1282  1.1969
19672TIP3   OH280506   4.442   3.365  11.522 -0.2081 -0.4446 -0.5065
19672TIP3    H180507   4.410   3.424  11.591 -0.3336 -1.9492  0.7639
19672TIP3    H280508   4.430   3.415  11.441  1.9166  2.2586  0.6650
19673TIP3   OH280509   5.746   0.195   5.336 -0.5170 -0.8242 -0.4483
19673TIP3    H180510   5.693   0.123   5.371  0.2903 -0.8375  0.7953
19673TIP3    H280511   5.682   0.258   5.303 -1.4581  0.1354  2.8953
19674TIP3   OH280512   0.728   2.773  12.634 -0.4767 -0.6027 -0.4431
19674TIP3    H180513   0.715   2.739  12.545 -1.2455  1.1862 -1.0737
19674TIP3    H280514   0.640   2.801  12.662  0.0532  0.6272  0.0814
19675TIP3   OH280515   5.001   3.596  15.218  0.2696  0.1376  0.1037
19675TIP3    H180516   4.906   3.595  15.206  0.0727 -2.6807  1.1340
19675TIP3    H280517   5.013   3.605  15.313  1.1361  1.9499 -0.1289
19676TIP3   OH280518   0.403   3.301   4.429 -0.4132 -0.1374 -0.2615
19676TIP3    H180519   0.370   3.327   4.343 -0.8681 -1.4464 -0.5173
19676TIP3    H280520   0.489   3.343   4.436  0.9801 -2.2951 -2.6527
19677TIP3   OH280521   0.501   4.552  14.139 -0.3802 -0.2429  0.3547
19677TIP3    H180522   0.577   4.494  14.152 -0.1203  0.2409  1.0142
19677TIP3    H280523   0.509   4.618  14.207 -0.6240  0.6431 -0.4497
19678TIP3   OH280524   5.318   1.345  13.965 -0.3024 -0.0035  0.1371
19678TIP3    H180525   5.390   1.405  13.983  0.1791 -0.4029 -0.3909
19678TIP3    H280526   5.354   1.284  13.900 -1.2393  0.0298 -0.4362
19679TIP3   OH280527   3.770   4.404  11.602  0.0033 -0.0784 -0.1725
19679TIP3    H180528   3.850   4.447  11.632  0.8932 -0.8454 -1.3316
19679TIP3    H280529   3.798   4.316  11.578 -1.5508 -0.9532  1.0350
19680TIP3   OH280530   5.133   6.794   0.568  0.5509 -0.3853 -0.2596
19680TIP3    H180531   5.188   6.835   0.501  0.7573 -1.9638 -1.0971
19680TIP3    H280532   5.136   6.856   0.642  0.2720  1.4375 -1.6873
19681TIP3   OH280533   3.327   5.277  10.867 -0.7205 -0.2299 -0.5005
19681TIP3    H180534   3.365   5.340  10.806  0.1052  1.2456  1.3995
19681TIP3    H280535   3.278   5.217  10.812 -0.7347  1.4946 -2.5244
19682TIP3   OH280536   1.010   4.453  13.160  0.3001 -0.2238 -0.1559
19682TIP3    H180537   1.059   4.533  13.177  0.2555 -0.2254 -0.0193
19682TIP3    H280538   1.037   4.393  13.230  0.8933 -0.5797 -0.6752
19683TIP3   OH280539   2.349   5.868   3.148  0.0156  0.2378  0.4204
19683TIP3    H180540   2.389   5.849   3.233 -1.8523  0.1055  1.3262
19683TIP3    H280541   2.306   5.953   3.160 -0.4177  0.1345 -0.3373
19684TIP3   OH280542   3.195   4.293   4.641 -0.0812  0.3707 -0.3591
19684TIP3    H180543   3.183   4.205   4.678 -0.1313  0.9732  1.1469
19684TIP3    H280544   3.121   4.304   4.581 -0.6764 -0.2270  0.2443
19685TIP3   OH280545   4.403   3.029   1.014 -0.0503 -0.4290 -0.3790
19685TIP3    H180546   4.381   3.116   0.981 -3.0783 -1.6298 -2.0002
19685TIP3    H280547   4.352   3.022   1.095 -0.5637 -0.9675 -0.7388
19686TIP3   OH280548   2.084   5.147  13.033 -0.3439 -0.1449 -0.5070
19686TIP3    H180549   2.129   5.063  13.035 -0.2324 -0.0826 -0.3738
19686TIP3    H280550   2.097   5.184  13.121 -1.0501 -0.3373 -0.3158
19687TIP3   OH280551   1.570   2.850   3.758 -0.0451  0.3400  0.0739
19687TIP3    H180552   1.481   2.816   3.758 -0.4592  1.3636  0.4072
19687TIP3    H280553   1.565   2.928   3.702  0.7253  0.2127 -0.1844
19688TIP3   OH280554   0.062   0.847   1.990  0.1705  0.3339 -0.1084
19688TIP3    H180555   0.055   0.764   1.944  2.1050  0.9712 -1.7175
19688TIP3    H280556   0.072   0.912   1.920  1.4154  1.5721  1.1457
19689TIP3   OH280557   5.458   2.540  15.553  0.4256  0.0580 -0.2012
19689TIP3    H180558   5.517   2.467  15.535  0.5960  0.2543 -0.4501
19689TIP3    H280559   5.401   2.546  15.476  0.8040  0.5594 -0.4533
19690TIP3   OH280560   5.479   5.830   6.329 -0.0890  0.3871 -0.5480
19690TIP3    H180561   5.531   5.751   6.314 -0.7021  0.2462 -2.0698
19690TIP3    H280562   5.539   5.890   6.373  0.1150 -1.2216  1.5669
19691TIP3   OH280563   3.586   3.153  14.976 -0.4592 -0.0331 -0.4723
19691TIP3    H180564   3.637   3.094  14.921  0.9197  0.0936  0.6369
19691TIP3    H280565   3.586   3.111  15.062 -0.2752  1.1150  0.0968
19692TIP3   OH280566   4.658   5.431  12.021  0.5340  0.7207 -0.5860
19692TIP3    H180567   4.668   5.526  12.015  0.9889  0.6759 -0.5847
19692TIP3    H280568   4.682   5.410  12.111 -0.9168  0.7570 -0.1667
19693TIP3   OH280569   3.014   6.596   5.469  0.0896 -0.2840 -0.9853
19693TIP3    H180570   2.999   6.685   5.437  0.6152  0.3957  0.5926
19693TIP3    H280571   3.090   6.566   5.419  1.9824  1.3956  0.6892
19694TIP3   OH280572   1.261   0.351  16.737  0.2837 -0.0263 -0.0427
19694TIP3    H180573   1.215   0.309  16.809 -1.2029  3.3680  1.2099
19694TIP3    H280574   1.344   0.379  16.776 -0.3185  1.3855  0.2905
19695TIP3   OH280575   6.639   5.245  13.734 -0.3061  0.2462 -0.4985
19695TIP3    H180576   6.713   5.198  13.695  0.9409  1.5420  0.2206
19695TIP3    H280577   6.663   5.338  13.727 -1.1090  0.6172  1.2596
19696TIP3   OH280578   0.747   3.019   5.769  0.1962  0.3364  0.5076
19696TIP3    H180579   0.733   2.928   5.797 -1.0713  0.1212 -0.7415
19696TIP3    H280580   0.807   3.054   5.835  0.5160 -1.3210  1.1684
19697TIP3   OH280581   6.821   2.731  14.719  0.4195  0.1184 -0.3139
19697TIP3    H180582   6.728   2.714  14.734 -0.0312  1.2417 -1.6510
19697TIP3    H280583   6.827   2.826  14.710  1.9803  0.2550  1.4684
19698TIP3   OH280584   6.012   3.066   5.742  0.5646  0.2711  0.2752
19698TIP3    H180585   5.965   3.138   5.700  0.8014  0.4156  0.2541
19698TIP3    H280586   6.089   3.052   5.687  0.4378 -0.1073  0.1890
19699TIP3   OH280587   3.921   5.850  11.760  0.4804  0.5993  0.3337
19699TIP3    H180588   3.924   5.914  11.688 -1.9234  0.6604  0.2052
19699TIP3    H280589   3.874   5.775  11.723  0.8004 -0.1197  1.3382
19700TIP3   OH280590   4.720   4.350  11.486 -0.3979  0.1924 -0.0297
19700TIP3    H180591   4.633   4.390  11.483  0.2670  2.5642  3.9250
19700TIP3    H280592   4.709   4.275  11.545  0.3997  1.5626  1.9913
19701TIP3   OH280593   4.297   2.979   1.748 -0.1232 -0.3518  0.4574
19701TIP3    H180594   4.313   2.886   1.762  2.0037 -0.2920 -1.0811
19701TIP3    H280595   4.203   2.989   1.763 -0.5576 -2.8805  0.0061
19702TIP3   OH280596   5.727   4.295   2.408  0.4395 -0.2237 -0.0869
19702TIP3    H180597   5.708   4.352   2.334  0.6561  0.5420  0.4264
19702TIP3    H280598   5.669   4.327   2.478 -0.3602 -1.4614 -0.1646
19703TIP3   OH280599   5.312   2.698   3.812  0.4805  0.5548  0.2345
19703TIP3    H180600   5.340   2.789   3.797  1.4049  0.3391  0.5945
19703TIP3    H280601   5.256   2.678   3.737  1.2726  1.0166 -0.5015
19704TIP3   OH280602   6.662   3.659   0.597 -0.2065  0.5033  0.2469
19704TIP3    H180603   6.754   3.668   0.570  0.2388  2.1962  2.0972
19704TIP3    H280604   6.654   3.567   0.622  0.7654  0.1522 -0.6195
19705TIP3   OH280605   3.224   3.125  16.651 -0.6389 -0.2242  0.1917
19705TIP3    H180606   3.303   3.118  16.598 -1.3871  0.6308 -1.0787
19705TIP3    H280607   3.218   3.218  16.674 -0.4406 -0.5448  1.6232
19706TIP3   OH280608   3.368   3.662   0.719 -0.3705 -0.4551 -0.7543
19706TIP3    H180609   3.301   3.697   0.777 -0.7295 -1.1194 -0.7658
19706TIP3    H280610   3.423   3.608   0.775  1.2499  1.4644 -0.3586
19707TIP3   OH280611   5.325   1.418  14.888 -0.0178 -0.5110  0.3987
19707TIP3    H180612   5.293   1.362  14.959 -0.5154 -0.5015  0.1892
19707TIP3    H280613   5.251   1.475  14.867 -0.6212 -1.8665 -1.5011
19708TIP3   OH280614   0.372   6.617  15.832 -0.1529 -0.3730 -0.1597
19708TIP3    H180615   0.451   6.593  15.784 -0.9371  1.5794 -2.6388
19708TIP3    H280616   0.375   6.712  15.839  0.2518 -0.4730  4.5521
19709TIP3   OH280617   6.778   4.936   6.440 -0.0777  0.1689  0.0555
19709TIP3    H180618   6.766   4.894   6.354  1.8174 -2.5599  0.9899
19709TIP3    H280619   6.689   4.959   6.468 -0.9761 -1.0628 -1.5921
19710TIP3   OH280620   4.419   6.040  11.849 -0.1216  0.0996 -0.3838
19710TIP3    H180621   4.393   6.129  11.873 -0.0132  0.1744 -0.5444
19710TIP3    H280622   4.353   6.013  11.785 -0.4872 -0.1491  0.0871
19711TIP3   OH280623   3.481   2.934   5.566  0.2390  0.5748  0.7166
19711TIP3    H180624   3.402   2.963   5.522 -0.7976  1.1111  2.8052
19711TIP3    H280625   3.476   2.838   5.564 -0.2478  0.6029  0.4536
19712TIP3   OH280626   0.171   0.864  13.030  0.1131  0.2426 -0.1362
19712TIP3    H180627   0.258   0.895  13.055  0.7070 -1.5621  0.1995
19712TIP3    H280628   0.166   0.879  12.936  1.4728 -1.0847 -0.4681
19713TIP3   OH280629   2.079   5.251  12.323 -0.1161 -0.2127 -0.4236
19713TIP3    H180630   2.057   5.176  12.268  0.0191 -0.7883  0.2839
19713TIP3    H280631   2.038   5.230  12.407 -1.0049  1.0197 -0.5225
19714TIP3   OH280632   2.192   6.056  16.765 -0.0140 -0.3169 -0.3520
19714TIP3    H180633   2.269   6.093  16.810 -0.6989  0.4637  0.2239
19714TIP3    H280634   2.181   5.969  16.803  0.6560 -0.4862 -0.5313
19715TIP3   OH280635   1.557   1.054   4.329  0.2842 -1.3340 -0.0035
19715TIP3    H180636   1.607   1.086   4.403 -0.1370 -0.3857 -0.1214
19715TIP3    H280637   1.469   1.042   4.363 -0.4150  1.0329 -0.7936
19716TIP3   OH280638   5.288   5.733  13.598 -0.1826 -0.6574 -0.1189
19716TIP3    H180639   5.318   5.647  13.571  0.0417 -0.8315  0.6753
19716TIP3    H280640   5.193   5.725  13.602 -0.1688 -0.8368 -0.1521
19717TIP3   OH280641   3.300   3.045   4.931 -0.5577 -0.1233 -0.0630
19717TIP3    H180642   3.227   3.029   4.870 -0.1669 -1.2913 -0.2445
19717TIP3    H280643   3.378   3.023   4.881 -0.0598  1.0792  0.1497
19718TIP3   OH280644   0.175   3.877   2.815  0.2353 -0.0159 -0.0760
19718TIP3    H180645   0.222   3.947   2.861 -0.3975  0.1079  0.3975
19718TIP3    H280646   0.094   3.866   2.865  0.7733 -1.7973  0.4795
19719TIP3   OH280647   2.546   2.264  14.942  0.6370  0.0447  0.2740
19719TIP3    H180648   2.530   2.286  15.034  2.2504 -1.0011  0.8477
19719TIP3    H280649   2.479   2.313  14.894  1.2398  2.5210  1.7986
19720TIP3   OH280650   3.500   3.314   4.842  0.2709  0.1280 -0.4315
19720TIP3    H180651   3.535   3.308   4.753  0.7477  2.0270 -0.4239
19720TIP3    H280652   3.405   3.310   4.830  0.3281  0.4673 -1.0481
19721TIP3   OH280653   5.555   3.601   3.146 -0.2879  0.3703  0.5265
19721TIP3    H180654   5.478   3.578   3.198 -0.3831  0.7109  0.5392
19721TIP3    H280655   5.550   3.696   3.137 -2.8445  0.0731 -3.9711
19722TIP3   OH280656   4.921   3.182   6.061 -0.1244  0.4530 -0.2453
19722TIP3    H180657   4.848   3.205   6.119  0.5526  0.0105  0.8090
19722TIP3    H280658   5.000   3.200   6.112  0.4817 -1.0062 -0.6120
19723TIP3   OH280659   0.221   1.384  14.508  0.2389  0.4790  0.3057
19723TIP3    H180660   0.305   1.428  14.522  0.9586 -0.9121  0.5558
19723TIP3    H280661   0.219   1.366  14.414  0.9446 -0.8334  0.5215
19724TIP3   OH280662   3.045   3.338  15.581 -0.3456  0.4403  0.1075
19724TIP3    H180663   3.017   3.253  15.547 -0.2709 -0.0214  1.1693
19724TIP3    H280664   3.122   3.360  15.530 -0.4652 -0.0463 -0.2921
19725TIP3   OH280665   3.178   2.934   1.858 -0.0193 -0.6813 -0.2112
19725TIP3    H180666   3.084   2.951   1.869 -0.0548  0.2754 -1.6838
19725TIP3    H280667   3.218   2.969   1.938 -0.7071  1.1523 -0.6120
19726TIP3   OH280668   5.411   4.768  12.439 -0.0108 -0.0802  0.4670
19726TIP3    H180669   5.444   4.710  12.371  1.0437 -0.6627  1.4477
19726TIP3    H280670   5.324   4.732  12.460 -0.6494  0.5201 -1.0180
19727TIP3   OH280671   1.087   3.688  12.398 -0.8060  0.2491  0.4868
19727TIP3    H180672   1.090   3.783  12.392 -1.0801  0.2640  0.5953
19727TIP3    H280673   0.994   3.667  12.403 -0.7134  0.0180  1.2418
19728TIP3   OH280674   2.308   3.209   0.653  0.3735  0.5177  0.0155
19728TIP3    H180675   2.281   3.290   0.610  1.4785  0.7437 -0.2654
19728TIP3    H280676   2.270   3.215   0.740  0.5590  1.3956  0.0426
19729TIP3   OH280677   2.702   0.559  13.926  0.3396  0.3652  0.1970
19729TIP3    H180678   2.672   0.533  13.839 -0.5348 -0.0013  0.5892
19729TIP3    H280679   2.763   0.631  13.911  1.2680 -0.5937 -0.8010
19730TIP3   OH280680   3.759   1.038   2.176  0.1988 -0.1155 -0.4218
19730TIP3    H180681   3.767   1.131   2.197 -0.3401 -0.1070 -0.2499
19730TIP3    H280682   3.679   1.032   2.123  0.4927 -0.4133 -0.8414
19731TIP3   OH280683   4.649   0.592   3.046 -0.6717  0.1947 -0.3913
19731TIP3    H180684   4.673   0.679   3.013 -1.6005  0.7456  0.3088
19731TIP3    H280685   4.558   0.580   3.018  0.2366 -1.7579 -2.8347
19732TIP3   OH280686   1.290   6.330  16.676 -0.1066  0.5220  0.1268
19732TIP3    H180687   1.304   6.237  16.656 -1.6270  0.4470 -0.7611
19732TIP3    H280688   1.217   6.330  16.737  0.3640  1.1095  0.6956
19733TIP3   OH280689   2.178   1.097   6.287  0.1669 -0.2186  0.2653
19733TIP3    H180690   2.092   1.138   6.297  0.0471 -0.4278  0.1031
19733TIP3    H280691   2.171   1.014   6.333  0.3751 -0.1048  0.5020
19734TIP3   OH280692   4.343   3.108  16.529 -0.0995 -0.2366 -0.0539
19734TIP3    H180693   4.343   3.110  16.625  0.5183 -0.7431 -0.0313
19734TIP3    H280694   4.429   3.071  16.507  0.6536  1.8783 -0.8674
19735TIP3   OH280695   5.689   5.589   3.812 -0.2595  0.1530  0.5669
19735TIP3    H180696   5.745   5.522   3.774 -2.5705 -1.3307 -0.4653
19735TIP3    H280697   5.672   5.560   3.901 -0.3553 -0.0452  0.4838
19736TIP3   OH280698   4.793   1.806  12.607  0.1770  0.3428 -0.1088
19736TIP3    H180699   4.725   1.793  12.540  0.7746  0.8388 -0.8310
19736TIP3    H280700   4.806   1.901  12.610 -0.8544  0.4763  1.7651
19737TIP3   OH280701   2.209   0.857  14.539  0.2730  0.1749 -0.2200
19737TIP3    H180702   2.203   0.952  14.544  1.8284  0.2510  1.3920
19737TIP3    H280703   2.300   0.840  14.514  0.4271 -0.8671  0.8998
19738TIP3   OH280704   5.021   4.822   0.702  0.2621 -0.2276 -0.1989
19738TIP3    H180705   4.960   4.834   0.629  0.2107 -0.6808 -0.2342
19738TIP3    H280706   5.014   4.729   0.724 -1.6263  0.3782  2.0744
19739TIP3   OH280707   1.271   5.667   4.831  0.0194  0.0259  0.0480
19739TIP3    H180708   1.216   5.611   4.887  0.8754  0.9415  1.8652
19739TIP3    H280709   1.347   5.613   4.811 -0.1701 -0.2086 -0.0610
19740TIP3   OH280710   2.457   0.129   1.073  0.1522  0.5136  0.0361
19740TIP3    H180711   2.535   0.078   1.095  0.3336  0.5913 -0.4167
19740TIP3    H280712   2.393   0.065   1.042  0.4232  0.5657 -0.6521
19741TIP3   OH280713   1.379   2.268   1.254  0.1165  0.3422  0.4485
19741TIP3    H180714   1.443   2.314   1.309 -0.2716  1.6006 -0.1096
19741TIP3    H280715   1.407   2.288   1.164 -1.7918  2.0816  0.1580
19742TIP3   OH280716   2.311   0.315   2.209  0.0418 -0.1018  0.3488
19742TIP3    H180717   2.226   0.272   2.218 -0.2335  0.1061 -0.9798
19742TIP3    H280718   2.309   0.353   2.120  0.6761  1.7283  1.0607
19743TIP3   OH280719   3.329   3.668  12.631 -0.3316  0.3698 -0.0289
19743TIP3    H180720   3.267   3.595  12.628  0.1229 -0.0130 -0.4278
19743TIP3    H280721   3.294   3.727  12.697 -2.6493  1.5438 -2.1260
19744TIP3   OH280722   1.809   3.692  16.767  0.3181 -0.1024  0.4429
19744TIP3    H180723   1.872   3.699  16.696 -2.1242  0.2969 -1.8678
19744TIP3    H280724   1.772   3.780  16.776 -1.8044 -0.8403 -0.2713
19745TIP3   OH280725   3.332   3.145  15.769 -0.9210  0.1751 -0.0132
19745TIP3    H180726   3.383   3.090  15.829 -0.3782  1.6829  0.9762
19745TIP3    H280727   3.295   3.084  15.705 -0.0868 -1.2782  0.8456
19746TIP3   OH280728   0.170   0.361  14.492  0.1665  0.1314  0.1045
19746TIP3    H180729   0.109   0.304  14.538  0.6809  1.5449  2.7626
19746TIP3    H280730   0.257   0.330  14.517  0.4574  1.4993  0.8939
19747TIP3   OH280731   0.517   5.544   4.545  0.3361 -0.4462 -0.0408
19747TIP3    H180732   0.599   5.581   4.512 -0.1048  0.1099 -0.5463
19747TIP3    H280733   0.483   5.611   4.605  1.4466 -1.7077  2.1407
19748TIP3   OH280734   4.997   2.193  15.167  0.1396  0.1201 -0.0382
19748TIP3    H180735   5.015   2.228  15.254  2.8878 -2.0554  0.4033
19748TIP3    H280736   4.972   2.101  15.183 -0.6223  0.0575 -1.4692
19749TIP3   OH280737   2.378   4.597  12.179 -0.1293 -0.2520 -0.0857
19749TIP3    H180738   2.285   4.581  12.166  0.0274 -1.0705 -0.2508
19749TIP3    H280739   2.381   4.679  12.228 -0.8680  0.6784 -1.5394
19750TIP3   OH280740   6.821   0.533   2.686  0.2327  0.0712  0.4961
19750TIP3    H180741   6.877   0.533   2.763  1.8048 -1.3752 -0.5562
19750TIP3    H280742   6.871   0.485   2.620 -1.8162 -0.3563 -0.8613
19751TIP3   OH280743   0.620   0.567  11.426 -0.2623  0.0554 -0.0386
19751TIP3    H180744   0.701   0.519  11.407 -0.4581  0.2556 -1.5075
19751TIP3    H280745   0.563   0.547  11.352 -1.7107 -0.3690  1.1490
19752TIP3   OH280746   0.865   3.471   3.461 -0.4162  0.3340  0.6043
19752TIP3    H180747   0.810   3.416   3.517 -0.3993 -0.9848 -0.6207
19752TIP3    H280748   0.861   3.429   3.375  2.7755 -0.0494  0.5243
19753TIP3   OH280749   2.883   2.437   4.076 -0.0186  0.0352 -0.9024
19753TIP3    H180750   2.927   2.454   3.992 -0.2222 -0.9921 -1.2244
19753TIP3    H280751   2.792   2.421   4.053 -0.2017  0.3532 -0.4154
19754TIP3   OH280752   5.680   2.166  15.009 -0.0764 -0.4950 -0.6021
19754TIP3    H180753   5.656   2.256  15.030 -1.2607 -1.0703  0.7536
19754TIP3    H280754   5.740   2.173  14.935 -1.3428  1.3091 -1.5335
19755TIP3   OH280755   1.127   5.553  14.397  0.4281 -0.1302 -0.2644
19755TIP3    H180756   1.177   5.504  14.331 -1.7760 -0.9177 -1.4488
19755TIP3    H280757   1.037   5.551  14.365 -0.5450  0.4582  2.2357
19756TIP3   OH280758   2.580   2.626   5.046 -0.2391 -0.1363 -0.2823
19756TIP3    H180759   2.578   2.559   5.115 -2.2811  1.2229  1.0784
19756TIP3    H280760   2.507   2.604   4.989  0.3124 -0.1682 -0.9971
19757TIP3   OH280761   6.292   6.181   4.414 -0.4331 -0.2803  0.1950
19757TIP3    H180762   6.203   6.211   4.435 -0.6676 -0.4014 -0.5918
19757TIP3    H280763   6.342   6.262   4.402 -0.1938 -0.2063  1.5894
19758TIP3   OH280764   4.898   5.090  14.097  0.0763  0.1042  0.3462
19758TIP3    H180765   4.897   5.048  14.184 -2.2175  1.6239  1.1646
19758TIP3    H280766   4.836   5.038  14.045 -1.2883  1.2310  0.7747
19759TIP3   OH280767   0.065   4.029   0.356  0.3736  0.4417 -0.0317
19759TIP3    H180768   0.141   3.971   0.348 -1.1730 -1.5931 -1.2627
19759TIP3    H280769   0.022   4.002   0.437 -0.7423 -0.7387 -0.9671
19760TIP3   OH280770   4.895   6.021   1.847  1.4231 -0.1025  0.1508
19760TIP3    H180771   4.911   5.951   1.783  1.0716 -0.2815  0.2602
19760TIP3    H280772   4.800   6.034   1.845  1.6301  1.6219 -1.2029
19761TIP3   OH280773   5.868   3.102   3.326  0.0502  0.6433  0.3275
19761TIP3    H180774   5.894   3.161   3.397 -1.6682  2.5129 -0.5030
19761TIP3    H280775   5.891   3.150   3.247 -0.8590 -0.0703 -0.3809
19762TIP3   OH280776   5.360   2.290  13.069 -0.3938  0.0766 -0.2353
19762TIP3    H180777   5.292   2.277  13.135 -2.7145  0.5169 -2.4198
19762TIP3    H280778   5.416   2.358  13.106 -1.8421  0.6073  1.0976
19763TIP3   OH280779   5.502   2.950   6.480  0.0874  0.1064  0.3428
19763TIP3    H180780   5.481   2.972   6.389  1.7753  0.6342  0.0539
19763TIP3    H280781   5.446   2.876   6.500 -0.0067 -0.2950 -1.2773
19764TIP3   OH280782   0.419   4.722   2.075 -0.1864 -0.1823 -0.0630
19764TIP3    H180783   0.343   4.674   2.108  0.9650 -1.5654  0.7161
19764TIP3    H280784   0.392   4.814   2.075 -1.4690 -0.5149  1.3083
19765TIP3   OH280785   1.444   6.135  11.334 -0.0252 -0.1467 -0.1157
19765TIP3    H180786   1.500   6.075  11.382  0.2553  0.5308  0.4229
19765TIP3    H280787   1.356   6.098  11.342 -0.1208  0.4105  1.6834
19766TIP3   OH280788   6.239   3.219   3.671 -0.1888  0.3718 -0.3094
19766TIP3    H180789   6.239   3.229   3.766 -0.6693 -1.0253 -0.1446
19766TIP3    H280790   6.223   3.308   3.638 -0.9079  0.7316  0.9290
19767TIP3   OH280791   1.617   1.486  13.259 -0.1415 -0.1400  0.0420
19767TIP3    H180792   1.529   1.450  13.268 -0.4019  0.2240 -0.9106
19767TIP3    H280793   1.621   1.556  13.325 -0.5912 -0.1138  0.0454
19768TIP3   OH280794   0.837   5.399  11.089  0.2267  0.1041  0.4181
19768TIP3    H180795   0.917   5.371  11.045  0.6064  1.0238  0.5212
19768TIP3    H280796   0.826   5.335  11.160  0.6902 -0.2148  0.2102
19769TIP3   OH280797   4.902   0.824  12.771  0.1106  0.1813  0.4508
19769TIP3    H180798   4.860   0.746  12.808 -1.7667  0.1980 -1.4340
19769TIP3    H280799   4.949   0.863  12.844 -2.3435 -0.4367  2.5035
19770TIP3   OH280800   4.658   0.310  15.250 -0.3637  0.0170  0.0993
19770TIP3    H180801   4.668   0.264  15.333  0.1119  2.0288  1.2281
19770TIP3    H280802   4.747   0.334  15.225 -0.6428  1.0399  0.0114
19771TIP3   OH280803   3.095   5.656   3.390  0.1386  0.4824  0.0462
19771TIP3    H180804   3.095   5.749   3.368  0.3941  0.4053 -0.2967
19771TIP3    H280805   3.003   5.634   3.405 -0.1031  0.4317 -1.4264
19772TIP3   OH280806   6.327   0.728   1.005  0.1365  0.2381  0.1857
19772TIP3    H180807   6.337   0.796   1.071  0.9971 -0.4049  0.7486
19772TIP3    H280808   6.409   0.729   0.957  0.0213 -0.1596 -0.0241
19773TIP3   OH280809   6.100   3.483  14.509 -0.0843  0.1747 -0.3541
19773TIP3    H180810   6.115   3.480  14.604  1.1887  2.1070 -0.4387
19773TIP3    H280811   6.154   3.413  14.474 -1.2193 -1.1270  0.3688
19774TIP3   OH280812   0.970   4.654  11.990 -0.4001  0.3829 -0.4364
19774TIP3    H180813   0.930   4.615  12.067 -0.5185  0.5894 -0.3940
19774TIP3    H280814   0.947   4.747  11.995  0.8593  0.6883  0.0797
19775TIP3   OH280815   3.805   4.560  14.637 -0.0017  0.2742  0.1992
19775TIP3    H180816   3.727   4.615  14.628 -0.2810 -0.3031 -1.2255
19775TIP3    H280817   3.782   4.496  14.704 -1.0418 -0.3226 -0.6915
19776TIP3   OH280818   3.665   6.460   2.306  0.1391  0.1612  0.3854
19776TIP3    H180819   3.685   6.488   2.396 -1.5468  0.7220  0.6215
19776TIP3    H280820   3.705   6.528   2.251  1.2463 -0.2204  0.6756
19777TIP3   OH280821   5.712   5.057   5.414 -0.0620  0.0205  0.1513
19777TIP3    H180822   5.804   5.071   5.393 -0.1172  0.6704  0.3289
19777TIP3    H280823   5.713   4.995   5.487  0.1466 -1.9004 -1.4022
19778TIP3   OH280824   1.785   2.505  15.871 -0.4654 -0.3913  0.3903
19778TIP3    H180825   1.804   2.463  15.955  2.9900 -1.9228 -0.9713
19778TIP3    H280826   1.818   2.444  15.805 -0.0515  2.1702 -1.9847
19779TIP3   OH280827   5.235   6.596   1.862  0.0866 -0.0941  0.0772
19779TIP3    H180828   5.189   6.590   1.946  1.0393  2.1539  0.8380
19779TIP3    H280829   5.170   6.568   1.797 -1.3047 -0.0497  1.3797
19780TIP3   OH280830   2.042   6.800   6.375  1.0991 -0.3021 -0.1301
19780TIP3    H180831   2.020   6.851   6.454 -2.0929  0.4053 -1.3313
19780TIP3    H280832   2.114   6.849   6.335  1.7629  0.1688  1.5278
19781TIP3   OH280833   2.126   0.770  14.281 -0.2655 -0.2014 -0.4696
19781TIP3    H180834   2.039   0.744  14.252 -0.3783  0.0318 -0.3383
19781TIP3    H280835   2.118   0.781  14.376  0.2976 -1.7409 -0.2171
19782TIP3   OH280836   5.380   3.167   2.351 -0.3522  0.1516  0.0611
19782TIP3    H180837   5.317   3.145   2.421 -1.1388  0.8160 -0.4105
19782TIP3    H280838   5.328   3.163   2.271 -0.4181  2.9749 -0.1301
19783TIP3   OH280839   0.573   3.784   0.516 -0.6786 -0.0192 -0.0794
19783TIP3    H180840   0.648   3.762   0.460 -1.1479  0.8444 -1.0917
19783TIP3    H280841   0.502   3.727   0.484 -1.3259  1.4136 -1.3342
19784TIP3   OH280842   0.936   0.579   0.523 -0.0391 -0.0275 -0.0887
19784TIP3    H180843   0.955   0.592   0.431  0.9369 -3.1499 -0.4590
19784TIP3    H280844   1.022   0.581   0.566  0.0928 -2.9136 -0.0158
19785TIP3   OH280845   6.040   6.500   0.662  0.1014 -0.1246 -0.0392
19785TIP3    H180846   6.133   6.506   0.640  0.4772 -1.1333  1.1818
19785TIP3    H280847   6.015   6.588   0.689 -0.1083  0.9419 -3.2135
19786TIP3   OH280848   0.979   0.919   0.903  0.2619 -0.0881 -0.2132
19786TIP3    H180849   0.947   1.008   0.887  1.2986  0.3760  0.2009
19786TIP3    H280850   1.039   0.901   0.830  0.0960 -0.4275 -0.2693
19787TIP3   OH280851   5.303   6.256   2.087  0.6037 -0.2981 -0.4884
19787TIP3    H180852   5.380   6.202   2.104 -0.6192 -1.3933  2.0234
19787TIP3    H280853   5.284   6.298   2.171 -1.2115  0.4074 -1.2008
19788TIP3   OH280854   5.299   4.019  14.338  0.1996  0.1887 -0.5526
19788TIP3    H180855   5.336   4.001  14.251  1.6728 -0.5695  0.2074
19788TIP3    H280856   5.374   4.021  14.397 -0.9815 -2.1973  1.1995
19789TIP3   OH280857   0.205   3.956   5.569  0.2022  0.6481  0.1233
19789TIP3    H180858   0.127   3.910   5.601  0.5557 -2.1994 -2.6116
19789TIP3    H280859   0.173   4.005   5.493  1.1849 -2.0345 -2.2040
19790TIP3   OH280860   6.340   4.387   6.084  0.2026 -0.5001 -0.3026
19790TIP3    H180861   6.268   4.387   6.021 -0.3361 -2.1411  0.2571
19790TIP3    H280862   6.345   4.297   6.114  1.3343 -0.0353  1.0005
19791TIP3   OH280863   0.577   2.900   4.998 -0.0567  0.1315  0.0085
19791TIP3    H180864   0.540   2.978   5.038 -0.9048  0.2945 -1.0343
19791TIP3    H280865   0.540   2.827   5.048  1.2799  0.3844  1.4237
19792TIP3   OH280866   5.657   4.951   6.586 -0.2862 -0.6595  0.2187
19792TIP3    H180867   5.719   5.010   6.628 -1.5914  0.4187  0.6943
19792TIP3    H280868   5.712   4.888   6.540  1.1892  1.1597 -0.6715
19793TIP3   OH280869   2.754   2.410  15.843 -0.2547  0.8058  0.1838
19793TIP3    H180870   2.773   2.496  15.881  1.1356 -0.3906  2.4375
19793TIP3    H280871   2.704   2.365  15.911  0.3789 -0.6874 -0.3080
19794TIP3   OH280872   0.671   3.606  11.217  0.3537  0.4397 -0.1834
19794TIP3    H180873   0.677   3.511  11.218  0.5917  0.4500 -0.6172
19794TIP3    H280874   0.761   3.636  11.204  0.1126  0.6940 -1.3720
19795TIP3   OH280875   0.719   3.166   4.812  0.2651  0.7911  0.6326
19795TIP3    H180876   0.731   3.259   4.832  0.8854  0.7663  0.3862
19795TIP3    H280877   0.710   3.124   4.897 -0.1129  1.0829  0.7421
19796TIP3   OH280878   6.791   3.823   2.983 -0.2620 -0.2273  0.2916
19796TIP3    H180879   6.762   3.888   3.047  0.8522  1.5452 -0.9169
19796TIP3    H280880   6.864   3.779   3.027 -0.6485 -0.2728  0.9040
19797TIP3   OH280881   0.777   4.743  13.828  0.1715  0.3631  0.6990
19797TIP3    H180882   0.775   4.651  13.802 -0.0410  0.5938 -0.1133
19797TIP3    H280883   0.689   4.760  13.861  0.1104  0.3678  0.5331
19798TIP3   OH280884   3.849   5.408  15.521  0.2519  0.2196 -0.3330
19798TIP3    H180885   3.813   5.436  15.436  1.3242  0.2049 -0.7998
19798TIP3    H280886   3.892   5.325  15.502 -1.6400 -1.0971  0.7512
19799TIP3   OH280887   3.343   0.602  15.883 -0.1116 -0.1606  0.0893
19799TIP3    H180888   3.335   0.615  15.978 -0.2108 -0.2881  0.0982
19799TIP3    H280889   3.254   0.611  15.850 -0.0036  0.4058 -0.0595
19800TIP3   OH280890   3.091   0.528   0.481  0.1285 -0.6556  0.0838
19800TIP3    H180891   3.108   0.557   0.570 -1.8622 -0.4439  0.4444
19800TIP3    H280892   3.028   0.592   0.447  1.4447 -0.2583 -1.7817
19801TIP3   OH280893   3.163   6.034  14.403 -0.7247 -0.7080  0.0559
19801TIP3    H180894   3.212   6.081  14.471  0.2757 -0.1551 -0.9935
19801TIP3    H280895   3.147   5.947  14.440  2.2962 -1.4160 -0.0067
19802TIP3   OH280896   1.271   2.077   5.488 -0.2518 -0.1799  0.5176
19802TIP3    H180897   1.265   2.141   5.560  0.0260 -0.1748  0.5354
19802TIP3    H280898   1.248   2.127   5.410 -0.3700 -0.1399  0.5780
19803TIP3   OH280899   1.364   6.576  14.264 -0.1708 -0.3163  0.3616
19803TIP3    H180900   1.347   6.614  14.350  0.0142 -0.0610  0.2877
19803TIP3    H280901   1.345   6.647  14.202 -1.9830 -0.9980  0.0740
19804TIP3   OH280902   5.870   2.747  16.378 -0.6830 -0.4383 -0.0429
19804TIP3    H180903   5.931   2.730  16.306 -0.7325  0.7952 -0.4066
19804TIP3    H280904   5.927   2.771  16.452 -0.7027  0.9656 -0.4531
19805TIP3   OH280905   2.460   1.810   2.814 -0.3666 -0.5647 -0.2958
19805TIP3    H180906   2.399   1.871   2.771 -0.5811 -0.1577  0.5569
19805TIP3    H280907   2.404   1.739   2.847 -0.7153  0.7034  2.1089
19806TIP3   OH280908   4.565   1.333   0.062 -0.0661 -0.4338  0.7695
19806TIP3    H180909   4.616   1.253   0.047  0.1239 -0.4341  1.4030
19806TIP3    H280910   4.626   1.404   0.045 -0.7187 -0.3365 -1.6972
19807TIP3   OH280911   3.771   6.427  15.513  0.1861  0.6321  0.3553
19807TIP3    H180912   3.835   6.498  15.517  1.6331 -0.1812 -3.7089
19807TIP3    H280913   3.688   6.469  15.536  1.0040  3.6828 -1.6444
19808TIP3   OH280914   0.287   0.789  13.956 -0.4212 -0.4596  0.4720
19808TIP3    H180915   0.252   0.786  14.045 -1.6420 -3.6868  0.0307
19808TIP3    H280916   0.345   0.713  13.951  0.0546 -0.0334 -1.3348
19809TIP3   OH280917   3.770   3.432  11.602 -0.1554 -0.4358  0.4258
19809TIP3    H180918   3.810   3.460  11.520  1.8775 -0.9406  1.1957
19809TIP3    H280919   3.711   3.361  11.578  0.0173 -0.2198 -0.6596
19810TIP3   OH280920   3.288   0.587  11.005  0.3837  0.0281 -0.1482
19810TIP3    H180921   3.225   0.656  11.024 -0.6787 -0.7634 -0.6841
19810TIP3    H280922   3.372   0.624  11.030 -0.3608  0.8558  1.2619
19811TIP3   OH280923   4.772   5.432  14.239 -0.3682 -0.2246  0.4937
19811TIP3    H180924   4.847   5.416  14.181 -0.3375  1.3232  0.0544
19811TIP3    H280925   4.714   5.489  14.187 -1.4547 -0.7248  1.1349
19812TIP3   OH280926   1.466   4.935  11.398  0.0893  0.5299  0.1435
19812TIP3    H180927   1.492   4.856  11.444 -0.4873  0.3889  0.2333
19812TIP3    H280928   1.434   4.904  11.313 -1.1945  0.5565  0.6079
19813TIP3   OH280929   3.914   4.140  14.088 -0.0364  0.0492 -0.4113
19813TIP3    H180930   3.972   4.156  14.162 -1.2329 -1.2665  0.8691
19813TIP3    H280931   3.935   4.051  14.059 -1.2681 -0.3800 -0.0354
19814TIP3   OH280932   1.698   5.636   0.959 -0.3862  1.0391  0.3488
19814TIP3    H180933   1.613   5.592   0.962  0.4426 -0.5516  1.9914
19814TIP3    H280934   1.743   5.597   0.884  0.6046 -1.5847  2.1762
19815TIP3   OH280935   3.663   5.158  11.614  0.1187  0.1172 -0.2434
19815TIP3    H180936   3.582   5.181  11.659 -0.5983 -0.1929 -1.3276
19815TIP3    H280937   3.634   5.108  11.537  1.4007 -0.8701 -0.1110
19816TIP3   OH280938   0.696   3.023   0.037 -0.2632 -0.4539 -0.2895
19816TIP3    H180939   0.791   3.007   0.033 -0.2993 -0.9947  0.6921
19816TIP3    H280940   0.688   3.118   0.043  0.3142 -0.4661  1.2766
19817TIP3   OH280941   1.851   0.740   4.356 -0.7108  0.3812 -0.6472
19817TIP3    H180942   1.778   0.746   4.418 -0.5982  0.7192 -0.5398
19817TIP3    H280943   1.916   0.801   4.391 -0.0952 -0.4210 -0.3665
19818TIP3   OH280944   6.175   6.091   5.131  0.3359 -0.2459 -0.3979
19818TIP3    H180945   6.235   6.023   5.163 -1.5455 -0.9114  2.0690
19818TIP3    H280946   6.180   6.160   5.197 -0.7255  0.1814 -0.7490
19819TIP3   OH280947   3.920   0.588  10.612  0.1538  0.5574 -0.1269
19819TIP3    H180948   3.961   0.537  10.542 -0.6132  0.2658 -0.3690
19819TIP3    H280949   3.972   0.566  10.690  0.8841  0.7294 -0.5580
19820TIP3   OH280950   5.870   5.948  11.304 -0.3374  0.0971 -0.4657
19820TIP3    H180951   5.931   5.882  11.337 -1.1551 -0.7052 -0.5053
19820TIP3    H280952   5.922   5.999  11.241  0.8190  0.6985  0.9230
19821TIP3   OH280953   5.102   3.367   1.221 -0.5087  0.6635 -0.4415
19821TIP3    H180954   5.166   3.435   1.239 -0.7694  1.4753 -2.3752
19821TIP3    H280955   5.149   3.285   1.235 -0.0376  1.1899  1.3770
19822TIP3   OH280956   3.250   5.425  14.878 -0.0138  0.0642  0.1306
19822TIP3    H180957   3.255   5.400  14.971  0.3246  0.2886  0.1754
19822TIP3    H280958   3.163   5.396  14.850 -0.7503  1.4402  0.9306
19823TIP3   OH280959   4.047   4.681   2.086 -0.0822  0.7777 -0.3670
19823TIP3    H180960   3.979   4.616   2.106  0.8321  0.1175  0.6901
19823TIP3    H280961   3.998   4.757   2.052 -1.1853 -0.3657 -1.4681
19824TIP3   OH280962   1.234   3.000   4.557 -0.0481  0.2762 -0.8621
19824TIP3    H180963   1.242   3.078   4.612 -0.4667  0.6318 -1.2951
19824TIP3    H280964   1.321   2.962   4.556  0.5686  1.6493 -1.9678
19825TIP3   OH280965   0.644   1.555   0.830 -0.0023 -0.6980  0.0222
19825TIP3    H180966   0.635   1.528   0.921 -1.2127  1.0460  0.4677
19825TIP3    H280967   0.659   1.649   0.834 -0.6213 -0.4962 -1.6001
19826TIP3   OH280968   0.116   0.213  12.034 -0.0178  0.2317  0.3906
19826TIP3    H180969   0.084   0.297  12.069  0.4896  0.2581  0.8002
19826TIP3    H280970   0.210   0.226  12.021  0.1147 -0.3639  0.7209
19827TIP3   OH280971   6.123   6.253  16.509  0.4527  0.1405 -0.5323
19827TIP3    H180972   6.081   6.328  16.553  1.4748  0.9248 -0.8668
19827TIP3    H280973   6.075   6.177  16.542 -1.2430  1.0019 -0.9051
19828TIP3   OH280974   4.981   0.453   5.832  0.1955 -0.8415  0.3173
19828TIP3    H180975   4.919   0.525   5.825  0.8261 -0.1806  1.3056
19828TIP3    H280976   4.937   0.379   5.789 -1.1032 -0.2908  0.6560
19829TIP3   OH280977   0.002   4.681  16.887 -0.2352 -0.1702  0.6312
19829TIP3    H180978   0.057   4.651  16.814  0.9770  2.5724  0.2931
19829TIP3    H280979  -0.087   4.673  16.854  0.2411  0.0681 -0.8041
19830TIP3   OH280980   6.380   2.615  15.023  0.0227 -0.2236  0.0779
19830TIP3    H180981   6.368   2.678  15.094  0.4209 -1.0935  0.9332
19830TIP3    H280982   6.451   2.558  15.052 -0.2078 -0.9708 -0.7535
19831TIP3   OH280983   5.121   3.951  11.017 -0.9121 -0.4186 -0.1826
19831TIP3    H180984   5.050   3.955  11.080 -0.6671  0.6933  0.0544
19831TIP3    H280985   5.197   3.924  11.067 -1.3004 -2.4066 -0.5914
19832TIP3   OH280986   0.620   2.261  16.781 -0.3868 -0.4136 -0.2795
19832TIP3    H180987   0.693   2.208  16.813 -0.2830 -0.2947 -0.3212
19832TIP3    H280988   0.611   2.331  16.846 -0.3293 -0.3090 -0.3844
19833TIP3   OH280989   4.854   4.907  14.882 -0.4103 -0.1460 -0.0009
19833TIP3    H180990   4.891   4.993  14.899  1.6667 -0.9349 -0.2478
19833TIP3    H280991   4.915   4.846  14.922 -1.7809 -1.5361  0.0789
19834TIP3   OH280992   3.635   2.126  11.526 -0.9648  0.3891  0.2888
19834TIP3    H180993   3.575   2.114  11.600 -0.3097 -1.0597  0.6141
19834TIP3    H280994   3.629   2.219  11.506 -2.5529  0.4742  0.9621
19835TIP3   OH280995   4.302   3.973  12.654  0.1499 -0.4800 -0.1896
19835TIP3    H180996   4.275   4.055  12.612  0.1168  0.1601  1.0201
19835TIP3    H280997   4.222   3.922  12.659  0.2655 -0.8085 -1.3904
19836TIP3   OH280998   2.282   1.756   0.797 -1.0476 -0.4506  0.1136
19836TIP3    H180999   2.330   1.797   0.725 -0.0017  0.4700  1.2798
19836TIP3    H281000   2.309   1.805   0.875 -3.5721 -0.1748  0.9227
19837TIP3   OH281001   0.978   5.310  14.278 -0.7624  0.4731 -1.0504
19837TIP3    H181002   0.935   5.391  14.250 -2.1702 -0.1720 -0.8232
19837TIP3    H281003   0.979   5.315  14.374  0.4909  0.8738 -1.0637
19838TIP3   OH281004   2.197   3.344   2.579 -0.5566 -0.0815  0.5248
19838TIP3    H181005   2.257   3.343   2.505 -1.5125  2.4028 -0.3764
19838TIP3    H281006   2.119   3.299   2.548 -0.4659 -0.2226  0.4983
19839TIP3   OH281007   0.352   4.916  11.490  1.0607  0.1135  0.0172
19839TIP3    H181008   0.427   4.913  11.549  0.2962  0.1083  1.0114
19839TIP3    H281009   0.370   4.989  11.431  1.2001  1.0188  1.1537
19840TIP3   OH281010   5.761   0.008  10.953  0.0733  0.4882  0.1305
19840TIP3    H181011   5.705   0.003  11.031  0.4558 -0.5641  0.3586
19840TIP3    H281012   5.750  -0.077  10.910  2.6183 -0.3835  1.0080
19841TIP3   OH281013   5.392   4.071   5.061 -0.1848  0.3885  0.0255
19841TIP3    H181014   5.376   4.145   5.120  0.2201  1.2461 -0.8938
19841TIP3    H281015   5.436   4.111   4.986 -0.4377 -0.7199 -0.7250
19842TIP3   OH281016   4.601   2.760  15.787 -0.2741  0.4279  0.5080
19842TIP3    H181017   4.522   2.795  15.826  0.8243  0.8079  2.5098
19842TIP3    H281018   4.617   2.816  15.710 -2.1869 -0.0130 -0.2652
19843TIP3   OH281019   3.193   2.049   6.261 -0.2199  0.6386  0.6218
19843TIP3    H181020   3.174   1.959   6.286 -0.4215  1.2792  3.0468
19843TIP3    H281021   3.112   2.081   6.221 -0.3615 -0.0552  0.3491
19844TIP3   OH281022   2.222   2.072  14.713 -0.6485  0.2554 -0.4605
19844TIP3    H181023   2.252   2.143  14.656 -0.5426 -0.7542 -1.7163
19844TIP3    H281024   2.302   2.025  14.736 -0.7868  0.1817 -0.1236
19845TIP3   OH281025   2.577   6.077   4.802  0.3702  0.0255 -0.7910
19845TIP3    H181026   2.624   6.160   4.790 -0.2159  0.3271 -1.0513
19845TIP3    H281027   2.518   6.093   4.876  0.8297 -0.4224 -0.3221
19846TIP3   OH281028   4.946   4.517   5.449 -0.1623 -0.6256  0.0905
19846TIP3    H181029   4.984   4.434   5.476 -0.7010 -1.2355 -0.9719
19846TIP3    H281030   5.018   4.579   5.451  0.7727 -1.6144 -1.2786
19847TIP3   OH281031   0.381   4.832   4.733  0.5917  0.3147  0.3243
19847TIP3    H181032   0.475   4.814   4.729  0.2269 -1.4817 -1.5614
19847TIP3    H281033   0.344   4.754   4.774 -0.1905  0.5386  0.0579
19848TIP3   OH281034   3.349   6.533  12.374  0.5167 -0.9641  0.4628
19848TIP3    H181035   3.441   6.506  12.370  0.2154 -1.9393 -2.5886
19848TIP3    H281036   3.328   6.561  12.285 -2.0126 -0.2344  1.2053
19849TIP3   OH281037   2.463   1.912  13.590  0.0818 -0.3536 -0.0507
19849TIP3    H181038   2.386   1.969  13.589  0.2138 -0.1736  0.2530
19849TIP3    H281039   2.510   1.935  13.670  0.7170 -0.1174 -0.4877
19850TIP3   OH281040   1.354   6.764  13.984 -0.0818 -0.0256 -0.4662
19850TIP3    H181041   1.264   6.784  13.960  0.1062  3.1484  0.9594
19850TIP3    H281042   1.407   6.799  13.912  0.0871 -1.5395 -1.1188
19851TIP3   OH281043   1.923   6.092   6.341  0.5948  0.7835 -0.6874
19851TIP3    H181044   1.988   6.146   6.385  1.1581  0.5681 -1.2319
19851TIP3    H281045   1.916   6.013   6.394 -1.0652  1.8241  0.7445
19852TIP3   OH281046   2.044   1.472  11.569 -0.7961 -0.3288 -0.6776
19852TIP3    H181047   1.993   1.394  11.591  0.4083 -1.0981 -0.5094
19852TIP3    H281048   2.108   1.480  11.640 -1.0088  0.9284 -0.6005
19853TIP3   OH281049   4.662   5.306  12.700  0.4562  0.3692  0.3814
19853TIP3    H181050   4.691   5.328  12.611  1.0774  0.6451  0.6493
19853TIP3    H281051   4.602   5.377  12.723 -0.5620 -0.2680 -0.2218
19854TIP3   OH281052   0.392   1.103  14.529  0.8845 -0.1937  0.6118
19854TIP3    H181053   0.341   1.182  14.543  1.2493  0.2079 -0.2741
19854TIP3    H281054   0.327   1.035  14.512  0.6122  0.6284 -2.1352
19855TIP3   OH281055   0.115   0.016  12.226  0.0039 -0.0780  0.0966
19855TIP3    H181056   0.134   0.100  12.184 -0.1214 -0.2491 -0.3156
19855TIP3    H281057   0.045   0.035  12.288 -0.4654  0.0106 -0.4449
19856TIP3   OH281058   4.778   3.696   3.511  0.7629  0.7882 -0.2319
19856TIP3    H181059   4.693   3.729   3.484  0.2230 -0.4624 -0.1113
19856TIP3    H281060   4.763   3.660   3.599  0.8545 -1.4369 -1.0649
19857TIP3   OH281061   2.286   5.969   5.534 -0.3856 -0.7143  0.2061
19857TIP3    H181062   2.344   5.923   5.472  1.4364  0.1968  1.1560
19857TIP3    H281063   2.292   5.917   5.614  0.8644  0.5363  0.9641
19858TIP3   OH281064   5.675   6.678   2.977 -0.7694  0.4518  0.0852
19858TIP3    H181065   5.743   6.690   2.910 -1.0287  2.8967  0.1760
19858TIP3    H281066   5.613   6.617   2.936  0.1921  0.1297 -0.9853
19859TIP3   OH281067   5.371   3.639  12.852  0.5765 -0.6318  0.2245
19859TIP3    H181068   5.328   3.622  12.768 -0.0183  0.1875  0.3520
19859TIP3    H281069   5.318   3.593  12.917  1.0689 -1.3127  0.1562
19860TIP3   OH281070   1.965   0.890  16.848 -0.2573 -0.2641  0.1387
19860TIP3    H181071   1.942   0.867  16.758  1.3573 -0.3755 -0.2790
19860TIP3    H281072   1.977   0.806  16.892  3.8692 -0.4465 -0.9185
19861TIP3   OH281073   3.655   2.831   2.995  0.1330  0.3323 -0.1649
19861TIP3    H181074   3.615   2.778   2.926  1.7880  0.7733 -1.5222
19861TIP3    H281075   3.708   2.769   3.045 -0.7856  0.0781  0.5153
19862TIP3   OH281076   3.105   2.038   1.866  0.0336 -0.2094  0.3405
19862TIP3    H181077   3.064   1.954   1.886  1.0783 -0.9233 -0.3758
19862TIP3    H281078   3.033   2.094   1.836 -0.9209 -0.3265  2.2999
19863TIP3   OH281079   0.668   4.950   6.080  0.1165  0.4626 -0.2778
19863TIP3    H181080   0.574   4.962   6.090  0.4394  1.6832  1.8398
19863TIP3    H281081   0.691   5.002   6.003 -1.1363 -1.2962 -1.9344
19864TIP3   OH281082   1.887   3.913  11.456  0.3876 -0.4658  0.5028
19864TIP3    H181083   1.870   3.989  11.400  2.4018  0.0499  0.5086
19864TIP3    H281084   1.826   3.922  11.529 -0.9652 -0.1122 -0.6376
19865TIP3   OH281085   4.571   4.168   5.428  0.2672 -0.1345 -0.6898
19865TIP3    H181086   4.656   4.130   5.403  0.6212  0.2218 -0.0472
19865TIP3    H281087   4.593   4.237   5.490 -0.6164 -1.8927  1.7783
19866TIP3   OH281088   5.954   2.176   5.672  0.6549 -0.0416  0.7120
19866TIP3    H181089   5.877   2.137   5.713  0.1348 -0.7577 -0.8683
19866TIP3    H281090   5.991   2.107   5.617 -0.1268  1.5044 -1.9431
19867TIP3   OH281091   5.107   5.956   3.264 -0.3678 -0.1888  0.0453
19867TIP3    H181092   5.037   5.974   3.201  0.3716  0.9405 -0.4893
19867TIP3    H281093   5.145   5.873   3.234 -0.6797 -0.1759 -0.3931
19868TIP3   OH281094   6.539   5.009   6.546 -0.0299 -0.0546  0.3985
19868TIP3    H181095   6.463   4.951   6.557 -0.2490  0.2014  0.2286
19868TIP3    H281096   6.501   5.094   6.523  0.2207  0.4843  1.8732
19869TIP3   OH281097   5.366   1.479  11.867 -0.1327  0.3957  0.0164
19869TIP3    H181098   5.378   1.470  11.962 -1.9110 -0.4662  0.2095
19869TIP3    H281099   5.451   1.508  11.835  1.3639 -1.9675  1.5396
19870TIP3   OH281100   2.854   2.162  16.510  0.3773  0.9761  0.1092
19870TIP3    H181101   2.814   2.098  16.451 -0.1386  0.0534  1.4114
19870TIP3    H281102   2.909   2.216  16.453  0.9872 -0.7408 -1.0045
19871TIP3   OH281103   6.100   0.113  13.774  0.1530  0.0393 -0.0113
19871TIP3    H181104   6.146   0.140  13.695  1.1734 -1.2476  0.1040
19871TIP3    H281105   6.096   0.192  13.828  1.7992  0.3231 -0.2494
19872TIP3   OH281106   1.492   0.526   6.557  0.0698  0.3895  0.3344
19872TIP3    H181107   1.460   0.439   6.533 -1.0083  1.2679 -1.7133
19872TIP3    H281108   1.564   0.542   6.497  0.5737  0.7293  1.0203
19873TIP3   OH281109   3.962   1.250  11.033 -0.1078 -0.1568  0.0621
19873TIP3    H181110   3.903   1.199  11.089 -0.9899  1.8372  1.0608
19873TIP3    H281111   4.006   1.310  11.094 -0.9145  1.9130 -1.3057
19874TIP3   OH281112   6.083   4.406   6.271 -0.1635 -0.0283  0.4617
19874TIP3    H181113   6.086   4.433   6.179  1.6073  0.0544  0.5081
19874TIP3    H281114   6.107   4.314   6.270  0.4509  0.1198  0.8794
19875TIP3   OH281115   1.391   1.006  16.274  0.5181  0.2167  0.2344
19875TIP3    H181116   1.482   1.022  16.299  0.1619  0.3888  1.5122
19875TIP3    H281117   1.348   1.091  16.284  0.1146  0.0257  0.1388
19876TIP3   OH281118   1.532   6.819   4.656  0.1855 -0.3548  0.1371
19876TIP3    H181119   1.472   6.855   4.721  0.7281 -0.4755  0.7162
19876TIP3    H281120   1.525   6.878   4.581 -0.1969 -0.0202  0.4343
19877TIP3   OH281121   4.522   0.074   0.381  0.2042  0.3804 -0.1129
19877TIP3    H181122   4.459   0.090   0.310  0.8578  0.9609 -0.5711
19877TIP3    H281123   4.478   0.011   0.437 -1.5201  2.0165  0.4923
19878TIP3   OH281124   1.364   3.349  16.291 -0.4868 -0.3578 -0.0147
19878TIP3    H181125   1.333   3.361  16.381  2.4095 -1.6458  1.2733
19878TIP3    H281126   1.409   3.264  16.292  3.3838  1.4604 -1.5078
19879TIP3   OH281127   1.148   0.120  12.106  0.3230  0.2376 -0.2916
19879TIP3    H181128   1.237   0.120  12.140  0.6929 -2.0184 -1.1171
19879TIP3    H281129   1.100   0.062  12.164 -0.8902  2.0699  0.6512
19880TIP3   OH281130   3.371   4.568  14.172  0.2901 -0.1628 -0.4327
19880TIP3    H181131   3.321   4.579  14.091 -0.3811  0.2222  0.0180
19880TIP3    H281132   3.387   4.657  14.203  0.8601 -0.2964 -0.3255
19881TIP3   OH281133   4.510   2.838   1.898  0.3783  0.2931  0.3268
19881TIP3    H181134   4.544   2.818   1.986 -2.7888  1.0324  1.8661
19881TIP3    H281135   4.519   2.756   1.850  0.4311 -0.7303  1.9861
19882TIP3   OH281136   5.837   3.190  11.683  0.2382  0.0657  0.1058
19882TIP3    H181137   5.749   3.151  11.692  0.3295 -0.5258 -1.3340
19882TIP3    H281138   5.830   3.274  11.728 -0.8623 -0.2743  0.6228
19883TIP3   OH281139   5.195   6.227  16.339  0.2681 -0.0136  0.0076
19883TIP3    H181140   5.231   6.168  16.405 -0.7033  0.5770  1.0998
19883TIP3    H281141   5.211   6.182  16.256 -1.2419 -2.2970  0.8530
19884TIP3   OH281142   4.717   2.581  17.163  0.1122 -0.1202 -0.0271
19884TIP3    H181143   4.753   2.667  17.142  1.5453 -0.5652  0.5034
19884TIP3    H281144   4.789   2.534  17.204 -1.2123 -0.9022  1.5205
19885TIP3   OH281145   3.074   6.092   5.551 -0.2701  0.0523 -0.2874
19885TIP3    H181146   3.003   6.041   5.512 -0.2815  0.2756 -0.5599
19885TIP3    H281147   3.127   6.028   5.597  0.3740 -0.3848 -1.5942
19886TIP3   OH281148   5.149   3.338   2.260 -0.2034 -0.1028  0.0132
19886TIP3    H181149   5.067   3.309   2.220  0.2282 -0.5668 -0.5615
19886TIP3    H281150   5.167   3.272   2.328 -0.1793 -0.1471 -0.0354
19887TIP3   OH281151   4.003   3.744  11.138 -0.6330 -0.0867 -0.6065
19887TIP3    H181152   4.024   3.657  11.104 -0.1165  0.0058 -0.5250
19887TIP3    H281153   4.048   3.805  11.080 -0.9756  0.1282 -0.6486
19888TIP3   OH281154   4.244   3.872  15.589 -0.0704  0.0419  0.3753
19888TIP3    H181155   4.168   3.926  15.570 -0.1487  0.6629  2.3112
19888TIP3    H281156   4.214   3.809  15.655  0.9510 -0.0475  0.7793
19889TIP3   OH281157   3.228   1.672  14.155 -0.0775 -0.0520  0.1037
19889TIP3    H181158   3.284   1.652  14.230  0.8362  2.0562  0.0479
19889TIP3    H281159   3.211   1.587  14.114  0.5986 -1.0783  1.8381
19890TIP3   OH281160   1.921   6.087   5.929 -0.1789  0.5446  0.4116
19890TIP3    H181161   1.968   6.020   5.979  0.2181 -0.3959 -1.1580
19890TIP3    H281162   1.855   6.120   5.989 -1.3054 -2.2269  0.8378
19891TIP3   OH281163   3.596   5.184  17.089  0.0264 -0.0074 -0.5286
19891TIP3    H181164   3.585   5.276  17.065 -1.9474 -0.3035 -0.9154
19891TIP3    H281165   3.604   5.139  17.006 -0.6439 -0.3592 -0.4053
19892TIP3   OH281166   2.265   6.432   4.820 -0.2463  0.6355  0.1521
19892TIP3    H181167   2.192   6.494   4.816 -0.6930  0.1489  0.4737
19892TIP3    H281168   2.315   6.447   4.740 -0.8706  0.7733 -0.2158
19893TIP3   OH281169   0.323   3.877   0.351 -0.1262  0.2415 -0.1023
19893TIP3    H181170   0.397   3.938   0.354  0.5558 -0.5352 -0.8192
19893TIP3    H281171   0.351   3.807   0.293 -1.1588 -0.4330  0.1784
19894TIP3   OH281172   2.168   1.484  16.717 -0.2054 -0.1312 -0.0773
19894TIP3    H181173   2.133   1.489  16.805 -0.0274 -1.7255  0.1131
19894TIP3    H281174   2.107   1.535  16.664 -2.1616 -1.7861  0.4474
19895TIP3   OH281175   6.440   3.068  11.120 -0.1038 -0.6170  0.1122
19895TIP3    H181176   6.460   3.029  11.035 -0.8837  0.1535 -0.4453
19895TIP3    H281177   6.429   3.161  11.102 -2.7343 -0.7541  0.5943
19896TIP3   OH281178   0.866   2.026  11.974 -0.5629 -0.1535  0.7629
19896TIP3    H181179   0.853   2.113  11.937  0.6075  0.0771  0.8438
19896TIP3    H281180   0.829   1.966  11.909  0.9166  0.2725 -0.5466
19897TIP3   OH281181   0.386   6.291  16.706  0.0246  0.4121  0.6569
19897TIP3    H181182   0.438   6.238  16.766  0.7524  1.4901  1.0136
19897TIP3    H281183   0.296   6.275  16.732  0.2135 -0.8200  0.5969
19898TIP3   OH281184   5.782   5.188   2.891 -0.3303  0.6833  0.3620
19898TIP3    H181185   5.809   5.258   2.832  0.0818  2.0991  2.1567
19898TIP3    H281186   5.692   5.168   2.866 -0.8558  2.6788  0.5703
19899TIP3   OH281187   3.954   2.711   1.979  0.4980  0.3678  0.2426
19899TIP3    H181188   4.034   2.762   1.988  0.5214  0.2424  0.7945
19899TIP3    H281189   3.983   2.627   1.944  0.5821  0.3995  0.2364
19900TIP3   OH281190   2.130   2.127  13.362  0.1810  0.3151  0.1764
19900TIP3    H181191   2.056   2.182  13.389  0.8370  0.6581  1.3715
19900TIP3    H281192   2.175   2.178  13.295 -0.5299  0.1964 -0.4054
19901TIP3   OH281193   0.344   4.662  14.953 -0.9698 -0.1077 -0.0406
19901TIP3    H181194   0.283   4.606  15.002 -0.5116  0.5484  1.3381
19901TIP3    H281195   0.430   4.638  14.988 -0.5376 -0.2463 -1.1829
19902TIP3   OH281196   3.032   1.467  15.068  0.2161 -0.8170  0.1828
19902TIP3    H181197   3.073   1.430  14.990 -1.5407 -1.4326 -0.4966
19902TIP3    H281198   2.943   1.488  15.041 -0.3153 -0.6569  1.9202
19903TIP3   OH281199   4.542   3.902   1.063 -0.3963 -0.4378 -0.2452
19903TIP3    H181200   4.568   3.824   1.112  0.3496  0.1869  0.3641
19903TIP3    H281201   4.552   3.876   0.971  1.3241 -0.5937 -0.0415
19904TIP3   OH281202   5.612   0.290   3.948 -0.0501 -1.1241 -0.1459
19904TIP3    H181203   5.702   0.282   3.979  0.9562  1.0154 -2.1776
19904TIP3    H281204   5.604   0.223   3.880  0.8349  0.1080 -1.5309
19905TIP3   OH281205   2.564   2.894  14.845  0.0299  0.5151 -0.4302
19905TIP3    H181206   2.537   2.803  14.857 -0.5005  0.6232 -0.7861
19905TIP3    H281207   2.640   2.889  14.787 -0.4283  0.3420 -1.0262
19906TIP3   OH281208   6.125   0.800  12.441  0.1549  0.3001  0.1280
19906TIP3    H181209   6.033   0.795  12.413  0.4887  2.1389 -1.5577
19906TIP3    H281210   6.135   0.890  12.474  1.1735 -0.1208  1.0131
19907TIP3   OH281211   4.367   2.509  12.415 -0.1619 -1.0768 -0.3554
19907TIP3    H181212   4.316   2.442  12.460  1.0466 -1.8630 -0.1052
19907TIP3    H281213   4.303   2.577  12.393 -1.2107 -1.7852  0.3909
19908TIP3   OH281214   6.092   2.581   3.494 -0.0224 -0.5192 -0.2045
19908TIP3    H181215   6.150   2.657   3.504  0.1992 -0.8455  1.1048
19908TIP3    H281216   6.150   2.505   3.502 -0.5143 -0.8405  0.3509
19909TIP3   OH281217   4.521   5.909  17.109  0.3469 -0.2992 -0.4531
19909TIP3    H181218   4.481   5.842  17.052 -0.6477 -0.5203  0.4768
19909TIP3    H281219   4.477   5.898  17.193  2.2973 -0.4619  0.6032
19910TIP3   OH281220   0.618   0.214   0.611 -0.8304  0.0529 -0.2281
19910TIP3    H181221   0.686   0.205   0.546  0.4524  2.1253  0.7117
19910TIP3    H281222   0.622   0.306   0.637 -2.7357 -0.2058  1.2140
19911TIP3   OH281223   3.608   0.941   4.554  0.1987 -0.3215 -0.4992
19911TIP3    H181224   3.566   0.858   4.578  0.1461 -0.3355 -0.6382
19911TIP3    H281225   3.557   1.007   4.601 -0.2582 -0.3010 -1.0096
19912TIP3   OH281226   5.679   0.778   1.038  0.3195  0.4444  0.1575
19912TIP3    H181227   5.661   0.750   1.128  0.1256 -0.6594 -0.2091
19912TIP3    H281228   5.686   0.873   1.044 -0.3526  0.4495  1.2323
19913TIP3   OH281229   2.586   0.221  15.254 -0.4720 -0.0153 -0.1583
19913TIP3    H181230   2.633   0.277  15.316  1.3288  0.1214 -1.5784
19913TIP3    H281231   2.494   0.238  15.272 -0.0443  0.0622  2.4164
19914TIP3   OH281232   0.311   5.669   3.108  0.5689  0.9222 -0.5398
19914TIP3    H181233   0.403   5.656   3.132  0.7001  2.6101  0.0038
19914TIP3    H281234   0.270   5.585   3.125  2.3814 -0.5520 -2.7399
19915TIP3   OH281235   1.638   2.356  11.258 -0.1830 -0.8531 -0.4031
19915TIP3    H181236   1.651   2.360  11.353 -0.4413 -1.0936 -0.3566
19915TIP3    H281237   1.721   2.387  11.221 -0.2129 -0.3910 -0.0962
19916TIP3   OH281238   2.967   0.127   5.027  0.7562  0.5048 -0.8720
19916TIP3    H181239   2.978   0.040   4.988 -3.5342 -0.0292 -1.3794
19916TIP3    H281240   2.998   0.117   5.117  0.3959 -1.5556 -0.9213
19917TIP3   OH281241   2.997   3.643  11.056  0.7495 -0.5790  0.1381
19917TIP3    H181242   2.994   3.569  10.995 -1.7723 -0.3847 -0.0827
19917TIP3    H281243   2.994   3.720  11.000  0.5934 -0.3604  0.4436
19918TIP3   OH281244   1.720   3.203   6.080 -0.0748  0.7900 -0.0430
19918TIP3    H181245   1.706   3.120   6.126 -0.2073  0.2952 -0.9579
19918TIP3    H281246   1.808   3.230   6.107 -0.0726  0.4074  0.3447
19919TIP3   OH281247   6.108   3.693   3.234  0.7950 -0.4283 -0.0744
19919TIP3    H181248   6.018   3.696   3.202  1.0212 -1.7993 -0.9198
19919TIP3    H281249   6.099   3.688   3.330 -0.1098 -2.0983 -0.2042
19920TIP3   OH281250   6.472   0.625   6.478  0.5637  0.2435 -0.8836
19920TIP3    H181251   6.480   0.718   6.497 -0.2143  0.2799 -0.7061
19920TIP3    H281252   6.475   0.583   6.564 -0.6063  0.2283 -0.8401
19921TIP3   OH281253   4.959   4.525  15.511  0.2631 -0.1715  0.0790
19921TIP3    H181254   4.880   4.546  15.460  1.5061  0.1794 -1.8079
19921TIP3    H281255   4.971   4.431  15.500 -0.2120 -0.3429  0.9050
19922TIP3   OH281256   1.168   3.012   3.970 -0.0301  0.2905  0.1196
19922TIP3    H181257   1.203   3.090   4.013  0.8694  0.5571 -1.0657
19922TIP3    H281258   1.218   2.939   4.007 -0.3025  0.3551  0.6209
19923TIP3   OH281259   3.729   0.672  14.515 -0.2370  0.3637 -0.1882
19923TIP3    H181260   3.723   0.577  14.520 -0.0155  0.3485 -0.2148
19923TIP3    H281261   3.694   0.694  14.429  0.1903  0.2630 -0.3930
19924TIP3   OH281262   1.970   3.144  14.273  0.6201  0.2046 -0.6365
19924TIP3    H181263   1.935   3.097  14.348  1.1226 -2.6527 -2.0591
19924TIP3    H281264   2.011   3.222  14.310 -2.4811  0.9747  1.6014
19925TIP3   OH281265   1.175   5.627   2.254  0.0452  0.0130 -0.3857
19925TIP3    H181266   1.085   5.654   2.236 -0.0552 -0.6209 -0.9110
19925TIP3    H281267   1.180   5.620   2.349 -0.4514  0.0897 -0.3510
19926TIP3   OH281268   0.903   5.682  14.839  0.0675  0.0190  0.5566
19926TIP3    H181269   0.927   5.617  14.906 -1.2856  0.5532  1.6076
19926TIP3    H281270   0.971   5.674  14.773  0.4903 -1.7689  1.1441
19927TIP3   OH281271   2.426   1.605  16.831 -0.4321  0.1578 -0.1901
19927TIP3    H181272   2.451   1.543  16.763  2.1907  2.0211 -1.0605
19927TIP3    H281273   2.369   1.668  16.787 -0.2544  0.3266 -0.1774
19928TIP3   OH281274   3.588   2.461  15.950 -0.3301 -0.3228 -0.7133
19928TIP3    H181275   3.530   2.447  16.025 -0.8665 -1.1092 -1.2527
19928TIP3    H281276   3.649   2.529  15.979 -0.6539 -0.4656  0.3585
19929TIP3   OH281277   0.698   0.569   5.760 -0.3942  0.2046  0.6458
19929TIP3    H181278   0.792   0.568   5.779 -0.4944 -0.2027  1.1374
19929TIP3    H281279   0.671   0.659   5.777  0.0183  0.4720 -0.0681
19930TIP3   OH281280   0.834   5.239  11.314  0.0119  0.1298 -0.1874
19930TIP3    H181281   0.794   5.153  11.324  0.2557 -0.0434 -0.6825
19930TIP3    H281282   0.925   5.227  11.339  0.2683  0.0291 -1.1451
19931TIP3   OH281283   5.239   2.693   2.796 -0.1418 -0.1522  0.3528
19931TIP3    H181284   5.165   2.642   2.828  0.0616 -0.4810  0.2988
19931TIP3    H281285   5.316   2.643   2.822  0.0192 -0.7097 -1.1019
19932TIP3   OH281286   0.946   1.241  11.995 -0.1776  0.2333  0.0885
19932TIP3    H181287   0.933   1.276  12.083 -1.1559  1.3157 -0.4600
19932TIP3    H281288   0.864   1.262  11.949  0.5842  0.2891 -1.2721
19933TIP3   OH281289   4.473   6.138   2.518  0.2349 -0.0483 -0.3862
19933TIP3    H181290   4.380   6.116   2.524  0.3786 -0.6936 -0.4727
19933TIP3    H281291   4.485   6.168   2.427  0.1564 -0.1878 -0.4429
19934TIP3   OH281292   2.711   4.783   3.972 -0.2408 -0.3860 -0.7566
19934TIP3    H181293   2.625   4.743   3.963 -0.3616  0.1975 -2.7609
19934TIP3    H281294   2.746   4.748   4.054 -3.1371  0.8937  1.1356
19935TIP3   OH281295   3.405   5.380  14.435  0.0643  0.0071  0.1183
19935TIP3    H181296   3.472   5.401  14.370 -0.8909 -1.1046 -1.2739
19935TIP3    H281297   3.420   5.444  14.505  2.4661 -0.1048 -0.2008
19936TIP3   OH281298   0.559   4.312  15.748 -0.2741  0.2916 -0.7659
19936TIP3    H181299   0.555   4.395  15.700  0.1216  0.7073 -0.0884
19936TIP3    H281300   0.541   4.335  15.839 -1.8718 -0.6072 -0.8086
19937TIP3   OH281301   6.650   3.019   2.287 -0.6714  0.6350  0.1263
19937TIP3    H181302   6.686   3.090   2.340 -1.7060  0.1694  1.5229
19937TIP3    H281303   6.588   2.976   2.345 -0.5753 -0.9863 -0.9272
19938TIP3   OH281304   1.069   6.141  16.536  0.0186 -0.3766  0.0436
19938TIP3    H181305   1.050   6.232  16.558 -3.0987 -1.5010  2.9216
19938TIP3    H281306   1.154   6.123  16.577  0.3037  1.0108  0.0952
19939TIP3   OH281307   5.960   2.545   1.090 -0.6189  0.4538 -0.0900
19939TIP3    H181308   5.986   2.636   1.072  1.7435  0.3626  2.3699
19939TIP3    H281309   5.943   2.543   1.184 -1.0699 -1.5877 -0.1740
19940TIP3   OH281310   3.358   0.600   5.276 -0.1559  0.6293  0.0443
19940TIP3    H181311   3.296   0.543   5.230 -0.8630  1.1412  0.3466
19940TIP3    H281312   3.355   0.683   5.227  1.4364  0.2014 -0.8546
19941TIP3   OH281313   4.069   5.213  15.514  0.2137 -0.5738 -0.0132
19941TIP3    H181314   4.150   5.247  15.475  0.7436 -1.4684  0.2942
19941TIP3    H281315   4.093   5.129  15.552 -0.5253 -0.2009  1.3485
19942TIP3   OH281316   2.950   1.083   4.274  0.3989 -0.0453 -0.1400
19942TIP3    H181317   3.038   1.052   4.294  0.4274 -0.1978 -0.4936
19942TIP3    H281318   2.894   1.040   4.338  0.6955  0.7991  0.7089
19943TIP3   OH281319   5.263   6.739   5.041  0.2888  0.2169 -0.8607
19943TIP3    H181320   5.261   6.800   5.115  0.6861 -0.9226  0.1120
19943TIP3    H281321   5.228   6.657   5.076  1.2803 -0.5866 -1.7037
19944TIP3   OH281322   4.144   3.443  16.622  0.4782 -0.0247  0.0568
19944TIP3    H181323   4.217   3.502  16.636  0.2538  0.2013  0.2888
19944TIP3    H281324   4.145   3.384  16.698  1.6164 -1.3008 -0.9041
19945TIP3   OH281325   2.910   4.371   2.094  0.3880 -0.0784  0.5708
19945TIP3    H181326   2.906   4.292   2.039 -2.7843  0.0990  0.3433
19945TIP3    H281327   2.884   4.442   2.035  0.7810  0.7402  1.3695
19946TIP3   OH281328   5.316   2.071   6.117 -0.1864 -0.2289  0.3991
19946TIP3    H181329   5.385   2.006   6.103 -1.1618 -0.9904 -1.2400
19946TIP3    H281330   5.318   2.089   6.211  1.1656 -1.4320  0.6368
19947TIP3   OH281331   3.181   5.161  12.883 -0.1482 -0.0641  0.4021
19947TIP3    H181332   3.187   5.253  12.908  0.1446 -0.0002  0.1102
19947TIP3    H281333   3.262   5.122  12.917  0.1637 -0.0150 -0.2810
19948TIP3   OH281334   2.725   3.736  14.480 -0.5754  0.5414  0.1529
19948TIP3    H181335   2.792   3.786  14.432 -0.7978  0.2439 -0.4838
19948TIP3    H281336   2.750   3.743  14.572  0.6814 -0.0771 -0.1266
19949TIP3   OH281337   4.491   5.160  13.163 -0.1714 -0.0299 -0.6129
19949TIP3    H181338   4.482   5.065  13.163  1.3131 -0.2201 -2.2041
19949TIP3    H281339   4.443   5.189  13.086  1.3620  0.2190 -1.5253
19950TIP3   OH281340   4.553   2.885   5.986 -0.2660 -0.5371  0.2897
19950TIP3    H181341   4.645   2.904   6.008  0.0858 -1.6310 -0.1670
19950TIP3    H281342   4.526   2.820   6.052 -0.8968  0.2062  0.7722
19951TIP3   OH281343   1.248   1.040  13.809 -0.9896 -0.0217 -0.3421
19951TIP3    H181344   1.280   1.061  13.897  0.4031  0.4379 -0.9406
19951TIP3    H281345   1.308   0.974  13.776 -1.5094 -0.1968 -0.9488
19952TIP3   OH281346   0.905   4.581  15.935 -0.1184  0.2615 -0.3412
19952TIP3    H181347   0.994   4.612  15.920 -0.2647  0.5711 -0.5720
19952TIP3    H281348   0.851   4.660  15.930 -0.1761  0.4238  1.8422
19953TIP3   OH281349   5.436   2.868  14.252  1.1958 -0.0966 -0.1658
19953TIP3    H181350   5.505   2.809  14.221  2.2120  0.0402  1.7262
19953TIP3    H281351   5.480   2.929  14.310 -0.8044 -1.5699  3.2028
19954TIP3   OH281352   2.632   3.479   2.554 -0.5614 -0.9484 -0.7288
19954TIP3    H181353   2.692   3.468   2.480  0.6507 -0.6519  0.1762
19954TIP3    H281354   2.598   3.391   2.571  0.3808 -1.3147 -0.6540
19955TIP3   OH281355   3.115   1.543  12.410 -0.8407  0.6793 -0.5434
19955TIP3    H181356   3.130   1.500  12.494 -1.2401  1.8292  0.1343
19955TIP3    H281357   3.170   1.494  12.348  0.0217  0.2694  0.5105
19956TIP3   OH281358   2.732   4.735  12.165  0.0537  0.0296  0.7272
19956TIP3    H181359   2.677   4.811  12.148  0.1515  0.4848  2.3189
19956TIP3    H281360   2.821   4.765  12.146 -0.0475 -0.1559 -0.0816
19957TIP3   OH281361   5.339   1.848   0.653 -0.0001 -0.0939 -0.5601
19957TIP3    H181362   5.265   1.826   0.710 -0.6442  1.2409 -0.8430
19957TIP3    H281363   5.390   1.767   0.647 -2.0362 -1.3993 -1.2470
19958TIP3   OH281364   1.126   0.052   2.903  0.0446 -0.0868  0.6899
19958TIP3    H181365   1.213   0.062   2.866 -0.3672  1.6157  0.0885
19958TIP3    H281366   1.067   0.060   2.828 -0.7099  1.1198  1.3879
19959TIP3   OH281367   5.829   0.576   3.225  0.3569  0.0413  0.2497
19959TIP3    H181368   5.903   0.573   3.164 -1.4256 -1.3496 -2.0004
19959TIP3    H281369   5.788   0.661   3.209  0.3506  0.0076  0.0854
19960TIP3   OH281370   3.490   2.203  11.060  0.4788  0.1072  0.6391
19960TIP3    H181371   3.583   2.187  11.074  0.9820 -0.6555 -2.6553
19960TIP3    H281372   3.448   2.119  11.075  0.8143 -0.3467 -0.7692
19961TIP3   OH281373   2.255   0.048   6.220  0.7849  0.7831 -0.3844
19961TIP3    H181374   2.345   0.079   6.225  0.3916  1.8975  0.0592
19961TIP3    H281375   2.255  -0.014   6.147  2.1137  0.0173  0.2329
19962TIP3   OH281376   6.388   1.356  11.964 -0.0335 -0.2581  0.0811
19962TIP3    H181377   6.427   1.347  12.051  0.5765  1.5378  0.0202
19962TIP3    H281378   6.380   1.266  11.932  2.1713 -0.7991  0.9157
19963TIP3   OH281379   3.702   1.311   0.270  0.0553 -0.3706 -0.0854
19963TIP3    H181380   3.679   1.274   0.356  1.5506  0.0012  0.5067
19963TIP3    H281381   3.769   1.377   0.289 -0.6268  0.7585 -1.4082
19964TIP3   OH281382   2.745   2.665   0.015 -0.4470 -0.1172 -0.0417
19964TIP3    H181383   2.771   2.574   0.028 -0.3911 -0.2791 -1.2224
19964TIP3    H281384   2.718   2.694   0.102 -2.6983 -1.9448 -0.0429
19965TIP3   OH281385   1.723   3.313  15.291 -0.3137  0.0907 -0.7630
19965TIP3    H181386   1.764   3.226  15.285 -0.6688 -0.0547 -1.0791
19965TIP3    H281387   1.797   3.374  15.287 -0.1303 -0.1643 -1.6213
19966TIP3   OH281388   0.915   0.453  14.880  0.2882  0.3173  0.1817
19966TIP3    H181389   0.958   0.430  14.798  1.9393 -0.6446  1.2424
19966TIP3    H281390   0.945   0.387  14.942 -0.8326  1.0689  1.5984
19967TIP3   OH281391   4.194   0.657   1.410  0.4454 -0.6023  0.3300
19967TIP3    H181392   4.261   0.680   1.474  1.5122 -2.2027 -0.1390
19967TIP3    H281393   4.139   0.734   1.404  1.6106  0.3735  1.5495
19968TIP3   OH281394   1.012   2.186  15.356  0.3020  0.9246  1.2372
19968TIP3    H181395   1.032   2.269  15.311 -1.4245  0.3981 -0.7014
19968TIP3    H281396   1.082   2.127  15.328 -0.1291  0.9256  0.0655
19969TIP3   OH281397   6.078   5.598   5.375 -0.1652 -0.5312 -0.3505
19969TIP3    H181398   6.122   5.572   5.294 -0.1724 -1.0733 -0.1851
19969TIP3    H281399   6.002   5.541   5.381 -0.3331 -0.2854 -0.1160
19970TIP3   OH281400   1.814   3.963  16.850 -0.0611 -0.2121 -1.3602
19970TIP3    H181401   1.909   3.972  16.836  0.1090  3.0914  0.8485
19970TIP3    H281402   1.777   4.043  16.811 -1.4391  0.3734  0.9865
19971TIP3   OH281403   3.481   3.623  11.703  0.2873  0.2433  0.3145
19971TIP3    H181404   3.549   3.681  11.737  1.2070 -0.3267 -0.4885
19971TIP3    H281405   3.527   3.542  11.680 -0.5190  0.0987 -0.9280
19972TIP3   OH281406   3.588   6.373   5.129  0.0559  0.2378  0.1950
19972TIP3    H181407   3.553   6.319   5.058 -1.3732  0.2404  0.8732
19972TIP3    H281408   3.681   6.384   5.106 -0.2120 -0.3142 -1.3136
19973TIP3   OH281409   0.984   0.826  15.429  0.4676 -0.0769 -0.0153
19973TIP3    H181410   0.961   0.737  15.458  1.2609 -0.0009  0.9026
19973TIP3    H281411   1.079   0.828  15.432  0.4406  1.0235  0.6800
19974TIP3   OH281412   4.541   4.521   6.000  0.2955 -0.4768  0.0374
19974TIP3    H181413   4.455   4.500   6.035  0.8241 -1.3056  0.9132
19974TIP3    H281414   4.547   4.616   6.004  0.2256 -0.5104  2.0336
19975TIP3   OH281415   0.807   3.977   6.027 -0.0516  0.3079 -0.0563
19975TIP3    H181416   0.741   4.044   6.008 -0.3901  0.1299  0.4727
19975TIP3    H281417   0.781   3.903   5.972 -0.2277  0.2748  0.0722
19976TIP3   OH281418   1.134   0.755   2.928 -0.0584 -0.4533 -0.3505
19976TIP3    H181419   1.158   0.780   3.018  0.5415  1.2290 -0.9458
19976TIP3    H281420   1.190   0.680   2.909  3.7875  2.3159 -1.0863
19977TIP3   OH281421   4.160   5.048  15.863 -0.1789  0.0568 -0.2768
19977TIP3    H181422   4.100   5.107  15.818 -1.4877 -0.4088  0.7621
19977TIP3    H281423   4.123   5.040  15.951 -1.0515 -3.5543 -0.8062
19978TIP3   OH281424   1.641   1.901  14.248  0.1313 -0.1356  0.3637
19978TIP3    H181425   1.573   1.838  14.272 -1.1659  1.3106  0.7224
19978TIP3    H281426   1.706   1.894  14.318 -0.3316 -0.5875  0.7588
19979TIP3   OH281427   5.921   3.925  16.275 -0.4604 -0.2577  0.1284
19979TIP3    H181428   5.979   3.853  16.248 -0.1609 -0.2791  0.8014
19979TIP3    H281429   5.880   3.894  16.356 -1.7973 -0.4405 -0.5816
19980TIP3   OH281430   3.014   4.054   4.337 -0.3841 -0.2959  0.1546
19980TIP3    H181431   3.014   4.077   4.244  0.5552 -0.3921  0.1198
19980TIP3    H281432   3.016   3.958   4.338  2.4670 -0.3273  0.2011
19981TIP3   OH281433   1.800   6.726  15.656  0.3550  0.1323  0.0424
19981TIP3    H181434   1.744   6.772  15.719 -0.3132  0.4756 -0.7804
19981TIP3    H281435   1.772   6.759  15.570  0.9371 -0.6569 -0.4672
19982TIP3   OH281436   6.538   5.061  16.075 -0.2254  0.1388 -0.0624
19982TIP3    H181437   6.491   5.114  16.010 -1.1591 -1.2843 -0.6023
19982TIP3    H281438   6.494   5.080  16.158  1.2010  2.2385  0.2839
19983TIP3   OH281439   6.190   1.598   1.808  0.1011  0.2733 -0.3180
19983TIP3    H181440   6.115   1.578   1.863  0.8380 -0.6659  0.3730
19983TIP3    H281441   6.220   1.683   1.838  0.2465 -0.0470  0.4584
19984TIP3   OH281442   6.634   4.452  15.286 -0.2596 -0.7098  0.3552
19984TIP3    H181443   6.719   4.410  15.298  1.1505  1.7110 -0.3753
19984TIP3    H281444   6.627   4.514  15.358 -0.3308  0.6882 -0.8111
19985TIP3   OH281445   5.912   4.929   0.957 -0.3063  0.5244  0.0920
19985TIP3    H181446   5.979   4.977   1.004 -1.6244  2.1253  0.4338
19985TIP3    H281447   5.946   4.840   0.949  0.8052  0.7062  2.3241
19986TIP3   OH281448   6.170   1.495   0.630 -0.7622 -0.0945  0.3812
19986TIP3    H181449   6.244   1.483   0.570  0.2136 -0.8627  1.6694
19986TIP3    H281450   6.163   1.589   0.642 -1.0960  0.0799 -1.0601
19987TIP3   OH281451   2.076   1.557  16.446  0.7350 -0.0902  0.0672
19987TIP3    H181452   2.062   1.638  16.396 -0.6950  1.3463  2.6034
19987TIP3    H281453   1.988   1.525  16.465  1.1870 -0.2187  2.1576
19988TIP3   OH281454   1.806   4.455   4.868 -0.0960 -0.4222 -0.0523
19988TIP3    H181455   1.886   4.414   4.836  0.5857  0.7207  0.1041
19988TIP3    H281456   1.810   4.445   4.963 -0.1520 -0.3937 -0.0466
19989TIP3   OH281457   0.901   4.329  16.595  0.4929  0.3711  0.3839
19989TIP3    H181458   0.866   4.408  16.636 -1.3650 -0.1349 -0.1229
19989TIP3    H281459   0.988   4.354  16.566 -0.0278  2.2248  0.2788
19990TIP3   OH281460   3.982   6.139   3.705  0.2369 -0.3612  0.0694
19990TIP3    H181461   4.058   6.191   3.731  0.1692  0.5950 -1.4963
19990TIP3    H281462   3.911   6.169   3.761  0.4610  0.4445 -0.0774
19991TIP3   OH281463   1.587   2.812  15.476 -0.7630 -0.2292 -0.7520
19991TIP3    H181464   1.650   2.810  15.404 -0.3529  2.5885 -0.6047
19991TIP3    H281465   1.527   2.739  15.458  0.8741 -1.2387 -2.4509
19992TIP3   OH281466   5.239   5.345  16.653  0.0703  0.2395 -0.2858
19992TIP3    H181467   5.287   5.267  16.681 -1.8128 -1.1667 -0.7723
19992TIP3    H281468   5.271   5.414  16.711  0.5382 -1.2651  1.3559
19993TIP3   OH281469   2.663   1.005  12.521 -0.6796 -0.1796 -0.2841
19993TIP3    H181470   2.723   1.067  12.563 -0.9249 -0.8515  1.1498
19993TIP3    H281471   2.585   1.056  12.501 -0.4381  0.2298 -0.1943
19994TIP3   OH281472   0.011   2.257   2.934  0.5153  0.3590 -0.1985
19994TIP3    H181473  -0.016   2.313   2.861  0.8019 -0.8154 -1.2324
19994TIP3    H281474  -0.060   2.265   2.998 -0.1609  0.7477 -0.9747
19995TIP3   OH281475   4.138   5.546   4.624  0.2051 -0.0388 -0.3009
19995TIP3    H181476   4.118   5.507   4.709  1.3045 -0.4395 -0.2133
19995TIP3    H281477   4.141   5.472   4.563 -0.7777  0.2663 -0.7420
19996TIP3   OH281478   6.410   0.471  13.236  0.3491 -0.3915  0.0590
19996TIP3    H181479   6.459   0.392  13.216 -0.2052 -0.9564  0.8499
19996TIP3    H281480   6.350   0.482  13.162 -0.6271 -1.5943  0.6303
19997TIP3   OH281481   4.349   4.694   6.451  0.3515 -0.0073  0.0790
19997TIP3    H181482   4.397   4.633   6.506 -0.0821  1.6411  2.4546
19997TIP3    H281483   4.257   4.668   6.461  0.3740 -0.6696 -1.2105
19998TIP3   OH281484   6.014   1.035  10.693 -0.0053  0.9113  0.2094
19998TIP3    H181485   5.990   1.072  10.778 -0.2380 -0.3542  0.7139
19998TIP3    H281486   5.964   1.086  10.629 -1.9186  0.1290  1.0308
19999TIP3   OH281487   1.622   6.209   5.635 -0.1443  0.4721 -0.3739
19999TIP3    H181488   1.683   6.137   5.617  0.3863  1.1101 -1.1808
19999TIP3    H281489   1.614   6.256   5.552 -1.1203  0.8762 -0.0685
20000TIP3   OH281490   3.435   0.406   3.718  0.6053 -0.7695  0.2024
20000TIP3    H181491   3.506   0.392   3.656  0.0737  0.7441 -0.8075
20000TIP3    H281492   3.424   0.501   3.721 -0.5967 -0.9117  1.2222
20001TIP3   OH281493   5.021   6.770   2.407 -0.5132 -0.9076  0.2939
20001TIP3    H181494   5.028   6.798   2.315 -1.8589 -0.8317  0.1923
20001TIP3    H281495   4.960   6.834   2.446 -2.3168 -2.6453  0.4843
20002TIP3   OH281496   3.379   6.597   4.685  0.3908 -0.5950 -0.2452
20002TIP3    H181497   3.325   6.519   4.676  0.7776 -0.7372 -1.6278
20002TIP3    H281498   3.469   6.564   4.687  0.6872 -0.1447 -2.7518
20003TIP3   OH281499   2.276   0.019   1.562  0.3175  0.3435  0.5002
20003TIP3    H181500   2.215   0.016   1.488  0.1224  0.0591  0.6711
20003TIP3    H281501   2.327   0.099   1.548 -2.7487  2.8974  2.4347
20004TIP3   OH281502   2.530   0.954   3.284  0.0230  0.3638  0.4774
20004TIP3    H181503   2.557   0.910   3.364 -0.7147  0.2904  0.6867
20004TIP3    H281504   2.453   1.005   3.308 -2.0507 -1.9492 -0.7850
20005TIP3   OH281505   3.277   0.796   3.058  0.0645 -0.3404  0.2121
20005TIP3    H181506   3.204   0.797   2.997  0.5292 -0.2593 -0.3481
20005TIP3    H281507   3.354   0.814   3.004  0.6464 -1.5583  0.5949
20006TIP3   OH281508   5.070   3.210  13.817 -0.3453 -0.0625  0.1559
20006TIP3    H181509   5.048   3.188  13.908 -1.3629 -1.2810 -0.3619
20006TIP3    H281510   5.155   3.253  13.823  0.8552 -2.4216  1.4467
20007TIP3   OH281511   4.502   1.709   1.606  0.2875  0.7150  0.3561
20007TIP3    H181512   4.513   1.622   1.569  0.7089  1.2359 -0.7997
20007TIP3    H281513   4.514   1.698   1.700 -0.5913 -0.6200  0.3361
20008TIP3   OH281514   0.628   3.746  12.814 -0.6780 -0.1851 -0.0861
20008TIP3    H181515   0.605   3.822  12.760 -0.3900  0.2372  0.3861
20008TIP3    H281516   0.554   3.735  12.874 -1.0048 -0.6643 -0.5557
20009TIP3   OH281517   2.256   2.252  16.753  0.0391 -0.3130 -0.0457
20009TIP3    H181518   2.313   2.285  16.822 -0.1448  0.7789 -0.3976
20009TIP3    H281519   2.298   2.172  16.722  1.7143  0.7750 -0.7103
20010TIP3   OH281520   5.605   4.701  15.790 -0.1330 -0.4489  0.1143
20010TIP3    H181521   5.700   4.699  15.782  0.0342  1.8475  0.8061
20010TIP3    H281522   5.573   4.688  15.700  0.9346  1.1909 -0.5370
20011TIP3   OH281523   3.679   1.865   5.526 -0.0638 -0.5809  0.1041
20011TIP3    H181524   3.589   1.892   5.511  0.6459  1.1761 -1.4424
20011TIP3    H281525   3.705   1.910   5.607  0.1575  1.0443 -0.8172
20012TIP3   OH281526   4.694   3.859   4.704 -0.3111  0.1095  0.5940
20012TIP3    H181527   4.626   3.846   4.638 -0.4155  1.0029  0.5143
20012TIP3    H281528   4.646   3.879   4.784 -0.1555  0.2577  0.6502
20013TIP3   OH281529   1.490   2.079  12.357 -0.6071 -0.2129  0.1705
20013TIP3    H181530   1.412   2.063  12.304  0.4122  0.7416 -1.7170
20013TIP3    H281531   1.563   2.068  12.297  0.5965  1.2313  1.2795
20014TIP3   OH281532   1.301   4.435   1.353  0.4314  0.6859  0.4132
20014TIP3    H181533   1.377   4.423   1.296  0.7787 -0.0178  1.0045
20014TIP3    H281534   1.270   4.523   1.334  0.4427  0.4113 -0.9749
20015TIP3   OH281535   0.797   3.958   1.479 -0.3630  0.8586  1.0121
20015TIP3    H181536   0.794   3.869   1.444 -2.3750  0.5970  1.6722
20015TIP3    H281537   0.706   3.989   1.473  0.3910  3.1100  0.2544
20016TIP3   OH281538   4.261   1.808   3.543  0.3658  0.6354  0.3679
20016TIP3    H181539   4.315   1.732   3.525  0.8580  0.9317  0.5642
20016TIP3    H281540   4.172   1.774   3.548  0.6627 -0.0597  1.2416
20017TIP3   OH281541   0.046   3.885  12.585  0.3972  0.1332 -0.3575
20017TIP3    H181542   0.076   3.818  12.647 -0.6823 -0.4209 -0.4100
20017TIP3    H281543   0.007   3.835  12.513 -1.1400  0.8270 -0.0289
20018TIP3   OH281544   5.478   2.400  14.467 -0.0318  0.1159 -0.2130
20018TIP3    H181545   5.502   2.316  14.506  0.8375  0.2849 -0.3685
20018TIP3    H281546   5.527   2.403  14.385 -0.4150  0.5774 -0.4325
20019TIP3   OH281547   0.412   3.917   4.295  0.0255  0.2102 -0.1465
20019TIP3    H181548   0.426   3.928   4.201  0.8967  0.8885  0.0488
20019TIP3    H281549   0.330   3.962   4.313  0.8043  1.7658 -0.2883
20020TIP3   OH281550   1.685   2.905  11.920  0.0133 -0.1604  0.0014
20020TIP3    H181551   1.754   2.971  11.919  0.6370 -0.7975  0.6872
20020TIP3    H281552   1.604   2.956  11.922  0.4852  0.5836  0.4144
20021TIP3   OH281553   5.882   5.030   1.337  0.4911 -0.5553 -0.0174
20021TIP3    H181554   5.820   5.006   1.268  0.0065 -1.0900  0.5864
20021TIP3    H281555   5.827   5.064   1.407  0.9027 -0.7788  0.4217
20022TIP3   OH281556   2.368   0.090  15.867 -0.0599  0.3175  0.0679
20022TIP3    H181557   2.343   0.002  15.839 -0.8795  0.3784  0.5720
20022TIP3    H281558   2.342   0.147  15.794  2.0383 -0.0145 -1.0182
20023TIP3   OH281559   5.492   3.131  12.547 -0.0437 -0.5842 -0.1318
20023TIP3    H181560   5.476   3.218  12.511 -1.5136 -0.7080  0.1490
20023TIP3    H281561   5.559   3.145  12.614 -0.5360  0.4090  0.1757
20024TIP3   OH281562   0.787   0.899   0.097  0.3412  0.7311  0.1050
20024TIP3    H181563   0.873   0.856   0.105  0.8842  1.7488 -0.0844
20024TIP3    H281564   0.808   0.989   0.073 -0.7960  0.9765 -0.0041
20025TIP3   OH281565   1.655   2.825  13.175  0.5211 -0.2280  0.1660
20025TIP3    H181566   1.709   2.759  13.133  0.6737 -0.7208  1.0953
20025TIP3    H281567   1.706   2.906  13.171 -0.2325  0.1997 -2.1778
20026TIP3   OH281568   6.115   4.625  13.627  0.2869  0.1637 -0.2423
20026TIP3    H181569   6.037   4.680  13.628 -0.6268 -1.0700 -1.1115
20026TIP3    H281570   6.187   4.686  13.645 -0.7980  1.4266 -0.0141
20027TIP3   OH281571   5.215   1.574   6.964 -0.1602  0.2203  0.2459
20027TIP3    H181572   5.301   1.605   6.993 -0.5336  1.2124  0.3326
20027TIP3    H281573   5.166   1.654   6.945 -0.3320 -0.3639 -1.9796
20028TIP3   OH281574   1.784   0.148   2.309 -0.0748 -0.4705  1.1097
20028TIP3    H181575   1.805   0.160   2.216  0.0319 -0.5089  1.1289
20028TIP3    H281576   1.862   0.107   2.346  0.9786  1.9284  1.7457
20029TIP3   OH281577   3.051   3.043  11.509  0.1104  0.2371 -0.8830
20029TIP3    H181578   2.959   3.066  11.497 -0.2164 -0.5693 -0.0112
20029TIP3    H281579   3.090   3.121  11.550 -0.2414  0.4781 -1.0044
20030TIP3   OH281580   3.869   2.979  14.951 -1.1078  0.2693 -0.2469
20030TIP3    H181581   3.868   3.023  14.865 -1.0686  1.1065  0.1689
20030TIP3    H281582   3.939   3.022  14.999 -1.1094 -0.2227  0.2024
20031TIP3   OH281583   1.405   6.161   4.734 -0.3499  0.2295 -0.3090
20031TIP3    H181584   1.419   6.081   4.784  0.8559  1.3643  1.2907
20031TIP3    H281585   1.440   6.141   4.647 -0.3548 -1.0563 -0.0409
20032TIP3   OH281586   0.302   3.819  12.487  0.2041  0.0063  0.2708
20032TIP3    H181587   0.309   3.885  12.418  0.7307  0.0235  0.3379
20032TIP3    H281588   0.212   3.829  12.520 -0.4125 -0.7033 -1.0994
20033TIP3   OH281589   3.885   2.906   4.727  0.1883  0.9241  0.2554
20033TIP3    H181590   3.847   2.956   4.655 -0.6771 -0.4117 -0.2539
20033TIP3    H281591   3.974   2.886   4.699  0.1457  1.1733 -0.0520
20034TIP3   OH281592   1.298   1.895   4.598 -0.4195 -0.1822 -0.2640
20034TIP3    H181593   1.316   1.802   4.586 -1.3601 -0.5440  0.9069
20034TIP3    H281594   1.211   1.907   4.560 -0.5402  0.0942  0.0966
20035TIP3   OH281595   3.131   6.189   6.427  0.0236  0.2036 -0.0248
20035TIP3    H181596   3.155   6.266   6.478  0.8430 -0.2903  0.3541
20035TIP3    H281597   3.145   6.115   6.486 -0.1182 -0.2921 -0.5965
20036TIP3   OH281598   2.015   0.265   5.136  0.0138 -0.3847  0.0231
20036TIP3    H181599   2.031   0.299   5.224 -1.9125  1.5969 -0.3142
20036TIP3    H281600   2.083   0.198   5.124  2.7735  1.9433  1.5130
20037TIP3   OH281601   2.352   2.128  11.086  0.1058  0.4886 -0.6303
20037TIP3    H181602   2.409   2.140  11.010 -0.7655 -1.0417 -1.5809
20037TIP3    H281603   2.272   2.088  11.051 -1.1335  1.5536  0.8244
20038TIP3   OH281604   0.734   1.800  11.433 -0.4468 -0.2609 -0.3653
20038TIP3    H181605   0.803   1.840  11.485 -0.9111 -0.4010  0.3763
20038TIP3    H281606   0.657   1.855  11.448 -1.2870 -1.7446  1.2367
20039TIP3   OH281607   3.766   5.793  12.741 -0.0174 -0.2936 -0.4917
20039TIP3    H181608   3.807   5.871  12.778 -1.0504  0.2259 -0.3889
20039TIP3    H281609   3.673   5.804  12.761  0.0999 -3.1837  2.6952
20040TIP3   OH281610   3.457   5.237   2.659  0.2663  0.2393  0.2563
20040TIP3    H181611   3.383   5.279   2.702  1.6313  1.0482  1.9118
20040TIP3    H281612   3.523   5.228   2.727  1.4595 -1.1251 -0.9929
20041TIP3   OH281613   1.064   6.601  15.939  0.3300  0.0477  0.6458
20041TIP3    H181614   1.102   6.558  15.862  0.8437  1.0744  0.3155
20041TIP3    H281615   1.140   6.633  15.988 -0.0480  0.5015  0.9404
20042TIP3   OH281616   3.108   5.641   2.678  0.2194 -0.2449  0.3162
20042TIP3    H181617   3.108   5.703   2.751  0.9359 -2.3460  2.2371
20042TIP3    H281618   3.018   5.607   2.675 -0.2674  1.0642 -0.9657
20043TIP3   OH281619   4.394   3.391   2.875  0.3410  0.8523  0.5615
20043TIP3    H181620   4.338   3.313   2.872 -0.0670  1.1378  0.7491
20043TIP3    H281621   4.335   3.465   2.862  0.7076  1.1437  0.5227
20044TIP3   OH281622   2.130   0.778  14.982 -0.2689  0.1328 -0.3219
20044TIP3    H181623   2.122   0.687  15.011 -0.1554  0.1559 -0.2182
20044TIP3    H281624   2.223   0.798  14.989 -0.6121  1.1980  2.5870
20045TIP3   OH281625   1.130   5.908  10.782 -0.4859  0.5259 -0.5781
20045TIP3    H181626   1.152   5.996  10.752 -1.2883  0.4617 -1.4069
20045TIP3    H281627   1.214   5.862  10.787 -0.1415  1.1162 -0.8587
20046TIP3   OH281628   1.817   1.044   0.211 -0.4931  0.2229 -0.2018
20046TIP3    H181629   1.909   1.017   0.205 -0.2427  0.8752  0.5657
20046TIP3    H281630   1.768   0.972   0.170  0.0804 -1.8013  2.4180
20047TIP3   OH281631   3.567   5.701  12.224  0.2159  0.3125  0.0628
20047TIP3    H181632   3.527   5.724  12.140 -0.4066  0.6674  0.4508
20047TIP3    H281633   3.541   5.610  12.239  0.8745  0.0374 -0.4376
20048TIP3   OH281634   3.788   2.479  17.086  0.1574  0.3124 -0.4230
20048TIP3    H181635   3.768   2.573  17.088 -0.2459  0.2717 -1.7247
20048TIP3    H281636   3.873   2.474  17.043  0.3300  0.0948 -0.0602
20049TIP3   OH281637   3.077   2.051  11.303  0.5589  0.3136 -0.1386
20049TIP3    H181638   3.158   2.025  11.347  1.2066 -0.3403 -1.6516
20049TIP3    H281639   3.014   2.061  11.374  0.9927 -2.8120  0.8421
20050TIP3   OH281640   2.716   1.547   4.854 -0.3166  0.0956 -0.5867
20050TIP3    H181641   2.749   1.608   4.788 -1.9180 -0.3270 -1.8593
20050TIP3    H281642   2.706   1.600   4.933  2.0719  0.5128 -0.5099
20051TIP3   OH281643   4.426   0.884   1.247 -0.5760 -0.4292 -0.2091
20051TIP3    H181644   4.372   0.906   1.323  0.6061  0.0109  0.5356
20051TIP3    H281645   4.364   0.861   1.179 -1.8759  3.0101 -0.3760
20052TIP3   OH281646   3.393   0.912  12.623  0.3836  0.8587  1.1071
20052TIP3    H181647   3.481   0.926  12.658  0.6969 -1.5542  1.4082
20052TIP3    H281648   3.336   0.925  12.699  0.8017 -1.0731  1.8013
20053TIP3   OH281649   4.445   6.507   1.578 -0.4484  0.8066 -0.6503
20053TIP3    H181650   4.411   6.462   1.501  0.3345 -1.2683  0.1419
20053TIP3    H281651   4.381   6.489   1.647  1.0179 -1.1972  0.2707
20054TIP3   OH281652   0.803   4.561  13.281 -0.1282 -0.1813 -1.1739
20054TIP3    H181653   0.864   4.511  13.226  0.0856  1.0295 -2.0698
20054TIP3    H281654   0.752   4.614  13.219 -2.2340 -1.2552 -0.4852
20055TIP3   OH281655   2.192   1.851  16.832  0.0084  0.3525  0.0895
20055TIP3    H181656   2.113   1.800  16.848  0.1009  0.3201  0.4488
20055TIP3    H281657   2.164   1.920  16.771 -1.4927  3.2046  3.6319
20056TIP3   OH281658   1.608   4.725  16.051 -0.0166  0.2201  0.3557
20056TIP3    H181659   1.579   4.667  16.122  1.0059 -1.5194 -0.5660
20056TIP3    H281660   1.672   4.783  16.093  1.7490 -1.7941  0.6518
20057TIP3   OH281661   3.532   1.213  11.915  0.1638 -0.4095  0.7078
20057TIP3    H181662   3.459   1.178  11.966 -0.3857  2.4145  2.0336
20057TIP3    H281663   3.538   1.155  11.839 -2.6229 -1.5049  1.1991
20058TIP3   OH281664   5.947   3.778  14.228  0.4274  0.0906 -0.1089
20058TIP3    H181665   5.924   3.685  14.238 -0.5729  0.1797 -1.3112
20058TIP3    H281666   6.038   3.777  14.200  0.7153 -0.4810  0.8011
20059TIP3   OH281667   1.173   0.343   2.334 -0.3732 -0.0579 -0.4562
20059TIP3    H181668   1.091   0.374   2.372 -1.5073 -1.1184 -1.9107
20059TIP3    H281669   1.198   0.413   2.273 -0.9434 -0.3407 -1.0206
20060TIP3   OH281670   2.618   4.571  14.290 -0.1659 -0.2748  0.3408
20060TIP3    H181671   2.682   4.589  14.359  0.2277  0.3358 -0.1834
20060TIP3    H281672   2.670   4.560  14.211 -0.7980  2.2648 -0.5119
20061TIP3   OH281673   5.827   1.846   6.389  0.2398 -0.1487  0.0661
20061TIP3    H181674   5.788   1.828   6.475 -0.9460 -0.0340 -0.4198
20061TIP3    H281675   5.852   1.938   6.393  0.3934 -0.2028  0.3630
20062TIP3   OH281676   0.723   2.863   0.620 -0.1122 -0.0764  0.1664
20062TIP3    H181677   0.675   2.887   0.698 -1.1657  1.3145 -0.8701
20062TIP3    H281678   0.760   2.945   0.587 -0.1607 -0.5320 -1.0950
20063TIP3   OH281679   1.848   6.810  13.311 -0.6879 -0.2873  0.1742
20063TIP3    H181680   1.938   6.787  13.287  0.0076  1.0240  1.3725
20063TIP3    H281681   1.802   6.819  13.228  0.9237  1.4474 -0.5865
20064TIP3   OH281682   3.058   0.796   0.535  0.1404  0.7426 -0.2905
20064TIP3    H181683   3.141   0.774   0.492  0.2877  1.0147 -0.1483
20064TIP3    H281684   3.082   0.811   0.626  0.2305  2.5090 -0.5591
20065TIP3   OH281685   0.042   0.119   2.825  0.2470 -0.0132 -0.5863
20065TIP3    H181686   0.111   0.149   2.767 -0.0330 -0.1005 -0.9672
20065TIP3    H281687   0.081   0.123   2.913  1.9239 -3.3108 -1.0412
20066TIP3   OH281688   3.671   4.685   0.828  0.4288 -0.2376  0.2065
20066TIP3    H181689   3.682   4.779   0.845  0.0352 -0.3725  1.2628
20066TIP3    H281690   3.733   4.642   0.886  0.1579 -0.6596  0.1852
20067TIP3   OH281691   5.240   5.274   2.915  0.1304  0.1260 -0.4925
20067TIP3    H181692   5.157   5.287   2.961 -0.4733 -0.0880 -1.4915
20067TIP3    H281693   5.220   5.296   2.824  1.4099  0.9847 -0.5869
20068TIP3   OH281694   0.134   5.624  15.969  0.1294  0.2830  0.4166
20068TIP3    H181695   0.123   5.608  15.875 -0.3979  2.9487 -0.0459
20068TIP3    H281696   0.201   5.692  15.974  0.1451  0.1852  1.9956
20069TIP3   OH281697   0.168   5.812  13.921  0.4558 -0.6765 -0.1468
20069TIP3    H181698   0.080   5.792  13.890 -0.1235  0.5263  0.6397
20069TIP3    H281699   0.217   5.836  13.842  0.2466 -1.8733 -0.6528
20070TIP3   OH281700   5.877   4.826   2.622 -0.1712  0.1798 -0.5303
20070TIP3    H181701   5.917   4.739   2.610 -1.4062 -0.7501  1.4882
20070TIP3    H281702   5.942   4.874   2.674  0.2555  0.2623 -1.1322
20071TIP3   OH281703   1.721   1.378  15.298  0.2184  0.5019 -0.2426
20071TIP3    H181704   1.767   1.338  15.372  0.1120 -2.2293 -1.5169
20071TIP3    H281705   1.780   1.363  15.223 -1.1235  0.1970 -1.2728
20072TIP3   OH281706   1.506   1.148   1.654  0.0849 -0.2306  0.1105
20072TIP3    H181707   1.589   1.157   1.606  0.6937 -2.1710  0.6913
20072TIP3    H281708   1.511   1.212   1.724  0.8424  0.0716 -0.2095
20073TIP3   OH281709   6.137   0.267   3.147  0.8397  0.2809  0.6896
20073TIP3    H181710   6.117   0.248   3.239  0.2134  0.3231  0.5676
20073TIP3    H281711   6.100   0.193   3.099  2.8579 -0.7444  0.6032
20074TIP3   OH281712   4.250   1.755  11.499 -0.1055 -0.4050  0.6327
20074TIP3    H181713   4.221   1.844  11.482  0.0707  0.0202  2.4045
20074TIP3    H281714   4.327   1.764  11.555  0.7112 -1.6448 -0.2256
20075TIP3   OH281715   4.865   5.810  16.081  0.6086 -0.2738 -0.2921
20075TIP3    H181716   4.779   5.844  16.108  1.2358  0.3833  0.9740
20075TIP3    H281717   4.857   5.715  16.089  0.6960 -0.1279  2.1473
20076TIP3   OH281718   4.907   5.676   2.198  0.7485  0.1181  0.3216
20076TIP3    H181719   4.851   5.649   2.271  0.1791  1.2261  0.3070
20076TIP3    H281720   4.995   5.677   2.234  0.7327 -1.2641  0.4540
20077TIP3   OH281721   0.398   6.425   1.433  0.5491  0.3904  0.3155
20077TIP3    H181722   0.316   6.473   1.422  0.4094 -0.2058 -1.6402
20077TIP3    H281723   0.465   6.484   1.397  0.5003 -0.4382 -1.2139
20078TIP3   OH281724   4.993   2.166  14.310 -0.5840 -0.6686  0.0908
20078TIP3    H181725   5.030   2.230  14.371 -0.6132 -0.3757 -0.1977
20078TIP3    H281726   4.986   2.085  14.362 -0.8175 -0.3651  0.5389
20079TIP3   OH281727   6.479   0.948  14.338 -0.0515  0.3272  0.3267
20079TIP3    H181728   6.471   1.044  14.332 -1.0799  0.1668 -2.9146
20079TIP3    H281729   6.388   0.917  14.341  0.1604 -0.5571 -1.1412
20080TIP3   OH281730   1.187   0.632   2.700 -0.1474 -0.3117  0.1543
20080TIP3    H181731   1.132   0.699   2.739  0.7906  0.1240  0.7726
20080TIP3    H281732   1.206   0.664   2.612  0.5360  0.4083  0.5440
20081TIP3   OH281733   1.214   0.459   3.432 -0.0917  0.9096 -0.0408
20081TIP3    H181734   1.293   0.484   3.384 -0.8565  0.8728 -1.3593
20081TIP3    H281735   1.165   0.541   3.442 -0.5781  0.6877 -0.5507
20082TIP3   OH281736   1.165   2.862   1.501 -0.0080 -0.2546  0.0396
20082TIP3    H181737   1.097   2.865   1.569  0.7288  1.5803  0.7626
20082TIP3    H281738   1.241   2.824   1.546  0.4518  0.8745  0.2552
20083TIP3   OH281739   5.060   4.301   0.067  0.3649 -0.2268 -0.2709
20083TIP3    H181740   5.057   4.378   0.123 -0.3866 -0.0913 -0.4927
20083TIP3    H281741   5.038   4.228   0.126  2.1272 -0.4393  0.1889
20084TIP3   OH281742   3.391   2.395  12.927  0.6564 -0.0188 -0.3750
20084TIP3    H181743   3.396   2.383  13.022  2.0384 -0.3257 -0.4726
20084TIP3    H281744   3.425   2.483  12.912 -1.7270  0.9825 -0.4195
20085TIP3   OH281745   0.970   2.599   3.136 -0.1209 -0.4141 -0.0755
20085TIP3    H181746   1.011   2.545   3.068  0.6024  0.7052 -0.5624
20085TIP3    H281747   0.882   2.615   3.104 -0.0154 -0.4838 -0.4066
20086TIP3   OH281748   6.150   0.720   4.357 -0.1498 -0.2613  0.2062
20086TIP3    H181749   6.119   0.672   4.433  0.0698  1.5861  1.5287
20086TIP3    H281750   6.073   0.769   4.327 -0.0918 -0.5508 -0.4396
20087TIP3   OH281751   2.320   5.812   5.761  0.1234  0.1608 -0.4500
20087TIP3    H181752   2.260   5.776   5.826 -0.7341 -1.5918 -2.1065
20087TIP3    H281753   2.397   5.838   5.811 -0.2657 -1.6200  1.1999
20088TIP3   OH281754   3.892   4.066  15.269 -0.7781  0.0572  0.1615
20088TIP3    H181755   3.922   4.060  15.178  0.3401  1.4258  0.4033
20088TIP3    H281756   3.931   4.147  15.301 -0.4010 -0.8574  2.1411
20089TIP3   OH281757   2.897   3.005   1.604 -0.2519  0.4507 -0.3508
20089TIP3    H181758   2.849   3.064   1.663  0.1283 -0.3058  0.7625
20089TIP3    H281759   2.842   2.998   1.526  0.2237  3.1436 -1.0137
20090TIP3   OH281760   4.508   5.955  12.108  0.0060 -0.3620 -0.5650
20090TIP3    H181761   4.437   5.969  12.171  0.7272  1.1754 -0.0490
20090TIP3    H281762   4.470   5.978  12.023 -0.8483 -2.0497 -0.6857
20091TIP3   OH281763   1.620   0.807   4.163 -0.2452 -0.0782  0.0364
20091TIP3    H181764   1.610   0.891   4.118 -1.9944  0.5260  1.4061
20091TIP3    H281765   1.690   0.822   4.226  0.6002 -0.1914 -0.8641
20092TIP3   OH281766   1.882   5.828  11.708 -0.2545  0.6970  0.1444
20092TIP3    H181767   1.957   5.849  11.653 -0.6372 -0.1861 -0.7587
20092TIP3    H281768   1.920   5.801  11.792  0.4787 -0.2116 -0.4564
20093TIP3   OH281769   0.679   0.926  16.364  0.0496  0.7324 -0.0343
20093TIP3    H181770   0.665   0.855  16.428  1.7311  1.4655  1.2237
20093TIP3    H281771   0.750   0.894  16.308  1.0248  1.4839  0.7251
20094TIP3   OH281772   0.259   0.517   1.877  0.2225  0.1217  0.3436
20094TIP3    H181773   0.298   0.573   1.810  0.6696  1.1064  1.4035
20094TIP3    H281774   0.302   0.432   1.864  0.1603  0.2342 -0.7308
20095TIP3   OH281775   1.083   5.236   2.229 -0.4459  0.3047 -0.0220
20095TIP3    H181776   1.020   5.303   2.201 -1.1471  0.8683  2.5631
20095TIP3    H281777   1.079   5.239   2.325  0.4579 -2.5816  0.1998
20096TIP3   OH281778   5.712   0.738  11.920  0.3024  0.5159 -0.0383
20096TIP3    H181779   5.737   0.815  11.868 -0.0366  3.9217  4.2653
20096TIP3    H281780   5.616   0.741  11.921  0.2722 -0.2563 -0.1340
20097TIP3   OH281781   2.066   4.300   2.501 -0.4673 -0.1881  0.4792
20097TIP3    H181782   2.128   4.261   2.438  1.1581 -1.5360  2.7388
20097TIP3    H281783   2.079   4.248   2.581 -2.7530  1.1563  1.8052
20098TIP3   OH281784   0.481   3.491  16.366  0.5595  0.0227  0.4845
20098TIP3    H181785   0.523   3.479  16.281 -0.3771 -1.4594  0.1958
20098TIP3    H281786   0.449   3.581  16.365 -0.1344 -0.2038 -1.0857
20099TIP3   OH281787   6.582   0.008   1.868  0.4196 -0.0397  0.0042
20099TIP3    H181788   6.551   0.032   1.956 -1.4061 -1.2041 -0.2572
20099TIP3    H281789   6.585  -0.088   1.870 -0.3719 -0.1163 -1.4144
20100TIP3   OH281790   6.233   1.259   2.629 -0.0257  0.3486  0.7562
20100TIP3    H181791   6.248   1.192   2.562 -0.8482  0.9757 -0.0882
20100TIP3    H281792   6.148   1.296   2.606 -0.0181  1.0254  1.7818
20101TIP3   OH281793   1.211   6.555   1.295  0.2940  0.9599  0.2670
20101TIP3    H181794   1.294   6.602   1.290  0.6785  0.2131 -0.4626
20101TIP3    H281795   1.157   6.595   1.227  0.3363  0.8952  0.1958
20102TIP3   OH281796   0.974   2.586   5.873  0.4177 -0.4611  0.0983
20102TIP3    H181797   1.052   2.600   5.927 -0.2338 -0.2254  1.0027
20102TIP3    H281798   0.981   2.651   5.803  1.2605 -0.7473 -0.0842
20103TIP3   OH281799   0.530   0.353  11.825  0.4832 -0.6077 -0.2552
20103TIP3    H181800   0.592   0.415  11.865 -1.3414 -0.1308  2.0804
20103TIP3    H281801   0.464   0.409  11.783  0.1928 -1.0153 -0.3494
20104TIP3   OH281802   0.592   5.886   0.916 -0.2356 -0.3047 -0.0628
20104TIP3    H181803   0.515   5.849   0.957 -0.1877 -0.5344 -0.1767
20104TIP3    H281804   0.662   5.876   0.981 -0.4980  0.7156  0.3880
20105TIP3   OH281805   0.298   5.972   1.900 -0.4954 -0.0040 -0.0681
20105TIP3    H181806   0.344   6.053   1.878 -0.3226 -0.4650 -1.4783
20105TIP3    H281807   0.211   6.001   1.928 -0.2593  0.6999 -0.0550
20106TIP3   OH281808   2.423   5.879   1.186  0.8548 -0.2098 -0.1676
20106TIP3    H181809   2.378   5.848   1.108  1.6442  0.2809 -0.8250
20106TIP3    H281810   2.360   5.866   1.257 -0.2215  0.2322 -1.0268
20107TIP3   OH281811   3.933   6.033  14.899  0.4603 -0.5502  0.0782
20107TIP3    H181812   3.909   6.125  14.889 -1.0508 -0.9697 -0.5319
20107TIP3    H281813   3.933   6.018  14.994  1.1462  0.1803  0.1952
20108TIP3   OH281814   1.023   5.197   3.648 -0.5512  0.1271 -0.9100
20108TIP3    H181815   1.029   5.251   3.727 -0.5835 -1.0148 -0.1005
20108TIP3    H281816   1.112   5.165   3.634 -0.9311 -1.3974 -0.0599
20109TIP3   OH281817   4.881   4.162   4.955 -0.0456  0.2393  0.2032
20109TIP3    H181818   4.812   4.096   4.966 -0.1825  0.2494 -0.4993
20109TIP3    H281819   4.959   4.123   4.993 -0.2314 -0.1474  0.1874
20110TIP3   OH281820   5.265   2.190  16.433 -0.2227 -0.3594  0.9778
20110TIP3    H181821   5.182   2.233  16.414 -1.4641 -2.1014  2.1604
20110TIP3    H281822   5.295   2.155  16.349 -1.8310 -1.5934  0.8828
20111TIP3   OH281823   0.592   4.530  15.993 -0.2584  0.2679  0.5262
20111TIP3    H181824   0.633   4.581  16.063 -1.0136  1.1294  0.3490
20111TIP3    H281825   0.626   4.568  15.912 -0.9617  0.6159  0.3887
20112TIP3   OH281826   5.816   3.654  13.837  0.0196 -0.1945 -0.2950
20112TIP3    H181827   5.794   3.741  13.871  0.8181  0.1435 -0.6004
20112TIP3    H281828   5.753   3.640  13.766  0.3914  0.5071 -0.7861
20113TIP3   OH281829   6.029   0.400  11.664 -0.4327  0.6569 -0.9208
20113TIP3    H181830   6.062   0.377  11.750  0.4852  1.4807 -1.0401
20113TIP3    H281831   6.024   0.317  11.617  0.9115  0.4402 -0.7054
20114TIP3   OH281832   3.768   2.141  15.522  0.1836  0.0061 -0.3686
20114TIP3    H181833   3.736   2.051  15.532 -2.7370  0.9728 -0.2485
20114TIP3    H281834   3.754   2.162  15.430  0.3744  0.4943 -0.2912
20115TIP3   OH281835   0.525   0.972   4.344  0.2879  0.1313 -0.0212
20115TIP3    H181836   0.519   1.058   4.301  2.4832  1.1948  1.6209
20115TIP3    H281837   0.607   0.975   4.392  0.0035 -2.6142  0.7872
20116TIP3   OH281838   5.426   5.397  17.052  0.0827 -0.0020  0.0642
20116TIP3    H181839   5.481   5.321  17.076  0.3183  0.3596  0.6982
20116TIP3    H281840   5.356   5.360  16.998  1.2868 -0.3885 -1.2951
20117TIP3   OH281841   4.135   3.614   0.672  0.2597  0.4988  0.0563
20117TIP3    H181842   4.218   3.620   0.626 -0.2593 -1.0391 -1.1621
20117TIP3    H281843   4.068   3.623   0.604 -0.6495  2.8257  1.1464
20118TIP3   OH281844   2.554   0.051   0.346  0.0287 -0.2307  0.5003
20118TIP3    H181845   2.607   0.043   0.425  0.5966  1.5205  0.3432
20118TIP3    H281846   2.465   0.032   0.375  0.6019 -2.6311  0.8871
20119TIP3   OH281847   1.349   3.439   4.500 -0.5059 -0.4395  0.6209
20119TIP3    H181848   1.399   3.507   4.546 -0.0402  1.4827 -2.4184
20119TIP3    H281849   1.398   3.358   4.515  0.5986  0.4283  1.9136
20120TIP3   OH281850   1.925   4.415   4.104  0.0107 -0.2249  0.0363
20120TIP3    H181851   1.831   4.398   4.094  0.2796 -1.7250 -0.3272
20120TIP3    H281852   1.932   4.465   4.185 -1.1906  0.9698 -0.5591
20121TIP3   OH281853   6.249   2.665   2.619  0.1502  0.1277 -0.0570
20121TIP3    H181854   6.294   2.655   2.703 -0.1391 -0.7110  0.0077
20121TIP3    H281855   6.199   2.746   2.628 -1.6786 -1.0890  1.4402
20122TIP3   OH281856   5.358   4.376  15.169  0.1573  0.1973 -0.2478
20122TIP3    H181857   5.396   4.351  15.085  0.1583  2.3411 -0.9640
20122TIP3    H281858   5.364   4.472  15.170 -0.5294  0.2721  1.8811
20123TIP3   OH281859   4.456   2.280  14.815 -0.0047 -0.0227  0.4776
20123TIP3    H181860   4.471   2.365  14.774  0.5391 -0.7159 -0.8300
20123TIP3    H281861   4.456   2.298  14.909 -2.5835  1.8250  0.2174
20124TIP3   OH281862   3.276   0.560   2.438  0.0357  0.1547  0.3156
20124TIP3    H181863   3.281   0.596   2.527 -0.8898  1.3707 -0.1055
20124TIP3    H281864   3.344   0.608   2.390  1.4473 -1.4205  0.6289
20125TIP3   OH281865   2.253   5.673   2.992 -0.0675 -0.2615 -0.1736
20125TIP3    H181866   2.338   5.630   2.994  1.5272  2.5508 -1.7420
20125TIP3    H281867   2.265   5.753   3.044 -1.7687  0.2057 -0.4214
20126TIP3   OH281868   0.950   6.575   4.212  0.1803 -0.0546  0.4712
20126TIP3    H181869   0.864   6.558   4.173 -0.2060  2.6093 -0.0748
20126TIP3    H281870   0.938   6.558   4.305 -1.0070  0.4296  0.4262
20127TIP3   OH281871   1.133   5.031  12.865  0.2280 -0.1193 -0.2507
20127TIP3    H181872   1.074   5.026  12.790  0.1669 -1.8831 -0.1236
20127TIP3    H281873   1.220   5.039  12.827 -0.0061  2.4665 -0.4398
20128TIP3   OH281874   0.509   0.285  13.042 -0.1754 -0.6361 -0.6500
20128TIP3    H181875   0.497   0.213  12.981  1.0664 -1.4744  0.0627
20128TIP3    H281876   0.482   0.249  13.127 -0.0269 -0.0995 -0.3712
20129TIP3   OH281877   6.463   1.927   5.026  0.1446 -0.1317  0.3863
20129TIP3    H181878   6.404   1.994   4.992 -0.4107 -0.6923  0.2235
20129TIP3    H281879   6.408   1.873   5.083  0.1838 -1.3946 -0.7212
20130TIP3   OH281880   0.164   4.717  11.161 -0.1325 -0.5122 -0.7387
20130TIP3    H181881   0.149   4.757  11.075  2.0356 -1.7671 -1.7804
20130TIP3    H281882   0.248   4.752  11.190 -0.4525 -0.7354  0.5091
20131TIP3   OH281883   1.194   1.395   2.130 -0.6751 -0.6557  0.7246
20131TIP3    H181884   1.117   1.440   2.167 -0.8384  0.3432 -0.7390
20131TIP3    H281885   1.178   1.395   2.036  0.5834 -1.4949  0.4944
20132TIP3   OH281886   1.077   1.023   4.618 -0.2751  0.0423  0.3414
20132TIP3    H181887   1.016   1.086   4.579  0.3458  0.2524 -0.3094
20132TIP3    H281888   1.085   1.051   4.709  0.5742  1.3782 -0.1212
20133TIP3   OH281889   6.256   0.037   2.773  0.3954  0.4946 -0.6177
20133TIP3    H181890   6.288   0.119   2.735  1.6725  0.4524  0.3080
20133TIP3    H281891   6.161   0.045   2.771  0.4774  1.4154 -1.7693
20134TIP3   OH281892   0.693   5.614  15.727 -0.1445 -0.1990  0.2611
20134TIP3    H181893   0.785   5.606  15.751 -0.3023  0.5445  1.1457
20134TIP3    H281894   0.647   5.619  15.810 -0.9189  0.2410 -0.1875
20135TIP3   OH281895   4.225   6.192  15.911 -0.4438  0.1080 -0.2498
20135TIP3    H181896   4.198   6.104  15.883  0.4686 -0.1824 -0.2554
20135TIP3    H281897   4.248   6.237  15.830 -0.1654  0.0928 -0.1785
20136TIP3   OH281898   4.022   0.859   5.783 -0.9663  0.5273 -0.0161
20136TIP3    H181899   4.014   0.930   5.719  0.7217  2.0439  1.3300
20136TIP3    H281900   4.088   0.801   5.747 -0.8693  0.7400 -0.1797
20137TIP3   OH281901   2.208   6.668   3.637  0.4512  0.4704  0.0831
20137TIP3    H181902   2.199   6.762   3.618  2.9734  0.6664 -0.5297
20137TIP3    H281903   2.201   6.625   3.552 -0.9850  0.0186  0.3955
20138TIP3   OH281904   0.584   4.162   4.041  0.4902  0.0076  0.1497
20138TIP3    H181905   0.527   4.087   4.026  0.2171  0.1422  0.5044
20138TIP3    H281906   0.527   4.229   4.077  0.3394  1.0215 -1.8279
20139TIP3   OH281907   4.713   1.556  17.192  0.7853 -0.3812  0.4753
20139TIP3    H181908   4.747   1.567  17.103  1.0826  1.4467  0.7923
20139TIP3    H281909   4.639   1.616  17.198  1.7563  0.7384  1.9483
20140TIP3   OH281910   6.768   6.453   2.297 -0.2348 -0.1529 -0.0815
20140TIP3    H181911   6.795   6.363   2.278 -1.8990 -0.6614 -0.2349
20140TIP3    H281912   6.848   6.504   2.292  0.5259 -1.4030 -1.4365
20141TIP3   OH281913   3.815   2.626  12.420  0.3244  0.4994  0.0842
20141TIP3    H181914   3.767   2.702  12.454 -0.4246 -1.4793  3.9892
20141TIP3    H281915   3.748   2.571  12.379  0.3726  0.5844 -0.1119
20142TIP3   OH281916   0.866   3.255  10.865 -0.3971  0.4145 -0.2636
20142TIP3    H181917   0.922   3.207  10.805  0.9286  0.1039  1.1717
20142TIP3    H281918   0.851   3.195  10.938  2.0907  2.3731  2.0420
20143TIP3   OH281919   3.978   0.171   1.480 -0.4038 -0.3790 -0.3275
20143TIP3    H181920   4.031   0.241   1.443  1.3971 -1.8591 -0.6809
20143TIP3    H281921   4.037   0.096   1.485 -1.4256 -1.1438  2.6562
20144TIP3   OH281922   0.262   0.688   4.377 -0.5045 -0.0526 -0.5548
20144TIP3    H181923   0.296   0.676   4.289  0.7293  0.0086 -0.1143
20144TIP3    H281924   0.278   0.781   4.397 -0.3029 -0.1794 -0.0935
20145TIP3   OH281925   0.180   6.587  16.551 -0.0789  0.1800  0.0521
20145TIP3    H181926   0.175   6.500  16.512  0.6266  1.2321 -2.5845
20145TIP3    H281927   0.089   6.610  16.571 -0.2836 -1.0762  0.6287
20146TIP3   OH281928   1.434   4.457  15.731 -0.2022 -0.2349  0.3740
20146TIP3    H181929   1.419   4.503  15.649 -1.9013 -1.5307 -0.0807
20146TIP3    H281930   1.398   4.515  15.798  0.8555  0.6558  0.1967
20147TIP3   OH281931   3.472   4.582  11.755  0.5115 -0.5293 -0.3479
20147TIP3    H181932   3.516   4.579  11.841 -1.0077  2.6246  0.6732
20147TIP3    H281933   3.533   4.630  11.699  0.0877  0.3926 -0.0375
20148TIP3   OH281934   5.609   5.642  11.384  0.0167  0.6171  0.3677
20148TIP3    H181935   5.549   5.578  11.423 -0.6616  0.7325 -0.4494
20148TIP3    H281936   5.682   5.589  11.352 -0.9185  0.1086 -1.0457
20149TIP3   OH281937   0.798   5.008  11.451 -0.7897 -0.1880 -0.0565
20149TIP3    H181938   0.875   5.044  11.497  0.5508 -2.1782 -0.6212
20149TIP3    H281939   0.774   4.930  11.501 -1.7714 -0.1944 -0.5218
20150TIP3   OH281940   6.404   3.806   4.593  0.0493  0.6618  0.1749
20150TIP3    H181941   6.329   3.855   4.560  0.9084  0.9989 -1.3836
20150TIP3    H281942   6.461   3.873   4.634 -0.2699  0.4717  0.9519
20151TIP3   OH281943   6.164   1.760   6.541  0.2270 -0.7294 -1.1511
20151TIP3    H181944   6.151   1.791   6.452  0.8715 -0.0843 -1.0354
20151TIP3    H281945   6.091   1.798   6.591  0.1054 -0.7386 -1.3234
20152TIP3   OH281946   4.848   5.192   4.368 -0.1272  0.2101  0.3816
20152TIP3    H181947   4.919   5.194   4.305 -0.4676 -1.2408 -0.0999
20152TIP3    H281948   4.891   5.199   4.453  0.7768 -1.9156  0.1674
20153TIP3   OH281949   2.763   1.598  13.680  0.3013  0.1882  0.1619
20153TIP3    H181950   2.728   1.653  13.609 -0.9351  2.3428  2.3104
20153TIP3    H281951   2.857   1.592  13.660  0.0642  1.0672 -1.4527
20154TIP3   OH281952   2.855   2.553   5.664 -0.1014  0.3388 -0.3733
20154TIP3    H181953   2.782   2.582   5.720  0.9015 -1.2120  1.8464
20154TIP3    H281954   2.928   2.609   5.689 -0.1329  1.0056 -1.6637
20155TIP3   OH281955   4.991   0.257   1.981 -0.1422  0.2911  0.1815
20155TIP3    H181956   4.922   0.319   2.005 -0.4410 -0.0937  0.3301
20155TIP3    H281957   5.071   0.296   2.017 -0.1880  1.0246 -0.4950
20156TIP3   OH281958   0.178   3.449   2.975  0.4086  0.3116 -0.5173
20156TIP3    H181959   0.104   3.456   3.035  0.2256  0.1757 -0.7251
20156TIP3    H281960   0.203   3.357   2.978 -0.4945  0.0068 -1.6986
20157TIP3   OH281961   1.918   4.617   4.596 -0.2857 -0.0136 -0.1647
20157TIP3    H181962   1.896   4.691   4.539 -0.8259 -0.3712 -0.4290
20157TIP3    H281963   1.865   4.544   4.563  0.0567 -0.4588  0.2446
20158TIP3   OH281964   1.323   2.493   4.666 -0.2389  0.0488  0.4469
20158TIP3    H181965   1.247   2.457   4.621 -0.7167 -2.5996  3.0600
20158TIP3    H281966   1.287   2.558   4.727 -0.3672 -0.6964  1.1833
20159TIP3   OH281967   2.414   3.072   5.107 -0.0339 -0.5780  0.2973
20159TIP3    H181968   2.479   3.053   5.175  1.0176  1.1943 -0.1403
20159TIP3    H281969   2.429   3.006   5.040  1.4256 -0.1693  0.1672
20160TIP3   OH281970   0.446   2.352  14.320 -0.2061 -0.0779  0.1563
20160TIP3    H181971   0.483   2.346  14.232  1.4187  1.6167  0.6354
20160TIP3    H281972   0.413   2.265  14.339 -0.5015 -0.5103 -2.0680
20161TIP3   OH281973   1.389   3.020  13.599 -0.1055  0.2222  0.1059
20161TIP3    H181974   1.392   3.073  13.679  1.3441 -0.0628  0.2622
20161TIP3    H281975   1.409   2.931  13.628  0.5406  0.1333 -0.5776
20162TIP3   OH281976   1.151   6.533  12.345 -0.3729  0.4261 -0.2761
20162TIP3    H181977   1.075   6.590  12.361 -1.0588 -0.3294 -0.7666
20162TIP3    H281978   1.188   6.565  12.263 -0.4380  0.5096 -0.2731
20163TIP3   OH281979   3.680   5.545   6.554  0.3203  0.7494 -0.3983
20163TIP3    H181980   3.610   5.587   6.504  0.7109  1.3716 -0.4245
20163TIP3    H281981   3.634   5.486   6.614 -0.1952  0.6896 -0.8405
20164TIP3   OH281982   4.900   0.442  15.960 -0.3542 -0.1070 -0.4961
20164TIP3    H181983   4.851   0.420  15.881  0.2703 -0.1072 -0.8879
20164TIP3    H281984   4.888   0.366  16.018 -1.5402  0.2577 -0.2169
20165TIP3   OH281985   2.654   0.380  11.803  0.3800  0.4774  0.4249
20165TIP3    H181986   2.575   0.339  11.767 -0.5604  2.8841 -0.4879
20165TIP3    H281987   2.715   0.384  11.729  0.6387  0.3166  0.6287
20166TIP3   OH281988   2.286   2.903  15.003  0.0899 -0.6479 -0.4870
20166TIP3    H181989   2.304   2.996  14.998 -1.9616 -0.1496  0.5326
20166TIP3    H281990   2.316   2.868  14.919  2.5026  0.5826 -0.2169
20167TIP3   OH281991   5.952   0.256   6.244  0.2179 -0.3750  0.2541
20167TIP3    H181992   5.863   0.247   6.209  0.2561  2.2335 -0.7707
20167TIP3    H281993   5.960   0.185   6.308 -1.4012 -2.7414 -1.9307
20168TIP3   OH281994   5.779   3.765   3.703  0.3909 -0.0841 -0.8195
20168TIP3    H181995   5.793   3.739   3.794  0.0020 -0.9732 -1.0037
20168TIP3    H281996   5.768   3.860   3.706  0.5922 -0.0832  0.0332
20169TIP3   OH281997   1.821   3.037   0.162 -0.2724  0.4150  0.3171
20169TIP3    H181998   1.769   3.099   0.111 -2.3698 -0.7430  0.9143
20169TIP3    H281999   1.836   2.964   0.103  1.7602  1.1791 -0.2185
20170TIP3   OH282000   6.786   2.837   3.631 -0.3286  0.1187  0.4551
20170TIP3    H182001   6.712   2.846   3.691 -1.6550  0.4810 -1.1822
20170TIP3    H282002   6.753   2.783   3.560  1.0211  0.2081 -0.2716
20171TIP3   OH282003   0.540   4.056  15.855  0.0031 -0.4241 -0.3377
20171TIP3    H182004   0.582   4.139  15.834  1.1422 -0.1481  2.6237
20171TIP3    H282005   0.611   3.992  15.850 -0.0139 -0.5706  0.9969
20172TIP3   OH282006   5.624   1.913   3.930  0.1973  0.1450  0.1848
20172TIP3    H182007   5.616   1.846   3.861 -1.9212  1.0662 -0.5774
20172TIP3    H282008   5.677   1.872   3.998  0.9849 -1.4098 -1.2883
20173TIP3   OH282009   0.322   2.147  17.105 -0.9140 -0.2003  0.0319
20173TIP3    H182010   0.310   2.199  17.026  1.7649  0.3386 -0.0965
20173TIP3    H282011   0.292   2.204  17.176 -1.1766  0.1916 -0.3899
20174TIP3   OH282012   6.793   0.102   0.176  0.4471 -0.2787  0.0207
20174TIP3    H182013   6.736   0.173   0.207  1.3429 -0.1378  1.4235
20174TIP3    H282014   6.789   0.036   0.246 -1.3938 -2.2724 -1.8058
20175TIP3   OH282015   6.031   1.047   4.379 -0.4094 -0.1747 -0.2602
20175TIP3    H182016   6.111   1.092   4.352  1.1628 -1.6262  1.6430
20175TIP3    H282017   5.986   1.110   4.437  0.3373 -0.0123  0.1558
20176TIP3   OH282018   0.887   6.460   2.513  0.7602  0.5223 -0.4225
20176TIP3    H182019   0.895   6.499   2.426  3.3621 -0.3988 -0.7109
20176TIP3    H282020   0.906   6.532   2.573 -0.1383  0.9605 -0.6568
20177TIP3   OH282021   2.983   2.035   5.838  0.0149 -0.6664  0.0165
20177TIP3    H182022   2.978   2.118   5.885 -0.8943 -0.7157  0.0217
20177TIP3    H282023   3.054   1.987   5.881 -0.4083 -0.4741  0.9630
20178TIP3   OH282024   6.465   4.026   2.994 -0.1640 -0.1368  0.1108
20178TIP3    H182025   6.496   4.054   3.080  0.5274  0.0393 -0.1810
20178TIP3    H282026   6.421   4.103   2.958 -1.7165 -0.6475  0.8678
20179TIP3   OH282027   4.835   6.568  10.293 -0.0300 -0.1645 -0.0135
20179TIP3    H182028   4.769   6.635  10.312 -0.5258  0.0120 -2.1358
20179TIP3    H282029   4.918   6.607  10.323 -0.5021  0.7935  0.0772
20180TIP3   OH282030   3.269   3.711  13.456  0.2390  0.6882 -0.2202
20180TIP3    H182031   3.238   3.621  13.471  0.3549  0.6418 -0.2545
20180TIP3    H282032   3.277   3.717  13.361 -0.7601  1.0700 -0.2946
20181TIP3   OH282033   3.471   0.235   0.588 -0.1259 -0.1141  0.2805
20181TIP3    H182034   3.528   0.275   0.523  2.8393  1.0018  3.2643
20181TIP3    H282035   3.389   0.218   0.541  1.6591  0.8073 -3.5681
20182TIP3   OH282036   3.807   5.515  16.414  0.2167  0.3641 -0.4290
20182TIP3    H182037   3.783   5.594  16.462 -0.0322  0.1502 -0.2000
20182TIP3    H282038   3.773   5.529  16.326  1.7727  1.3073 -0.9202
20183TIP3   OH282039   1.414   2.662  14.851 -0.7181  0.0018  0.2489
20183TIP3    H182040   1.448   2.667  14.941 -0.9235 -1.8357  0.4742
20183TIP3    H282041   1.325   2.696  14.857 -0.7390 -0.1241  0.7437
20184TIP3   OH282042   3.444   4.492   0.728  0.0881  0.3741  0.5407
20184TIP3    H182043   3.535   4.519   0.738  0.1771 -0.1924  1.2618
20184TIP3    H282044   3.426   4.505   0.634  0.9468  0.3585  0.3653
20185TIP3   OH282045   3.244   5.071  10.691 -0.3122  0.0485  0.2503
20185TIP3    H182046   3.302   4.996  10.679  1.1734  1.0815  0.6455
20185TIP3    H282047   3.205   5.086  10.604 -0.6069 -1.1388  0.1668
20186TIP3   OH282048   2.213   5.816  14.983 -0.3768 -0.4444 -0.1319
20186TIP3    H182049   2.252   5.822  14.896 -1.8802 -0.2723 -0.8120
20186TIP3    H282050   2.287   5.826  15.043  0.7731 -1.1803 -1.3792
20187TIP3   OH282051   3.640   1.153  17.027 -0.2971  0.1146  0.1653
20187TIP3    H182052   3.584   1.075  17.032 -0.1045 -0.0728 -0.5589
20187TIP3    H282053   3.586   1.218  16.982 -0.2324  0.2077  0.2216
20188TIP3   OH282054   1.659   6.475   0.299 -0.4847 -0.4105 -0.4307
20188TIP3    H182055   1.606   6.486   0.379 -1.4616 -1.5026 -0.9025
20188TIP3    H282056   1.712   6.397   0.316  0.7787  0.4880 -0.0941
20189TIP3   OH282057   2.507   3.290  13.980 -0.8001  0.2406  0.0235
20189TIP3    H182058   2.490   3.347  13.905  0.8448  1.0884  0.2565
20189TIP3    H282059   2.423   3.286  14.026 -0.7749  3.2968  0.5425
20190TIP3   OH282060   4.362   6.108   6.087  0.2169  0.1605 -0.2008
20190TIP3    H182061   4.412   6.188   6.104  0.5666 -0.0802 -0.0807
20190TIP3    H282062   4.310   6.094   6.166 -2.3176  2.0206 -1.3941
20191TIP3   OH282063   5.108   6.078  11.418 -0.0058 -0.3940  0.6787
20191TIP3    H182064   5.199   6.093  11.395 -0.0877 -0.1609  0.5007
20191TIP3    H282065   5.061   6.079  11.334 -0.0415 -1.5204  0.6601
20192TIP3   OH282066   5.134   2.310  11.986 -0.0447  0.5254 -0.0829
20192TIP3    H182067   5.143   2.371  12.059  0.3470 -1.4083  1.5648
20192TIP3    H282068   5.224   2.293  11.958 -0.0360 -0.4508  0.4996
20193TIP3   OH282069   6.737   0.216  11.184  0.1568 -0.1676  0.1723
20193TIP3    H182070   6.697   0.143  11.137 -0.9517  2.1981 -2.9158
20193TIP3    H282071   6.817   0.235  11.137  0.3533  0.7187  0.8286
20194TIP3   OH282072   1.003   4.684   3.781 -0.7091  0.3323 -0.1260
20194TIP3    H182073   1.093   4.650   3.787 -0.9638 -0.3216  0.0656
20194TIP3    H282074   1.014   4.776   3.757  0.0596  0.5400  0.9412
20195TIP3   OH282075   4.414   5.326  11.568 -0.1402  0.5840  0.0613
20195TIP3    H182076   4.493   5.351  11.519  0.0879 -0.4225 -0.0966
20195TIP3    H282077   4.343   5.335  11.505 -0.2234  1.8542  0.3054
20196TIP3   OH282078   1.327   3.695  15.573  0.2295  0.4027  0.6259
20196TIP3    H182079   1.248   3.645  15.596 -0.2396  0.2754 -1.1190
20196TIP3    H282080   1.393   3.627  15.556 -0.3962  0.3056 -1.7040
20197TIP3   OH282081   1.231   0.593  15.550 -0.0740 -0.3845 -0.3485
20197TIP3    H182082   1.273   0.548  15.623 -0.5894 -0.6496 -0.2083
20197TIP3    H282083   1.149   0.545  15.537 -0.1367 -0.1354 -0.8878
20198TIP3   OH282084   1.321   6.805  12.942 -1.2520  0.3337 -0.3088
20198TIP3    H182085   1.391   6.815  12.878 -1.6262  1.5131 -0.5503
20198TIP3    H282086   1.354   6.739  13.004  0.1448  1.0028 -0.3010
20199TIP3   OH282087   1.109   6.662   1.685 -0.4648  0.3865  0.1272
20199TIP3    H182088   1.061   6.734   1.724 -2.8290 -0.9791 -0.0931
20199TIP3    H282089   1.194   6.663   1.730 -0.9135  2.4547  1.0332
20200TIP3   OH282090   0.535   1.663  16.203 -0.0103  0.1886  0.3040
20200TIP3    H182091   0.471   1.636  16.269  0.5773 -0.3682  0.6504
20200TIP3    H282092   0.525   1.600  16.132  2.7016 -2.3017  1.9127
20201TIP3   OH282093   1.809   1.263  11.617  0.2821  0.1704  0.1409
20201TIP3    H182094   1.733   1.285  11.671 -0.3602 -1.2595 -0.1429
20201TIP3    H282095   1.782   1.285  11.527  0.8847  1.3353  0.2141
20202TIP3   OH282096   0.225   5.173   1.264  0.0645  0.0448 -0.4510
20202TIP3    H182097   0.276   5.195   1.342  0.7723 -0.7619 -0.6690
20202TIP3    H282098   0.141   5.143   1.297 -0.7597  2.5163 -0.1197
20203TIP3   OH282099   1.477   0.042  16.954  0.3255 -0.4240 -0.0235
20203TIP3    H182100   1.544   0.108  16.935  1.5972 -0.2230  4.1131
20203TIP3    H282101   1.526  -0.029  16.997 -1.6933 -1.7883  0.1405
20204TIP3   OH282102   4.292   4.162   4.805  0.0960  0.6409 -0.2086
20204TIP3    H182103   4.230   4.144   4.876 -0.1081  2.5606  0.1536
20204TIP3    H282104   4.243   4.213   4.741  1.1053  1.6415 -0.2241
20205TIP3   OH282105   1.208   6.624  14.636  0.2274  0.0240  0.4560
20205TIP3    H182106   1.253   6.658  14.713  1.3180  0.9503 -0.5512
20205TIP3    H282107   1.242   6.535  14.625  0.2388 -0.0270  0.8937
20206TIP3   OH282108   3.099   6.657   0.836 -0.6538  0.1666  1.0553
20206TIP3    H182109   3.186   6.698   0.829 -0.9765  0.8803  1.0832
20206TIP3    H282110   3.098   6.590   0.768 -0.2386  0.4487  0.7620
20207TIP3   OH282111   4.821   4.915  14.596  0.1964  0.4505  0.1375
20207TIP3    H182112   4.871   4.894  14.675  2.6846 -0.0363 -1.4559
20207TIP3    H282113   4.775   4.834  14.574  0.4951  0.2074  0.3979
20208TIP3   OH282114   0.610   0.691   3.171  0.0320 -0.2023 -0.1014
20208TIP3    H182115   0.612   0.768   3.226  1.1206 -0.4201  0.1917
20208TIP3    H282116   0.684   0.702   3.111 -1.0033 -0.0628 -1.4032
20209TIP3   OH282117   6.648   2.595  16.979 -0.0640 -0.3216 -0.7843
20209TIP3    H182118   6.595   2.569  17.055 -0.6584  1.4572 -0.5428
20209TIP3    H282119   6.703   2.666  17.012  0.1542  0.0199 -1.8611
20210TIP3   OH282120   4.141   2.819   3.598 -0.7525  0.1781 -0.1273
20210TIP3    H182121   4.181   2.771   3.671 -0.3817 -0.1475 -0.5387
20210TIP3    H282122   4.057   2.776   3.583  0.2992 -1.4885 -1.6127
20211TIP3   OH282123   2.824   3.345  13.404 -0.2831 -0.7054  0.2949
20211TIP3    H182124   2.894   3.282  13.385 -0.3388 -0.4875 -0.6904
20211TIP3    H282125   2.870   3.428  13.416 -0.1919 -0.9508  1.7869
20212TIP3   OH282126   3.241   2.997  13.930  0.2183  0.5880 -0.0646
20212TIP3    H182127   3.313   2.969  13.873  0.7175 -0.4150  1.0231
20212TIP3    H282128   3.279   3.065  13.985  0.6790 -0.6507  1.2154
20213TIP3   OH282129   3.678   0.691   5.123 -0.4501  0.3091 -0.1046
20213TIP3    H182130   3.595   0.662   5.160  0.4054 -3.0019 -0.4935
20213TIP3    H282131   3.743   0.673   5.191  0.1215  1.8448 -0.2130
20214TIP3   OH282132   2.858   0.370   3.084  0.1484  0.1652 -0.1995
20214TIP3    H182133   2.891   0.295   3.035 -1.1105 -1.0843  0.7651
20214TIP3    H282134   2.931   0.396   3.140  1.0410  0.5500 -1.5188
20215TIP3   OH282135   2.140   2.939  16.733 -0.2240 -0.0783 -0.3469
20215TIP3    H182136   2.115   2.853  16.766 -2.1097  0.1154 -1.2049
20215TIP3    H282137   2.228   2.925  16.696 -0.2864 -1.5048 -0.0302
20216TIP3   OH282138   5.251   5.758   2.906 -0.2617  0.7064 -0.1461
20216TIP3    H182139   5.301   5.839   2.894 -1.0537  1.1398 -0.6180
20216TIP3    H282140   5.310   5.689   2.876  1.3167  0.8316  2.3771
20217TIP3   OH282141   5.599   2.099   0.634  0.3365  0.2015  0.2332
20217TIP3    H182142   5.644   2.169   0.681 -0.5687  0.3605  0.8782
20217TIP3    H282143   5.584   2.031   0.699 -1.7231  0.7934  0.4507
20218TIP3   OH282144   5.882   1.007  13.137  0.4443  0.1904  0.8143
20218TIP3    H182145   5.906   1.096  13.162 -0.5714  0.4216  0.9947
20218TIP3    H282146   5.901   0.954  13.215  1.3626  0.1735  0.5980
20219TIP3   OH282147   4.122   2.193   3.924  0.3683  0.1798  0.0617
20219TIP3    H182148   4.209   2.230   3.938 -0.1561  0.9360  1.5100
20219TIP3    H282149   4.123   2.164   3.832  1.5707  1.7065 -0.4481
20220TIP3   OH282150   2.422   0.411  13.816 -0.2276  0.3733  0.1880
20220TIP3    H182151   2.486   0.408  13.745  0.6756  1.8091  0.9013
20220TIP3    H282152   2.437   0.330  13.865 -1.8339 -1.3687 -1.9934
20221TIP3   OH282153   3.480   1.686   5.141  0.1807  0.6210 -0.4446
20221TIP3    H182154   3.386   1.700   5.144 -0.0176 -0.7197  1.0511
20221TIP3    H282155   3.518   1.772   5.156 -0.8142  1.0167 -0.1292
20222TIP3   OH282156   4.832   6.664  12.546  0.2962 -0.4748  0.0347
20222TIP3    H182157   4.798   6.621  12.625  0.9139 -2.5084 -0.7587
20222TIP3    H282158   4.825   6.758  12.566  0.0915 -0.9117  2.3556
20223TIP3   OH282159   4.424   0.396   6.086 -0.5105 -0.7951  0.3369
20223TIP3    H182160   4.358   0.338   6.123 -2.3882  1.6314  1.0754
20223TIP3    H282161   4.500   0.385   6.142 -0.4055 -3.2320 -0.1781
20224TIP3   OH282162   6.605   1.990   3.865  1.1291  0.4676  0.5891
20224TIP3    H182163   6.531   1.963   3.809  3.1916 -1.8152 -1.3249
20224TIP3    H282164   6.625   2.079   3.837  1.6943 -0.3860 -2.0596
20225TIP3   OH282165   3.738   2.260  13.771 -0.1973 -0.3047  0.2125
20225TIP3    H182166   3.704   2.182  13.728 -0.1289  0.3900 -1.1342
20225TIP3    H282167   3.809   2.289  13.715  0.9794 -0.2902  1.6647
20226TIP3   OH282168   0.784   5.859  11.894 -0.5438 -0.0179  0.3708
20226TIP3    H182169   0.875   5.834  11.879 -1.1984 -0.5638 -3.6323
20226TIP3    H282170   0.787   5.954  11.900  0.2938 -0.0170  0.1631
20227TIP3   OH282171   0.588   2.913  13.171 -0.2262  0.2995 -0.3594
20227TIP3    H182172   0.619   2.968  13.099 -2.6482  0.7344 -1.1528
20227TIP3    H282173   0.576   2.826  13.132 -1.9886  0.6458 -0.6390
20228TIP3   OH282174   3.253   6.219  12.205 -0.0144 -0.1117  0.2343
20228TIP3    H182175   3.239   6.232  12.298 -1.4533  0.4592 -0.0315
20228TIP3    H282176   3.217   6.132  12.187  1.5447 -0.8453  0.4232
20229TIP3   OH282177   3.537   3.209   2.623  0.1998  0.2976  0.4364
20229TIP3    H182178   3.471   3.200   2.554  2.5597 -0.6572 -1.8490
20229TIP3    H282179   3.583   3.290   2.602  1.4080 -0.3669  0.3970
20230TIP3   OH282180   6.177   5.827   0.243  0.3220 -0.3966 -0.2694
20230TIP3    H182181   6.119   5.752   0.254  1.7936 -1.7200 -1.1642
20230TIP3    H282182   6.262   5.798   0.277  0.8764  0.9314 -0.4379
20231TIP3   OH282183   0.369   1.914  12.642 -0.3113  0.5541 -0.1753
20231TIP3    H182184   0.438   1.898  12.706 -0.2652 -1.0366 -0.5858
20231TIP3    H282185   0.320   1.989  12.677  0.5574  0.5957  0.9932
20232TIP3   OH282186   1.613   6.515  11.245 -0.4384 -0.3263  0.1653
20232TIP3    H182187   1.701   6.499  11.210 -0.9679 -2.2977 -0.3644
20232TIP3    H282188   1.614   6.473  11.331  0.0277  2.2644  1.5376
20233CLA    CLA82189   3.325   1.800   3.979 -0.0198  0.1938 -0.1077
20234LIG      S82190   2.807   2.657  12.945 -0.1840 -0.4848  0.7225
20234LIG     O182191   2.806   3.069  12.572  0.1032  0.0189 -0.6019
20234LIG     O282192   3.052   2.889  12.849  0.0704  0.6022  0.7207
20234LIG     O382193   3.203   2.884  13.301  0.5812 -0.3126 -0.5476
20234LIG     O482194   2.935   2.902  13.377  0.2329  0.2017 -0.1491
20234LIG      N82195   2.731   3.299  13.028 -0.4553 -0.0379 -0.0329
20234LIG     C182196   2.772   3.094  12.808  0.3646 -0.5206 -0.0442
20234LIG     C282197   2.780   3.160  13.060 -0.1678 -0.3152  0.2739
20234LIG     C382198   2.670   3.311  12.892 -0.0626  0.6874  0.5594
20234LIG     C482199   2.850   3.090  12.945 -0.3968 -0.4488  0.0856
20234LIG     C582200   2.753   3.245  12.769 -0.1453  0.1547  0.1610
20234LIG     C682201   2.647   3.347  13.145  0.0829  0.3976 -0.4348
20234LIG     C782202   2.858   3.034  12.695  0.0670 -0.2105  0.0975
20234LIG     C882203   2.858   3.386  13.028  0.0464 -0.2869 -0.3404
20234LIG     C982204   2.873   2.881  12.695  0.4717 -0.1201 -0.2602
20234LIG    C1082205   2.518   3.283  13.143  0.3020 -0.0809 -0.3129
20234LIG    C1182206   2.964   2.819  12.797 -0.2706 -0.0178 -0.3271
20234LIG    C1282207   2.947   2.672  12.824 -0.1198 -0.3755 -0.5103
20234LIG    C1382208   2.488   3.176  13.225 -0.2836 -0.7168 -0.0734
20234LIG    C1482209   2.413   3.337  13.064  0.8007  0.2774 -0.3302
20234LIG    C1582210   3.066   2.618  12.903  0.3641  0.3683  0.1224
20234LIG    C1682211   3.046   2.669  13.051  0.1646  0.6631  0.1216
20234LIG    C1782212   2.366   3.122  13.243 -0.1238  0.0555  0.2272
20234LIG    C1882213   2.286   3.279  13.076 -0.6476 -0.9220  0.1629
20234LIG    C1982214   2.913   2.683  13.081 -0.4138  0.8014  0.5273
20234LIG    C2082215   2.262   3.170  13.160 -0.3170 -0.7520  0.2578
20234LIG    C2182216   3.148   2.718  13.129 -0.1798  0.5199 -0.1947
20234LIG    C2282217   2.873   2.744  13.191 -0.1316 -0.7185 -0.0040
20234LIG    C2382218   3.110   2.798  13.239 -0.4429 -0.1557 -0.4739
20234LIG    C2482219   2.969   2.809  13.270  0.3632 -0.1581 -0.4182
20234LIG    C2582220   3.322   2.812  13.341  0.2747  0.1865  0.2366
20234LIG    C2682221   2.799   2.918  13.422 -0.0827 -0.3568 -0.7799
20234LIG     H182222   2.675   3.041  12.805  0.8107 -1.3214 -1.0029
20234LIG     H282223   2.693   3.103  13.089 -0.3993 -1.7313 -2.8749
20234LIG     H382224   2.849   3.168  13.143 -1.5575  0.4279  1.4017
20234LIG     H482225   2.660   3.414  12.858  1.6132 -0.2375 -3.3247
20234LIG     H582226   2.571   3.269  12.896 -0.2519  1.0916  0.2205
20234LIG     H682227   2.950   3.135  12.931  2.0631 -3.2934  5.2767
20234LIG     H782228   2.876   2.985  12.972  0.9751 -0.5508 -1.4687
20234LIG     H882229   2.709   3.259  12.667  0.3638 -0.6529 -0.1726
20234LIG     H982230   2.855   3.288  12.770  0.8836 -2.1750  0.9879
20234LIG    H1082231   2.637   3.454  13.144 -2.8834  0.3383  3.1611
20234LIG    H1182232   2.688   3.322  13.242  0.2162 -1.7474 -0.9835
20234LIG    H1282233   2.961   3.076  12.697  0.5061 -1.2967  0.9217
20234LIG    H1382234   2.915   3.359  12.940 -0.4919 -0.4801 -0.6328
20234LIG    H1482235   2.915   3.380  13.119  1.8513 -1.3366 -1.4911
20234LIG    H1582236   2.839   3.492  13.018  0.1302 -0.3494 -1.3586
20234LIG    H1682237   2.910   2.858  12.593  0.8082  3.2302 -1.0055
20234LIG    H1782238   2.773   2.838  12.714 -0.2806  1.5689 -0.2527
20234LIG    H1882239   2.712   3.061  12.585 -0.3660  1.4986 -2.6248
20234LIG    H1982240   2.932   2.605  12.738  0.1831 -0.3131 -0.6149
20234LIG    H2082241   2.567   3.123  13.276 -1.5312 -0.3227  2.4000
20234LIG    H2182242   2.438   3.417  12.995  3.0223 -1.4479 -1.6973
20234LIG    H2282243   3.166   2.637  12.861  0.3174  0.1735 -0.0780
20234LIG    H2382244   3.064   2.509  12.917  0.8647  0.6324  2.8013
20234LIG    H2482245   2.352   3.041  13.313  1.2971  0.8840  1.5379
20234LIG    H2582246   2.206   3.317  13.015  1.2812  2.0162 -0.7662
20234LIG    H2682247   2.165   3.124  13.147 -1.8614  2.2194  0.3972
20234LIG    H2782248   3.250   2.699  13.097 -0.7430 -2.1019 -0.6903
20234LIG    H2882249   2.767   2.761  13.200 -0.4234 -2.5463  0.4589
20234LIG    H2982250   3.385   2.879  13.402 -0.8531 -0.1562  1.8222
20234LIG    H3082251   3.363   2.778  13.243  0.9262  1.5960 -0.0101
20234LIG    H3182252   3.296   2.730  13.410  1.7005  1.2947  2.1704
20234LIG    H3282253   2.737   2.956  13.339 -1.4908  1.3848  0.9639
20234LIG    H3382254   2.802   2.982  13.513  1.2177  0.6497 -1.5009
20234LIG    H3482255   2.767   2.814  13.444 -0.0433 -0.0754  0.7235
   6.83175   6.83175  17.19782
